Title
55513
    1DOPE     N    1   3.052   5.477  13.357  0.0155  0.4516 -0.6164
    1DOPE   HN1    2   3.029   5.512  13.262 -1.1620  1.8938  0.1726
    1DOPE   HN2    3   3.097   5.383  13.366 -1.7161 -0.1889  2.3033
    1DOPE   HN3    4   2.964   5.463  13.410  1.0690 -0.7345  0.9012
    1DOPE   C12    5   3.143   5.571  13.429 -0.5964 -0.8848  0.2232
    1DOPE  H12A    6   3.180   5.524  13.522 -1.7390 -0.4868  0.8926
    1DOPE  H12B    7   3.087   5.665  13.448  0.6404 -0.0538 -0.1046
    1DOPE   C11    8   3.256   5.622  13.338 -0.2244 -0.1056  0.2276
    1DOPE  H11A    9   3.318   5.536  13.304 -1.5222 -0.8043 -0.4148
    1DOPE  H11B   10   3.322   5.695  13.390 -1.8484  1.1009  0.6389
    1DOPE     P   11   3.191   5.625  13.076 -0.2918 -0.2225 -0.2831
    1DOPE   O13   12   3.129   5.718  12.983 -0.2292  0.3565  0.0476
    1DOPE   O14   13   3.129   5.492  13.094 -0.2987 -0.1345  0.4620
    1DOPE   O11   14   3.344   5.611  13.036  0.5133 -0.3589 -0.1429
    1DOPE   O12   15   3.195   5.693  13.224 -0.7621 -0.2629  0.2444
    1DOPE    C1   16   3.418   5.737  13.042  0.7167 -0.4655 -0.1166
    1DOPE    HA   17   3.508   5.711  13.101  0.8059 -1.3286 -0.6230
    1DOPE    HB   18   3.382   5.816  13.112  0.6026  0.6185 -1.3567
    1DOPE    C2   19   3.464   5.796  12.908 -0.0266  1.1270  0.7369
    1DOPE    HS   20   3.517   5.892  12.929 -0.1963  1.7417 -1.4675
    1DOPE   O21   21   3.353   5.818  12.826 -0.2616 -0.3385  0.0673
    1DOPE   C21   22   3.301   5.944  12.846  0.3539 -0.3918  0.0859
    1DOPE   O22   23   3.335   6.022  12.929 -0.2983 -0.5073  0.4168
    1DOPE   C22   24   3.184   5.959  12.739  0.2183  0.5981 -0.6341
    1DOPE   H2R   25   3.092   5.923  12.790 -0.3792 -1.5782 -3.0350
    1DOPE   H2S   26   3.215   5.893  12.655  0.7633  0.2523 -0.1657
    1DOPE    C3   27   3.563   5.702  12.831  0.4544 -0.7429 -0.1032
    1DOPE    HX   28   3.533   5.595  12.840  2.6172 -1.3746  0.3291
    1DOPE    HY   29   3.656   5.702  12.891 -0.0208 -0.7779  0.6424
    1DOPE   O31   30   3.597   5.748  12.700 -0.6824 -0.1191  0.1087
    1DOPE   C31   31   3.526   5.680  12.594  0.1893  0.6605 -0.9044
    1DOPE   O32   32   3.442   5.598  12.614  0.8356 -0.0148  0.0851
    1DOPE   C32   33   3.579   5.734  12.468 -0.3691  0.7359  0.2357
    1DOPE   H2X   34   3.672   5.793  12.484  0.0176  0.2473 -0.1636
    1DOPE   H2Y   35   3.596   5.641  12.410 -2.1545  1.3590 -1.3990
    1DOPE   C23   36   3.151   6.105  12.702  0.9875 -0.9042  0.3133
    1DOPE   H3R   37   3.194   6.166  12.785  3.0074  0.0105 -1.3236
    1DOPE   H3S   38   3.043   6.132  12.698  1.0781  0.2215  2.9526
    1DOPE   C24   39   3.203   6.146  12.567  0.1839 -0.4877  0.7908
    1DOPE   H4R   40   3.158   6.081  12.489  0.3752  0.6046 -0.2544
    1DOPE   H4S   41   3.311   6.121  12.554 -0.5737 -2.7125 -2.4434
    1DOPE   C25   42   3.163   6.293  12.528 -0.1724  0.8613 -0.1339
    1DOPE   H5R   43   3.053   6.305  12.542  0.2829  3.2142  2.3029
    1DOPE   H5S   44   3.190   6.311  12.422  1.7145 -1.4291 -0.1238
    1DOPE   C26   45   3.236   6.400  12.612 -0.7559  0.1650  0.2992
    1DOPE   H6R   46   3.256   6.372  12.718  1.4411 -0.3287 -0.1991
    1DOPE   H6S   47   3.165   6.484  12.598 -1.9310 -0.7795  0.4690
    1DOPE   C27   48   3.380   6.433  12.566 -0.2462  0.0096 -0.6915
    1DOPE   H7R   49   3.415   6.336  12.525  0.4316 -0.4166  0.8275
    1DOPE   H7S   50   3.432   6.457  12.661 -1.3973 -2.6401  0.7047
    1DOPE   C28   51   3.387   6.550  12.477  0.2756  0.0307 -0.4571
    1DOPE   H8R   52   3.323   6.628  12.523  0.4743  1.0560 -1.8347
    1DOPE   H8S   53   3.316   6.520  12.397 -1.8403 -1.7122  1.9153
    1DOPE   C29   54   3.517   6.609  12.434 -0.0237 -0.3850  0.5989
    1DOPE   H9R   55   3.576   6.645  12.519  0.1518 -0.6386  0.5830
    1DOPE  C210   56   3.565   6.610  12.311 -0.3636 -0.0036  0.1763
    1DOPE  H10R   57   3.662   6.658  12.295 -1.4899  1.7566 -1.8366
    1DOPE  C211   58   3.498   6.565  12.181  0.0516  0.0886  0.1491
    1DOPE  H11R   59   3.432   6.476  12.191  1.4905 -1.3074 -2.0894
    1DOPE  H11S   60   3.576   6.536  12.108 -0.6222 -0.5760 -0.3215
    1DOPE  C212   61   3.428   6.681  12.110 -0.4652  0.6274  0.3195
    1DOPE  H12R   62   3.490   6.771  12.132  1.3685 -0.9146  1.8277
    1DOPE  H12S   63   3.340   6.702  12.174  0.3280  0.4418  1.5067
    1DOPE  C213   64   3.408   6.645  11.964  0.1021 -0.7535 -0.1528
    1DOPE  H13R   65   3.343   6.556  11.951  0.9465 -1.2970 -0.7143
    1DOPE  H13S   66   3.506   6.630  11.916  1.6868  0.1179  2.5970
    1DOPE  C214   67   3.327   6.744  11.877  0.4468 -0.4827 -0.0380
    1DOPE  H14R   68   3.392   6.834  11.879  3.9384 -2.8097  0.4924
    1DOPE  H14S   69   3.232   6.774  11.928 -0.0637 -1.5027 -0.3682
    1DOPE  C215   70   3.299   6.692  11.741  0.5435 -0.3753  1.3480
    1DOPE  H15R   71   3.254   6.591  11.752 -3.1479  0.9822  0.3602
    1DOPE  H15S   72   3.402   6.685  11.699  1.2628 -0.2232  3.0335
    1DOPE  C216   73   3.210   6.789  11.667  0.2078  0.1152 -0.3219
    1DOPE  H16R   74   3.244   6.894  11.665  1.7039 -0.2891  1.2789
    1DOPE  H16S   75   3.105   6.788  11.704  0.0011  0.9052 -0.8691
    1DOPE  C217   76   3.187   6.733  11.520 -0.1365 -0.3169  0.4550
    1DOPE  H17R   77   3.160   6.626  11.530  0.3348 -0.5661 -0.7265
    1DOPE  H17S   78   3.273   6.749  11.451 -2.0764  0.0873 -1.9730
    1DOPE  C218   79   3.075   6.798  11.446  0.2555  0.1149 -0.4593
    1DOPE  H18R   80   3.068   6.773  11.338 -0.1982  2.3410 -0.9975
    1DOPE  H18S   81   3.082   6.908  11.460 -0.7020  0.3830 -1.8388
    1DOPE  H18T   82   2.983   6.758  11.492  0.1427  1.6286  0.6965
    1DOPE   C33   83   3.471   5.806  12.391  0.0254  0.0455 -0.4870
    1DOPE   H3X   84   3.434   5.893  12.450  1.4727  1.3220 -1.3804
    1DOPE   H3Y   85   3.386   5.736  12.377  0.8160 -0.8220 -1.0680
    1DOPE   C34   86   3.497   5.860  12.245 -0.2094  0.6068  0.8110
    1DOPE   H4X   87   3.586   5.926  12.236 -1.5239  2.2094 -1.6463
    1DOPE   H4Y   88   3.517   5.773  12.178 -1.4832  1.7189 -1.1225
    1DOPE   C35   89   3.381   5.936  12.175 -0.8631  0.0367 -0.2670
    1DOPE   H5X   90   3.287   5.883  12.202 -0.1188 -0.5313  1.3948
    1DOPE   H5Y   91   3.394   5.940  12.065 -1.3384 -0.5354 -0.3438
    1DOPE   C36   92   3.365   6.085  12.220  0.2466 -0.9698  0.1048
    1DOPE   H6X   93   3.449   6.140  12.173 -0.3630  1.2370  1.4537
    1DOPE   H6Y   94   3.381   6.093  12.329  2.5137  0.8706 -0.2707
    1DOPE   C37   95   3.228   6.143  12.174 -0.2078  0.2706  0.5708
    1DOPE   H7X   96   3.164   6.060  12.137  0.0967 -0.0243  0.6908
    1DOPE   H7Y   97   3.166   6.180  12.258 -1.8641  0.4126 -0.6656
    1DOPE   C38   98   3.237   6.259  12.065  0.0998 -0.3491 -0.3145
    1DOPE   H8X   99   3.268   6.219  11.966  1.6220  0.8310 -0.3543
    1DOPE   H8Y  100   3.319   6.325  12.098 -0.7928  0.8114 -0.3546
    1DOPE   C39  101   3.108   6.334  12.047 -0.8349 -0.0685 -0.2169
    1DOPE   H9X  102   3.075   6.394  12.133  1.2402  1.4222 -0.3701
    1DOPE  C310  103   3.031   6.329  11.932 -0.2190  0.6146  0.1026
    1DOPE  H10X  104   2.948   6.400  11.920  1.2303  2.1597 -1.3082
    1DOPE  C311  105   3.062   6.258  11.796  0.0594 -0.8578 -1.0567
    1DOPE  H11X  106   3.163   6.212  11.810  0.4026  0.4053  1.1759
    1DOPE  H11Y  107   2.977   6.192  11.769 -0.0357 -0.4056 -1.9105
    1DOPE  C312  108   3.075   6.343  11.672 -0.7087 -0.0297  0.8743
    1DOPE  H12X  109   3.125   6.441  11.684 -4.3819  2.0317  0.7490
    1DOPE  H12Y  110   2.969   6.366  11.652 -0.8703 -1.7470 -0.4835
    1DOPE  C313  111   3.137   6.269  11.546  0.1008  0.0710 -0.0600
    1DOPE  H13X  112   3.237   6.315  11.535 -1.7787  4.6811  0.1385
    1DOPE  H13Y  113   3.168   6.168  11.581  1.9539  1.0019  1.1692
    1DOPE  C314  114   3.052   6.261  11.424 -0.2106  0.9116  0.0384
    1DOPE  H14X  115   2.961   6.205  11.453 -0.1230 -0.5440 -2.2313
    1DOPE  H14Y  116   3.098   6.214  11.334 -0.2401  0.0543  0.4655
    1DOPE  C315  117   3.008   6.406  11.370  0.2396  0.1327  0.4797
    1DOPE  H15X  118   3.095   6.454  11.319  0.0952  0.7669  0.8249
    1DOPE  H15Y  119   2.955   6.467  11.445  0.6635  0.5203  0.4671
    1DOPE  C316  120   2.897   6.401  11.261  0.0875  0.0899 -0.4269
    1DOPE  H16X  121   2.815   6.337  11.300 -0.6651  0.4342 -1.4135
    1DOPE  H16Y  122   2.939   6.339  11.179  0.5477 -1.0873  0.6557
    1DOPE  C317  123   2.844   6.535  11.212 -0.3999  0.1952  0.3771
    1DOPE  H17X  124   2.784   6.582  11.293 -2.0858 -1.2392  0.0106
    1DOPE  H17Y  125   2.930   6.596  11.178 -1.3820  1.7609  0.5718
    1DOPE  C318  126   2.747   6.522  11.092  0.4612  0.0254  0.4645
    1DOPE  H18X  127   2.796   6.453  11.019 -0.5813 -0.2624  0.0164
    1DOPE  H18Y  128   2.657   6.463  11.120  0.5187 -0.2550  0.0747
    1DOPE  H18Z  129   2.714   6.614  11.040 -0.5013 -1.2278 -1.2765
    2DOPE     N  130   2.653   5.892  13.853  0.1812  0.3203 -0.2111
    2DOPE   HN1  131   2.701   5.978  13.887  1.9048  0.0238 -1.7424
    2DOPE   HN2  132   2.558   5.912  13.815  0.7661 -1.6087 -2.9640
    2DOPE   HN3  133   2.632   5.823  13.928 -0.0047  1.4509  0.8049
    2DOPE   C12  134   2.737   5.837  13.744 -0.1228  1.3643  0.9563
    2DOPE  H12A  135   2.839   5.809  13.778 -0.6867  0.7719  2.1790
    2DOPE  H12B  136   2.749   5.918  13.668  0.2474  0.6613  0.2516
    2DOPE   C11  137   2.651   5.735  13.668  0.4220  0.2670  0.3610
    2DOPE  H11A  138   2.621   5.649  13.731  2.2537 -1.1073 -0.5306
    2DOPE  H11B  139   2.723   5.696  13.592 -1.1646 -1.2293 -0.4488
    2DOPE     P  140   2.428   5.729  13.520 -0.0610 -0.3087  0.0913
    2DOPE   O13  141   2.296   5.797  13.521 -0.1518  0.1779 -0.1327
    2DOPE   O14  142   2.425   5.592  13.562 -0.2910 -0.2691 -0.1879
    2DOPE   O11  143   2.495   5.741  13.379 -0.5187 -0.8548 -0.0701
    2DOPE   O12  144   2.533   5.802  13.617  0.0956  0.0272  0.3662
    2DOPE    C1  145   2.484   5.631  13.291 -0.5885 -0.5086 -0.2046
    2DOPE    HA  146   2.453   5.537  13.341  0.0755  0.3609  1.9513
    2DOPE    HB  147   2.588   5.610  13.259 -0.5921 -0.5481 -0.1890
    2DOPE    C2  148   2.420   5.672  13.156 -0.1361 -0.1923  0.0059
    2DOPE    HS  149   2.453   5.589  13.090  1.4379  0.3213  0.1077
    2DOPE   O21  150   2.479   5.795  13.106  0.6390 -0.0354  0.2476
    2DOPE   C21  151   2.596   5.800  13.055  0.6629  0.6652 -0.0194
    2DOPE   O22  152   2.674   5.705  13.043  0.0781  0.0190  0.1969
    2DOPE   C22  153   2.642   5.941  13.016  0.4911 -0.0708  0.1002
    2DOPE   H2R  154   2.708   5.913  12.931  0.0344  0.2776 -0.3744
    2DOPE   H2S  155   2.704   5.984  13.098 -1.1792  2.3141  0.2164
    2DOPE    C3  156   2.267   5.670  13.170 -0.3978 -0.1799  0.1323
    2DOPE    HX  157   2.224   5.704  13.266  0.1928 -0.8655  0.6529
    2DOPE    HY  158   2.239   5.563  13.183  0.2620 -0.3212  0.3986
    2DOPE   O31  159   2.210   5.741  13.055  0.1001  0.4597 -0.4385
    2DOPE   C31  160   2.176   5.863  13.056  0.9083  0.4544 -0.9233
    2DOPE   O32  161   2.202   5.947  13.144 -0.4005  0.1389 -0.4605
    2DOPE   C32  162   2.089   5.889  12.938 -0.1277 -0.0193 -0.3382
    2DOPE   H2X  163   2.164   5.920  12.862 -0.2739 -0.9889 -0.9061
    2DOPE   H2Y  164   2.032   5.798  12.909 -0.5926  0.7772 -2.0675
    2DOPE   C23  165   2.530   6.045  12.977 -0.5440  0.2059 -0.1996
    2DOPE   H3R  166   2.477   6.090  13.064 -1.1140 -0.4198 -0.2152
    2DOPE   H3S  167   2.453   5.985  12.925 -0.7402 -1.3863  1.7842
    2DOPE   C24  168   2.583   6.166  12.890  0.3044 -0.2995  0.8773
    2DOPE   H4R  169   2.650   6.126  12.810 -1.0164 -0.2641 -0.3032
    2DOPE   H4S  170   2.649   6.237  12.943  1.1796 -1.0014  0.7446
    2DOPE   C25  171   2.469   6.248  12.815  0.0632  0.6815  0.0463
    2DOPE   H5R  172   2.430   6.320  12.891  1.3691  1.5044 -0.0446
    2DOPE   H5S  173   2.381   6.188  12.783  0.4614  0.3297 -0.3982
    2DOPE   C26  174   2.516   6.323  12.691 -0.6211 -0.3891 -0.1660
    2DOPE   H6R  175   2.562   6.254  12.617 -0.1042  0.7260 -0.9055
    2DOPE   H6S  176   2.598   6.391  12.724 -0.2512 -0.3613 -1.1246
    2DOPE   C27  177   2.401   6.402  12.627  0.4548 -0.3786 -0.2186
    2DOPE   H7R  178   2.304   6.347  12.628 -1.2396  2.4439  0.2550
    2DOPE   H7S  179   2.430   6.426  12.522 -0.8488  1.0021 -0.2950
    2DOPE   C28  180   2.378   6.543  12.690 -0.1437 -0.1256  0.0006
    2DOPE   H8R  181   2.479   6.588  12.693 -0.1050 -0.2409  0.9271
    2DOPE   H8S  182   2.343   6.519  12.793 -0.6659  0.1717 -0.0995
    2DOPE   C29  183   2.281   6.640  12.630 -0.6300 -0.7208  0.1013
    2DOPE   H9R  184   2.203   6.688  12.692 -0.6149 -0.6513  0.0669
    2DOPE  C210  185   2.283   6.671  12.502  0.1650  0.9470 -0.3276
    2DOPE  H10R  186   2.198   6.731  12.468  0.8460  2.6420  0.8450
    2DOPE  C211  187   2.396   6.650  12.397 -0.4859  0.5126  0.2855
    2DOPE  H11R  188   2.375   6.564  12.329 -2.9881 -0.3529  1.9808
    2DOPE  H11S  189   2.494   6.637  12.447  0.6196 -0.4996 -1.9859
    2DOPE  C212  190   2.421   6.783  12.314 -0.3261  1.0760 -0.4266
    2DOPE  H12R  191   2.333   6.816  12.254 -0.0546  1.4514 -0.6171
    2DOPE  H12S  192   2.502   6.767  12.240 -1.1482  1.0434 -1.3446
    2DOPE  C213  193   2.471   6.903  12.398 -0.2662 -0.1047  0.8730
    2DOPE  H13R  194   2.551   6.856  12.459 -1.1585 -1.0566  1.3293
    2DOPE  H13S  195   2.399   6.932  12.478 -0.6751 -2.1777  1.3064
    2DOPE  C214  196   2.517   7.020  12.305 -0.5243 -0.1024  0.1247
    2DOPE  H14R  197   2.421   7.075  12.294  1.1730  3.3335  0.9353
    2DOPE  H14S  198   2.560   6.994  12.206 -0.7352 -0.4340  0.1204
    2DOPE  C215  199   2.624   7.121  12.371  0.0397 -0.1244  0.6315
    2DOPE  H15R  200   2.710   7.065  12.413 -2.0970 -3.3212  1.1739
    2DOPE  H15S  201   2.573   7.164  12.460 -0.6051 -0.6041  0.5020
    2DOPE  C216  202   2.675   7.234  12.281 -0.3353 -0.0117  0.3205
    2DOPE  H16R  203   2.597   7.308  12.250  0.7463  0.7735 -0.6167
    2DOPE  H16S  204   2.703   7.183  12.187 -0.9138 -0.1271  0.2075
    2DOPE  C217  205   2.806   7.299  12.336  0.3495 -0.4216  0.0416
    2DOPE  H17R  206   2.837   7.382  12.269  1.0378 -1.3360 -0.7916
    2DOPE  H17S  207   2.887   7.224  12.327  2.5865  1.9506 -0.9522
    2DOPE  C218  208   2.798   7.349  12.482  0.2973  0.5556 -0.7397
    2DOPE  H18R  209   2.891   7.387  12.530  1.0714 -0.1795 -1.6257
    2DOPE  H18S  210   2.779   7.261  12.548 -1.6956  2.1202  0.9129
    2DOPE  H18T  211   2.720   7.425  12.504 -0.2292 -0.5424  1.5256
    2DOPE   C33  212   2.002   6.013  12.969  0.3956  0.1488 -0.5278
    2DOPE   H3X  213   1.959   6.005  13.071 -0.8950 -1.9308 -1.1710
    2DOPE   H3Y  214   1.910   6.010  12.907 -0.5030 -1.7616  0.8010
    2DOPE   C34  215   2.068   6.146  12.930 -0.1724  0.0651  0.2920
    2DOPE   H4X  216   2.005   6.221  12.983 -0.9323 -1.6743  1.9546
    2DOPE   H4Y  217   2.162   6.157  12.987 -0.2303  1.1498  0.1990
    2DOPE   C35  218   2.084   6.188  12.783  0.8544  0.5978 -0.9201
    2DOPE   H5X  219   2.130   6.105  12.724 -0.2578  0.9524 -2.3506
    2DOPE   H5Y  220   2.154   6.274  12.780  1.7110 -0.0375  0.0841
    2DOPE   C36  221   1.958   6.240  12.725 -0.3480  0.4358 -0.1383
    2DOPE   H6X  222   1.932   6.329  12.787  0.3168  0.0239  0.7529
    2DOPE   H6Y  223   1.872   6.173  12.748  0.1849  0.0474  0.8173
    2DOPE   C37  224   1.962   6.273  12.579 -0.1697  0.3257 -0.0707
    2DOPE   H7X  225   2.066   6.296  12.548  0.5241 -1.5330  0.6789
    2DOPE   H7Y  226   1.951   6.183  12.514  1.6180  0.2230 -0.2744
    2DOPE   C38  227   1.879   6.381  12.523 -0.6257 -1.0426  0.3081
    2DOPE   H8X  228   1.770   6.364  12.536 -0.8900  0.8412  0.8392
    2DOPE   H8Y  229   1.894   6.389  12.413  0.3235  1.8459  0.5568
    2DOPE   C39  230   1.911   6.519  12.572 -0.2633  0.2074 -0.2648
    2DOPE   H9X  231   1.978   6.534  12.657 -1.5962 -0.4483  0.9312
    2DOPE  C310  232   1.881   6.623  12.496 -0.4761 -0.2826 -0.3759
    2DOPE  H10X  233   1.899   6.722  12.542 -3.1694  0.1422 -0.0853
    2DOPE  C311  234   1.793   6.622  12.372  1.3831 -0.5925 -0.1943
    2DOPE  H11X  235   1.851   6.582  12.285  2.0431 -0.0186 -0.0302
    2DOPE  H11Y  236   1.704   6.558  12.388  3.5892 -4.1111 -0.8792
    2DOPE  C312  237   1.728   6.759  12.329  0.2828 -0.1388 -0.2072
    2DOPE  H12X  238   1.812   6.826  12.360 -0.2069  0.9049 -1.0375
    2DOPE  H12Y  239   1.633   6.788  12.378 -0.2280 -0.5993 -0.9165
    2DOPE  C313  240   1.702   6.775  12.184 -0.4411 -0.3115 -0.3315
    2DOPE  H13X  241   1.636   6.705  12.129 -0.5805 -0.5012  0.0747
    2DOPE  H13Y  242   1.660   6.877  12.174  1.0856  0.7530  2.8503
    2DOPE  C314  243   1.833   6.787  12.097  0.0547 -0.3067  0.4702
    2DOPE  H14X  244   1.885   6.691  12.076 -0.9783 -0.5473 -1.1885
    2DOPE  H14Y  245   1.907   6.845  12.155 -0.6669  1.5229 -0.3788
    2DOPE  C315  246   1.821   6.844  11.952 -0.0284 -0.0190  0.4022
    2DOPE  H15X  247   1.775   6.945  11.949  0.0087 -0.0190 -2.1135
    2DOPE  H15Y  248   1.749   6.793  11.884  0.2942 -2.6281  1.8832
    2DOPE  C316  249   1.953   6.872  11.870 -0.2898  0.6131  0.5141
    2DOPE  H16X  250   2.009   6.777  11.857 -1.0639  0.1564  0.4476
    2DOPE  H16Y  251   2.016   6.942  11.928  0.0274  1.9230 -1.3478
    2DOPE  C317  252   1.919   6.947  11.740  0.2866  1.1468 -0.2049
    2DOPE  H17X  253   1.871   6.874  11.671 -2.5790  2.8912 -0.2206
    2DOPE  H17Y  254   1.845   7.025  11.766  1.0607  1.7126  0.3452
    2DOPE  C318  255   2.043   7.000  11.682  0.5612  0.7190 -0.9086
    2DOPE  H18X  256   2.093   7.071  11.751 -0.4062 -0.5949  1.2381
    2DOPE  H18Y  257   2.119   6.919  11.677  0.1967  0.3394 -0.3889
    2DOPE  H18Z  258   2.027   7.039  11.579  3.0899  0.5033 -1.4607
    3DOPE     N  259   1.654   7.047  13.391  0.3577 -0.7471 -0.2014
    3DOPE   HN1  260   1.620   7.089  13.302  0.5937 -1.4014 -0.5997
    3DOPE   HN2  261   1.586   7.053  13.470  0.1509 -3.2586 -0.1125
    3DOPE   HN3  262   1.742   7.098  13.411  2.2463 -3.2644 -1.5728
    3DOPE   C12  263   1.702   6.913  13.358  0.6976 -0.1910 -0.4490
    3DOPE  H12A  264   1.614   6.848  13.377  0.1783  0.9582  1.4634
    3DOPE  H12B  265   1.770   6.885  13.441  2.2175  0.4348 -1.4385
    3DOPE   C11  266   1.776   6.883  13.226 -0.2045 -0.6731 -0.1627
    3DOPE  H11A  267   1.707   6.907  13.142  0.3041  0.0668 -0.3774
    3DOPE  H11B  268   1.805   6.776  13.226 -0.9030 -0.9364  2.6216
    3DOPE     P  269   1.970   6.988  13.070 -0.2238  0.4755 -0.2179
    3DOPE   O13  270   2.056   6.871  13.054  0.0891 -0.4755  0.6598
    3DOPE   O14  271   2.032   7.125  13.066  0.4992 -0.1843 -0.1454
    3DOPE   O11  272   1.862   6.986  12.961  0.4551  0.6536  0.0594
    3DOPE   O12  273   1.888   6.967  13.202 -0.7283 -0.2098  0.4909
    3DOPE    C1  274   1.770   7.099  12.954 -0.1566  0.4298 -0.1780
    3DOPE    HA  275   1.798   7.182  13.023 -0.2523 -1.4076  2.1975
    3DOPE    HB  276   1.664   7.074  12.974  0.5218 -1.8908  0.7551
    3DOPE    C2  277   1.787   7.160  12.809  0.0214  0.4101  0.5489
    3DOPE    HS  278   1.883   7.217  12.806 -0.3943  1.1352  0.7325
    3DOPE   O21  279   1.675   7.251  12.779  0.2209  0.8242 -0.0526
    3DOPE   C21  280   1.688   7.372  12.810  0.0557 -0.6703  0.9893
    3DOPE   O22  281   1.782   7.427  12.862  0.0035 -0.5633  0.5597
    3DOPE   C22  282   1.556   7.444  12.766  0.2562  0.0440 -0.1331
    3DOPE   H2R  283   1.555   7.544  12.814  0.5828  0.1439 -0.3251
    3DOPE   H2S  284   1.470   7.383  12.800 -0.6473  0.8170 -0.9723
    3DOPE    C3  285   1.807   7.067  12.686  0.3850  0.4775 -0.7842
    3DOPE    HX  286   1.758   6.969  12.705  1.8051 -0.0289  0.4446
    3DOPE    HY  287   1.913   7.033  12.690  0.5487  0.7124 -2.3818
    3DOPE   O31  288   1.777   7.118  12.556  0.2292 -0.3848  0.3011
    3DOPE   C31  289   1.661   7.075  12.506 -0.2690  0.5862 -0.8810
    3DOPE   O32  290   1.593   6.988  12.556  0.6470 -0.0407 -0.1731
    3DOPE   C32  291   1.632   7.142  12.383  0.4523 -0.2064 -0.3527
    3DOPE   H2X  292   1.637   7.251  12.401 -0.4337 -0.3639  1.0070
    3DOPE   H2Y  293   1.697   7.115  12.297  2.5796  1.2001  0.7217
    3DOPE   C23  294   1.548   7.467  12.612 -0.2850  0.4237 -0.2621
    3DOPE   H3R  295   1.581   7.383  12.546  0.8646  1.1710 -0.6596
    3DOPE   H3S  296   1.615   7.553  12.593 -0.2978  0.7046  0.8931
    3DOPE   C24  297   1.409   7.506  12.571  0.6997 -0.0137 -0.5189
    3DOPE   H4R  298   1.383   7.592  12.638  1.8520  1.1469 -1.4952
    3DOPE   H4S  299   1.350   7.414  12.586  2.7198 -1.1670  0.8960
    3DOPE   C25  300   1.391   7.565  12.427 -0.4971 -0.0619  0.3330
    3DOPE   H5R  301   1.432   7.491  12.355 -0.9197  0.0519 -0.0285
    3DOPE   H5S  302   1.456   7.654  12.437  1.0782 -0.8382 -2.0523
    3DOPE   C26  303   1.249   7.605  12.391 -0.4479 -0.2635 -0.5382
    3DOPE   H6R  304   1.214   7.673  12.471 -0.8856 -2.3186  1.0978
    3DOPE   H6S  305   1.193   7.509  12.400 -0.6930  0.0648  2.4652
    3DOPE   C27  306   1.236   7.659  12.251 -0.4281 -0.3327  0.1549
    3DOPE   H7R  307   1.129   7.655  12.219 -0.0191  0.6817 -1.4665
    3DOPE   H7S  308   1.294   7.591  12.186 -1.6353 -0.6811 -0.6017
    3DOPE   C28  309   1.295   7.803  12.242  0.3116  0.4740  0.0797
    3DOPE   H8R  310   1.406   7.796  12.248  0.3823  0.3874 -1.1575
    3DOPE   H8S  311   1.263   7.846  12.340 -2.6518 -1.5480  0.1103
    3DOPE   C29  312   1.244   7.890  12.130  0.0427  0.1981  0.3777
    3DOPE   H9R  313   1.306   7.892  12.039  2.1722  0.0760  1.7474
    3DOPE  C210  314   1.131   7.964  12.134 -0.0153  0.3401  0.2889
    3DOPE  H10R  315   1.107   8.033  12.052  1.0487  0.5195  0.1127
    3DOPE  C211  316   1.034   7.977  12.252 -0.0780 -0.8995 -0.3375
    3DOPE  H11R  317   1.078   7.956  12.351 -0.8910 -2.2650 -0.2355
    3DOPE  H11S  318   0.959   7.897  12.233  0.3393 -1.6294  0.9391
    3DOPE  C212  319   0.961   8.112  12.238 -0.2402  0.2419  0.5522
    3DOPE  H12R  320   0.875   8.120  12.308 -0.9449  0.4370 -0.3011
    3DOPE  H12S  321   0.918   8.124  12.136 -1.7101 -1.6656  0.8890
    3DOPE  C213  322   1.054   8.230  12.255  0.0303  0.1804 -0.4587
    3DOPE  H13R  323   1.000   8.326  12.242 -0.4417  0.3581  2.3577
    3DOPE  H13S  324   1.127   8.231  12.171  0.5941  1.0913  0.0250
    3DOPE  C214  325   1.137   8.231  12.388  0.1064 -0.4934  0.2102
    3DOPE  H14R  326   1.212   8.150  12.380 -1.6983 -2.1439 -0.7901
    3DOPE  H14S  327   1.071   8.198  12.470 -0.6534 -0.1891 -0.2701
    3DOPE  C215  328   1.196   8.372  12.425  1.2748 -0.4389  0.0640
    3DOPE  H15R  329   1.113   8.443  12.443  2.3378  1.3664 -1.7392
    3DOPE  H15S  330   1.255   8.417  12.343 -0.2770  0.2107 -0.7361
    3DOPE  C216  331   1.274   8.371  12.562 -0.0766  0.3943 -0.2823
    3DOPE  H16R  332   1.289   8.476  12.594  0.6803 -0.5026  2.6181
    3DOPE  H16S  333   1.379   8.340  12.542  0.1888  1.4021 -0.5417
    3DOPE  C217  334   1.205   8.305  12.677 -0.4376 -0.8474  0.0495
    3DOPE  H17R  335   1.213   8.194  12.665 -0.6795 -1.3125  3.2996
    3DOPE  H17S  336   1.098   8.334  12.665 -0.8294 -1.7789  1.0880
    3DOPE  C218  337   1.255   8.351  12.819 -0.3911 -0.1716 -0.1764
    3DOPE  H18R  338   1.352   8.308  12.850  1.2567  2.0959 -1.8030
    3DOPE  H18S  339   1.188   8.333  12.905  0.7062 -2.6260  0.2416
    3DOPE  H18T  340   1.269   8.462  12.822 -1.1037 -0.1029  0.8820
    3DOPE   C33  341   1.481   7.122  12.336 -0.2424 -0.7753  0.5174
    3DOPE   H3X  342   1.419   7.163  12.419  2.0378 -1.8280  2.8978
    3DOPE   H3Y  343   1.461   7.013  12.329 -0.0248 -0.8200  0.5831
    3DOPE   C34  344   1.454   7.196  12.208  0.0708 -0.2920  0.7447
    3DOPE   H4X  345   1.346   7.192  12.182  0.1236 -2.5536  0.7263
    3DOPE   H4Y  346   1.479   7.304  12.218 -1.5328  0.3985 -1.7935
    3DOPE   C35  347   1.523   7.146  12.077  0.0109 -0.0545 -0.0510
    3DOPE   H5X  348   1.508   7.036  12.070 -1.7205  0.0916  0.8979
    3DOPE   H5Y  349   1.629   7.175  12.092 -0.0650  0.4890 -0.5384
    3DOPE   C36  350   1.471   7.219  11.942  0.0607 -0.3927 -0.5260
    3DOPE   H6X  351   1.557   7.214  11.872  0.1243  3.0672 -0.8430
    3DOPE   H6Y  352   1.465   7.327  11.967 -4.3578 -0.9296  1.6312
    3DOPE   C37  353   1.343   7.158  11.891  0.0645  0.3779  0.1545
    3DOPE   H7X  354   1.343   7.047  11.883  0.9905  0.4587 -1.2861
    3DOPE   H7Y  355   1.260   7.167  11.964 -3.1036 -1.4870 -2.9064
    3DOPE   C38  356   1.304   7.216  11.758  0.4850  0.0928  0.5735
    3DOPE   H8X  357   1.380   7.210  11.678  0.1740 -0.8188  0.3283
    3DOPE   H8Y  358   1.279   7.324  11.762 -1.1062 -0.1893 -0.4628
    3DOPE   C39  359   1.172   7.153  11.707 -0.3127  0.1683  0.0640
    3DOPE   H9X  360   1.084   7.159  11.772 -0.9501 -0.3611 -0.7418
    3DOPE  C310  361   1.148   7.122  11.579 -0.0749 -0.3422  0.6886
    3DOPE  H10X  362   1.048   7.088  11.548  0.6402 -1.0207 -1.0103
    3DOPE  C311  363   1.245   7.129  11.463  0.0072  0.6387 -0.2457
    3DOPE  H11X  364   1.348   7.113  11.501 -0.3444  0.6667  0.7631
    3DOPE  H11Y  365   1.221   7.047  11.393 -1.2765  0.9486 -0.1987
    3DOPE  C312  366   1.242   7.255  11.381 -0.5760  1.1054 -0.2835
    3DOPE  H12X  367   1.273   7.336  11.451  0.0141  1.2567 -0.7141
    3DOPE  H12Y  368   1.141   7.280  11.343 -1.5432  1.7102  2.4335
    3DOPE  C313  369   1.351   7.255  11.262  0.5429  0.6739 -0.3192
    3DOPE  H13X  370   1.441   7.199  11.294  0.2534 -0.1587 -0.9112
    3DOPE  H13Y  371   1.300   7.209  11.174 -0.1888  0.5852  0.1405
    3DOPE  C314  372   1.396   7.396  11.222  0.6461 -0.0765  0.0936
    3DOPE  H14X  373   1.428   7.458  11.308  3.8449  0.4482 -1.3421
    3DOPE  H14Y  374   1.314   7.453  11.174  1.5829 -0.3714 -1.9502
    3DOPE  C315  375   1.514   7.390  11.125  0.1952  0.5137 -0.0219
    3DOPE  H15X  376   1.579   7.303  11.147  1.1226  0.8037 -1.4384
    3DOPE  H15Y  377   1.570   7.485  11.140  0.0075  0.9128 -1.6705
    3DOPE  C316  378   1.466   7.383  10.980 -0.1509 -0.4896  0.2434
    3DOPE  H16X  379   1.407   7.476  10.965  0.3386  0.3389  2.9438
    3DOPE  H16Y  380   1.387   7.306  10.966 -1.2216  0.6094  0.1159
    3DOPE  C317  381   1.587   7.380  10.887  0.0462  0.1550 -0.3627
    3DOPE  H17X  382   1.660   7.460  10.916  0.5901 -1.4548  3.3289
    3DOPE  H17Y  383   1.636   7.281  10.900  2.4544  1.6050  3.4523
    3DOPE  C318  384   1.550   7.399  10.742 -0.0146 -0.6349 -0.5130
    3DOPE  H18X  385   1.463   7.338  10.711 -1.2157  0.5906  0.3305
    3DOPE  H18Y  386   1.547   7.508  10.720  2.4417 -0.2013  0.9169
    3DOPE  H18Z  387   1.637   7.348  10.696  2.3143  1.2918  1.4419
    4DOPE     N  388   2.205   3.257  12.831 -0.0862 -0.2287 -0.1858
    4DOPE   HN1  389   2.156   3.225  12.745 -0.8741 -0.9942  0.5308
    4DOPE   HN2  390   2.201   3.361  12.838 -3.7500 -0.0315 -2.5898
    4DOPE   HN3  391   2.303   3.221  12.831 -0.6320 -1.7538  0.1220
    4DOPE   C12  392   2.131   3.207  12.952 -0.2146 -0.7284  0.2268
    4DOPE  H12A  393   2.196   3.202  13.043  0.1354  2.6218  0.2802
    4DOPE  H12B  394   2.086   3.110  12.924  0.7529 -0.7283 -1.4674
    4DOPE   C11  395   2.013   3.309  12.977 -0.8186 -0.4107  0.2643
    4DOPE  H11A  396   2.071   3.396  13.013  0.6758 -0.8820 -0.8744
    4DOPE  H11B  397   1.936   3.272  13.048 -1.2999 -0.0569 -0.0633
    4DOPE     P  398   1.821   3.418  12.858 -0.1226  0.2745 -0.1606
    4DOPE   O13  399   1.861   3.553  12.903  0.2257 -0.5803 -0.0181
    4DOPE   O14  400   1.726   3.354  12.948 -0.0929 -0.1772  0.1449
    4DOPE   O11  401   1.775   3.418  12.705  0.9451 -0.8745  0.4325
    4DOPE   O12  402   1.950   3.337  12.848 -0.0453  0.5139  0.2354
    4DOPE    C1  403   1.732   3.301  12.642 -0.2388 -0.3191  0.0437
    4DOPE    HA  404   1.645   3.259  12.697 -0.4488 -0.3631 -0.3144
    4DOPE    HB  405   1.817   3.229  12.647  1.7284  1.8573 -0.6539
    4DOPE    C2  406   1.671   3.339  12.512  0.3629  0.7217  0.5282
    4DOPE    HS  407   1.620   3.249  12.471  0.6253  1.1152 -0.7123
    4DOPE   O21  408   1.767   3.373  12.410 -0.2564 -0.8685  0.5401
    4DOPE   C21  409   1.867   3.291  12.384  0.1988  0.2140 -0.3761
    4DOPE   O22  410   1.890   3.179  12.429  0.4137 -0.4841  0.2719
    4DOPE   C22  411   1.956   3.358  12.283  0.2597  0.0589  0.3987
    4DOPE   H2R  412   2.059   3.372  12.321  0.3951 -2.1423  0.9540
    4DOPE   H2S  413   1.914   3.457  12.252 -2.0126 -0.8608  0.3553
    4DOPE    C3  414   1.556   3.446  12.521  0.3894 -0.0323  0.0466
    4DOPE    HX  415   1.605   3.532  12.571 -0.3913 -0.4921  1.6636
    4DOPE    HY  416   1.483   3.411  12.597  0.6552  2.1701  1.3801
    4DOPE   O31  417   1.503   3.482  12.395  0.1530  0.3759 -0.2269
    4DOPE   C31  418   1.423   3.391  12.346  1.0838 -0.0556  0.2375
    4DOPE   O32  419   1.392   3.284  12.395 -0.4731 -0.7542  0.5031
    4DOPE   C32  420   1.352   3.442  12.216  0.0557 -0.1655  0.4162
    4DOPE   H2X  421   1.270   3.374  12.185 -0.2782  0.3190  0.2049
    4DOPE   H2Y  422   1.299   3.539  12.230 -1.0573 -0.7663  0.5192
    4DOPE   C23  423   1.975   3.276  12.154  0.1067  0.8424  0.4195
    4DOPE   H3R  424   1.876   3.252  12.109  0.9483  1.0969 -1.6876
    4DOPE   H3S  425   2.001   3.173  12.187  0.4259  1.1755  1.2317
    4DOPE   C24  426   2.069   3.351  12.054 -0.1845  0.0454 -0.5234
    4DOPE   H4R  427   2.171   3.321  12.086 -0.1254  0.7474 -0.0265
    4DOPE   H4S  428   2.052   3.461  12.059 -1.6845 -0.1673 -0.3879
    4DOPE   C25  429   2.060   3.297  11.910  0.0465 -0.4967 -0.2377
    4DOPE   H5R  430   1.960   3.283  11.863 -0.4407 -1.0199  0.9142
    4DOPE   H5S  431   2.100   3.194  11.916 -1.0873 -1.0886 -1.9924
    4DOPE   C26  432   2.146   3.379  11.820  0.4986 -0.1743 -0.4241
    4DOPE   H6R  433   2.245   3.398  11.867  0.4983 -1.0641 -0.0439
    4DOPE   H6S  434   2.098   3.479  11.812  0.0587 -0.4341 -1.1921
    4DOPE   C27  435   2.185   3.320  11.685 -0.3655  0.5898  0.2336
    4DOPE   H7R  436   2.194   3.210  11.701 -0.6623  0.6530  0.8810
    4DOPE   H7S  437   2.289   3.342  11.653 -0.7355  0.9647 -0.7248
    4DOPE   C28  438   2.096   3.364  11.573  0.2067  0.3942  0.7569
    4DOPE   H8R  439   2.096   3.475  11.561  1.3002  0.2687 -0.6367
    4DOPE   H8S  440   1.992   3.340  11.605 -0.1475  0.0144 -0.6088
    4DOPE   C29  441   2.129   3.280  11.452  0.1197  0.0014 -0.4174
    4DOPE   H9R  442   2.116   3.173  11.470  1.9770 -0.2248 -0.2163
    4DOPE  C210  443   2.187   3.319  11.338 -0.2231  0.0282 -0.3004
    4DOPE  H10R  444   2.215   3.241  11.266 -0.1011  0.6433 -0.9322
    4DOPE  C211  445   2.245   3.459  11.308 -0.3037 -0.1480  0.1970
    4DOPE  H11R  446   2.237   3.533  11.391 -1.5229  1.5595 -1.3731
    4DOPE  H11S  447   2.193   3.507  11.222 -1.0841  3.1171  2.2864
    4DOPE  C212  448   2.396   3.466  11.281  0.3416 -0.0522  0.0879
    4DOPE  H12R  449   2.449   3.435  11.373 -0.0731  1.1891  0.7676
    4DOPE  H12S  450   2.436   3.568  11.261  1.6228 -0.4669  0.3901
    4DOPE  C213  451   2.421   3.368  11.165  0.1929 -0.5641  0.4763
    4DOPE  H13R  452   2.330   3.359  11.101  0.2139 -0.9496  0.4963
    4DOPE  H13S  453   2.431   3.268  11.212  3.7741  0.1033  1.3912
    4DOPE  C214  454   2.540   3.417  11.084  0.6929  0.1428  0.5918
    4DOPE  H14R  455   2.511   3.514  11.038 -0.1240  0.2013  1.2130
    4DOPE  H14S  456   2.555   3.345  11.001  0.6695  1.8386 -0.9582
    4DOPE  C215  457   2.664   3.419  11.170  0.0432  0.4081 -0.1231
    4DOPE  H15R  458   2.685   3.316  11.204 -0.2000  0.8146  1.2923
    4DOPE  H15S  459   2.650   3.486  11.257  0.1988  0.0419  0.1851
    4DOPE  C216  460   2.794   3.470  11.099 -0.2693  0.6326 -0.1803
    4DOPE  H16R  461   2.880   3.446  11.165  0.2506  0.6918 -0.8247
    4DOPE  H16S  462   2.783   3.579  11.083  0.5740  1.0238  1.6661
    4DOPE  C217  463   2.820   3.411  10.958  0.0443 -0.3307 -0.1105
    4DOPE  H17R  464   2.899   3.481  10.924 -0.2482  1.3256  2.3844
    4DOPE  H17S  465   2.731   3.426  10.894  0.4574  0.0625 -0.6047
    4DOPE  C218  466   2.859   3.255  10.964  0.4020  0.6297 -0.4374
    4DOPE  H18R  467   2.960   3.258  11.011 -0.0819  3.0420  0.6150
    4DOPE  H18S  468   2.872   3.215  10.861 -2.9218 -0.1567 -0.6495
    4DOPE  H18T  469   2.790   3.199  11.030  0.8400  2.4517  1.7169
    4DOPE   C33  470   1.452   3.467  12.101 -0.3181 -0.3050  0.0685
    4DOPE   H3X  471   1.521   3.553  12.121  0.8921 -1.5843  1.7376
    4DOPE   H3Y  472   1.392   3.481  12.009 -0.5704  1.4050  0.4642
    4DOPE   C34  473   1.536   3.340  12.064  0.7004 -0.5622 -0.0113
    4DOPE   H4X  474   1.595   3.345  11.969  2.3819 -0.5695  0.9974
    4DOPE   H4Y  475   1.602   3.337  12.153 -0.9083  0.1096  1.2562
    4DOPE   C35  476   1.461   3.205  12.063  0.2165  0.0097  0.5698
    4DOPE   H5X  477   1.427   3.188  12.167 -1.1418  0.7501  0.2629
    4DOPE   H5Y  478   1.530   3.119  12.051  0.5360  0.5435 -2.1196
    4DOPE   C36  479   1.357   3.206  11.952 -0.0018  0.0561  0.5117
    4DOPE   H6X  480   1.422   3.193  11.863  1.5234 -1.7067  1.7986
    4DOPE   H6Y  481   1.304   3.303  11.945 -2.0151 -1.1008 -1.3718
    4DOPE   C37  482   1.269   3.075  11.949 -0.6606 -0.6219  0.7093
    4DOPE   H7X  483   1.338   2.989  11.960  1.3178  0.9413  1.1728
    4DOPE   H7Y  484   1.200   3.080  12.036  0.7124 -3.0264  2.0366
    4DOPE   C38  485   1.173   3.076  11.832  0.2381  0.1358  0.9961
    4DOPE   H8X  486   1.123   3.174  11.843  0.6689  0.8585 -2.3452
    4DOPE   H8Y  487   1.105   2.989  11.849  0.1151  0.2310  0.9923
    4DOPE   C39  488   1.248   3.068  11.697  0.4924  0.4709 -0.0693
    4DOPE   H9X  489   1.294   2.969  11.687  1.3829  0.3516  3.7435
    4DOPE  C310  490   1.262   3.176  11.615  0.0519  0.0340 -0.1222
    4DOPE  H10X  491   1.319   3.151  11.525 -0.0311 -0.6930  0.0243
    4DOPE  C311  492   1.234   3.321  11.640  0.0977 -0.2190 -0.2242
    4DOPE  H11X  493   1.147   3.328  11.710  0.3213 -1.1286  0.1495
    4DOPE  H11Y  494   1.323   3.368  11.685  1.4012 -0.6087 -2.2731
    4DOPE  C312  495   1.188   3.408  11.512 -0.2469 -0.1140  0.1211
    4DOPE  H12X  496   1.088   3.366  11.490 -1.2604  1.2074  1.8972
    4DOPE  H12Y  497   1.251   3.378  11.425  0.6385  0.1617  0.6492
    4DOPE  C313  498   1.190   3.562  11.523 -0.5576 -0.2040 -1.3222
    4DOPE  H13X  499   1.295   3.594  11.509 -0.3043  0.6783  1.8457
    4DOPE  H13Y  500   1.125   3.606  11.445 -0.6115  0.4105 -0.9410
    4DOPE  C314  501   1.144   3.617  11.663  0.0041 -0.2390 -0.0474
    4DOPE  H14X  502   1.207   3.566  11.739  3.0959  0.4703 -1.9452
    4DOPE  H14Y  503   1.036   3.599  11.681  0.0191  1.1539  1.6569
    4DOPE  C315  504   1.159   3.765  11.679 -1.0770  0.4378  0.3461
    4DOPE  H15X  505   1.078   3.830  11.637  1.2277  2.4890 -1.1865
    4DOPE  H15Y  506   1.250   3.797  11.625  0.1528 -0.9671  1.5224
    4DOPE  C316  507   1.179   3.829  11.816  0.1541 -0.7059 -0.3351
    4DOPE  H16X  508   1.084   3.827  11.874  0.8501 -1.3887  0.8123
    4DOPE  H16Y  509   1.224   3.931  11.816  2.1619 -1.5430 -0.1535
    4DOPE  C317  510   1.278   3.747  11.901 -0.1189 -0.0312 -0.1104
    4DOPE  H17X  511   1.232   3.647  11.916  0.6986 -0.0730  2.4808
    4DOPE  H17Y  512   1.376   3.742  11.848  1.3910 -2.0463  2.6425
    4DOPE  C318  513   1.298   3.805  12.043  0.0649 -0.3006 -0.4357
    4DOPE  H18X  514   1.335   3.909  12.030 -0.5626 -0.0694 -0.3875
    4DOPE  H18Y  515   1.204   3.811  12.101  0.5902 -0.3586  0.4392
    4DOPE  H18Z  516   1.372   3.743  12.098  1.7631 -0.1770 -2.4630
    5DOPE     N  517   8.256   7.780  13.403 -0.1224  0.0870  0.1454
    5DOPE   HN1  518   8.201   7.711  13.458  1.0858 -2.1229 -1.2842
    5DOPE   HN2  519   8.298   7.865  13.446 -2.0568  0.7061  0.9244
    5DOPE   HN3  520   8.200   7.802  13.318 -1.0295 -0.3096  0.6263
    5DOPE   C12  521   8.364   7.701  13.331 -0.1148 -0.0674 -0.6534
    5DOPE  H12A  522   8.441   7.674  13.406  1.3673  1.9184 -1.3898
    5DOPE  H12B  523   8.409   7.762  13.249  0.0565  1.3029  0.4306
    5DOPE   C11  524   8.309   7.575  13.266 -0.3728  0.0434 -0.1907
    5DOPE  H11A  525   8.392   7.532  13.204  0.0463  1.7278 -0.8395
    5DOPE  H11B  526   8.227   7.607  13.199  0.8348  1.6054 -0.9805
    5DOPE     P  527   8.132   7.392  13.348 -0.2932 -0.2888 -0.0348
    5DOPE   O13  528   8.023   7.488  13.313  0.3531 -0.0756 -0.0879
    5DOPE   O14  529   8.111   7.306  13.464  0.6355  0.1819 -0.2797
    5DOPE   O11  530   8.153   7.302  13.216 -1.1055 -0.0272  0.9193
    5DOPE   O12  531   8.266   7.472  13.362 -0.2588  0.4053  0.8146
    5DOPE    C1  532   8.247   7.200  13.211  0.4203 -0.2454 -0.3753
    5DOPE    HA  533   8.203   7.114  13.155  0.9427 -0.8701  0.1623
    5DOPE    HB  534   8.273   7.171  13.315  0.0920 -0.1943 -0.2780
    5DOPE    C2  535   8.383   7.232  13.143 -0.4857  0.2447 -0.5871
    5DOPE    HS  536   8.424   7.321  13.196 -1.1746  0.3652 -0.2476
    5DOPE   O21  537   8.367   7.262  13.002 -0.2581  0.1928  0.3378
    5DOPE   C21  538   8.451   7.338  12.940 -0.1763 -0.1607  0.0619
    5DOPE   O22  539   8.550   7.401  12.987 -0.4115  0.2773  0.6564
    5DOPE   C22  540   8.417   7.330  12.792  0.6281  0.2886 -0.3192
    5DOPE   H2R  541   8.438   7.430  12.748  0.3390 -0.6884 -2.8828
    5DOPE   H2S  542   8.310   7.305  12.781 -0.1569  2.5706  1.4112
    5DOPE    C3  543   8.479   7.103  13.170 -0.3645 -0.0918 -0.0905
    5DOPE    HX  544   8.487   7.091  13.281 -1.2762 -0.0465 -0.0150
    5DOPE    HY  545   8.583   7.131  13.142 -0.0771 -1.0961 -0.0725
    5DOPE   O31  546   8.421   6.981  13.115 -0.2592 -0.0496  0.2051
    5DOPE   C31  547   8.473   6.945  13.005 -0.5769 -1.1836  0.3142
    5DOPE   O32  548   8.566   6.994  12.947  0.1174 -0.0204  0.3115
    5DOPE   C32  549   8.408   6.816  12.950  0.1316 -0.3551 -0.2119
    5DOPE   H2X  550   8.460   6.730  12.997  2.4137  1.9407  1.7542
    5DOPE   H2Y  551   8.301   6.826  12.981  1.1554  1.1076  3.3361
    5DOPE   C23  552   8.502   7.225  12.717  0.3066  0.0148  0.3252
    5DOPE   H3R  553   8.461   7.122  12.713  1.3829 -0.4139 -2.3140
    5DOPE   H3S  554   8.597   7.210  12.774 -0.0245  0.3038  0.9543
    5DOPE   C24  555   8.537   7.268  12.568 -0.1750  0.6548 -0.0843
    5DOPE   H4R  556   8.641   7.239  12.541  0.4999 -0.7808  3.4630
    5DOPE   H4S  557   8.536   7.379  12.561  0.4642  0.7760  1.4524
    5DOPE   C25  558   8.440   7.216  12.465 -0.4468 -0.1969  0.1930
    5DOPE   H5R  559   8.343   7.245  12.511 -0.7584 -2.0973  0.8060
    5DOPE   H5S  560   8.437   7.105  12.461 -0.5159 -0.2015  0.3818
    5DOPE   C26  561   8.459   7.280  12.331  0.3881  0.0852  0.1273
    5DOPE   H6R  562   8.552   7.245  12.282  0.5789 -1.1391  1.2921
    5DOPE   H6S  563   8.474   7.390  12.338  1.8855  0.0305 -1.5737
    5DOPE   C27  564   8.341   7.244  12.243 -0.4813  0.1422 -0.1239
    5DOPE   H7R  565   8.241   7.286  12.266 -0.5827  0.4198 -1.0357
    5DOPE   H7S  566   8.337   7.133  12.249  1.1653 -0.2629 -3.6238
    5DOPE   C28  567   8.361   7.280  12.091  0.0036  0.0150  0.0618
    5DOPE   H8R  568   8.373   7.390  12.088 -2.3264  0.3220 -0.0198
    5DOPE   H8S  569   8.266   7.267  12.035  1.0051  1.6936 -2.1688
    5DOPE   C29  570   8.474   7.206  12.014  0.2112 -0.1415  0.0959
    5DOPE   H9R  571   8.454   7.097  12.016 -2.0257  0.1737 -1.1131
    5DOPE  C210  572   8.588   7.254  11.960 -0.0651  0.2406  0.1833
    5DOPE  H10R  573   8.648   7.181  11.903 -0.1930  0.2862 -0.0131
    5DOPE  C211  574   8.635   7.399  11.973 -0.3428 -0.0219 -0.0529
    5DOPE  H11R  575   8.549   7.460  12.007 -0.4065  0.6273 -1.2993
    5DOPE  H11S  576   8.647   7.446  11.873 -2.1211  1.7748  0.5032
    5DOPE  C212  577   8.745   7.392  12.076  0.4269 -1.0200 -0.7485
    5DOPE  H12R  578   8.825   7.321  12.046  0.1511 -0.6324 -2.5013
    5DOPE  H12S  579   8.694   7.365  12.170  2.3961 -0.9858  0.3970
    5DOPE  C213  580   8.800   7.533  12.104  0.5080  1.0047 -0.2935
    5DOPE  H13R  581   8.713   7.598  12.126 -0.1308 -0.5816  2.4663
    5DOPE  H13S  582   8.848   7.567  12.010 -0.4050  3.7815  0.1685
    5DOPE  C214  583   8.911   7.540  12.212 -0.1366 -0.1318 -0.0606
    5DOPE  H14R  584   8.987   7.464  12.185 -0.1125  0.3182 -1.3227
    5DOPE  H14S  585   8.860   7.500  12.302  0.3192 -2.4001 -0.7423
    5DOPE  C215  586   8.959   7.685  12.210  0.3203  0.3693 -0.5330
    5DOPE  H15R  587   8.869   7.750  12.211  0.2564  0.2760  0.0034
    5DOPE  H15S  588   9.001   7.709  12.110 -2.3212  0.8248 -1.6341
    5DOPE  C216  589   9.052   7.726  12.322 -0.3737 -0.4167  0.1486
    5DOPE  H16R  590   9.012   7.686  12.418  0.0148 -0.4926  0.2803
    5DOPE  H16S  591   9.070   7.836  12.316 -0.9943 -0.4045 -2.1643
    5DOPE  C217  592   9.187   7.660  12.291 -0.2376  0.1889 -0.4330
    5DOPE  H17R  593   9.220   7.699  12.193 -0.0893  1.4794  0.1081
    5DOPE  H17S  594   9.178   7.549  12.288  3.4706 -0.3079  0.9485
    5DOPE  C218  595   9.305   7.681  12.385  0.2617 -0.7347  0.2779
    5DOPE  H18R  596   9.319   7.789  12.406 -1.6990 -0.5612  0.9309
    5DOPE  H18S  597   9.396   7.640  12.337  1.1477  1.4837 -0.0727
    5DOPE  H18T  598   9.291   7.633  12.484  1.9963  1.0983  1.4776
    5DOPE   C33  599   8.416   6.793  12.795  0.6211 -0.2699 -0.4553
    5DOPE   H3X  600   8.510   6.817  12.741 -0.0971  1.5504 -0.9476
    5DOPE   H3Y  601   8.339   6.859  12.751 -0.9033 -3.1910 -2.4688
    5DOPE   C34  602   8.370   6.650  12.760  0.2906  0.2165 -0.1566
    5DOPE   H4X  603   8.412   6.577  12.832 -1.0104 -2.3074 -1.8322
    5DOPE   H4Y  604   8.262   6.644  12.781  0.2663 -0.4014 -0.4531
    5DOPE   C35  605   8.407   6.599  12.619 -0.3664 -0.1233  0.3999
    5DOPE   H5X  606   8.504   6.645  12.592 -1.2095  1.7985  0.4381
    5DOPE   H5Y  607   8.335   6.639  12.545 -0.7702 -1.5693 -0.0254
    5DOPE   C36  608   8.405   6.447  12.592  0.2066 -0.3138 -0.3471
    5DOPE   H6X  609   8.298   6.419  12.598 -1.0660  3.6938 -1.4084
    5DOPE   H6Y  610   8.464   6.409  12.678  0.5817  0.3704 -0.2921
    5DOPE   C37  611   8.444   6.402  12.445  0.1021 -0.5879  0.5856
    5DOPE   H7X  612   8.548   6.430  12.420  1.1743 -3.3561  1.4856
    5DOPE   H7Y  613   8.447   6.291  12.441 -1.0235 -0.5948 -0.7943
    5DOPE   C38  614   8.347   6.472  12.346  0.1090  0.2594 -0.0920
    5DOPE   H8X  615   8.365   6.582  12.347  0.3153  0.2618 -1.7735
    5DOPE   H8Y  616   8.244   6.460  12.384  0.4407 -0.5209  0.5903
    5DOPE   C39  617   8.360   6.428  12.204  0.1545  0.2574  0.2636
    5DOPE   H9X  618   8.365   6.319  12.190 -1.1373  0.1520  0.4875
    5DOPE  C310  619   8.394   6.501  12.092  0.0570 -0.2167 -0.3314
    5DOPE  H10X  620   8.431   6.446  12.004  0.9190  0.9143 -0.6901
    5DOPE  C311  621   8.399   6.651  12.080 -0.5640 -0.7610  0.1294
    5DOPE  H11X  622   8.417   6.701  12.178  2.2204 -1.9433  0.3054
    5DOPE  H11Y  623   8.489   6.674  12.020  0.1021 -3.2133  0.0835
    5DOPE  C312  624   8.277   6.726  12.031  0.5276 -0.4494  0.3870
    5DOPE  H12X  625   8.191   6.727  12.101 -0.1358  1.0789 -0.4167
    5DOPE  H12Y  626   8.245   6.695  11.929  1.0024 -0.1812  0.1554
    5DOPE  C313  627   8.308   6.874  12.011  0.6624  0.0758 -0.2652
    5DOPE  H13X  628   8.325   6.916  12.113  1.2473  0.2444 -0.4286
    5DOPE  H13Y  629   8.403   6.888  11.955  0.4216  0.3030 -0.6201
    5DOPE  C314  630   8.203   6.945  11.937 -0.6229 -0.4235  1.0141
    5DOPE  H14X  631   8.165   7.021  12.009  1.2220 -0.0776  1.6607
    5DOPE  H14Y  632   8.116   6.881  11.910  0.9229 -1.4161 -2.1458
    5DOPE  C315  633   8.250   7.005  11.801 -0.5243  0.8193 -0.6151
    5DOPE  H15X  634   8.288   6.921  11.739 -0.9376  0.4718 -0.4099
    5DOPE  H15Y  635   8.327   7.081  11.823 -1.4348  1.2751  1.2861
    5DOPE  C316  636   8.138   7.070  11.727 -0.2704 -0.3498 -0.1293
    5DOPE  H16X  637   8.110   7.166  11.776  1.6445  0.5308 -0.6541
    5DOPE  H16Y  638   8.052   7.000  11.725 -0.0062 -0.6706 -0.2564
    5DOPE  C317  639   8.185   7.106  11.583  0.7596  0.5194 -0.4749
    5DOPE  H17X  640   8.289   7.142  11.574  0.4920  1.3398 -0.4613
    5DOPE  H17Y  641   8.193   7.016  11.519 -2.3779 -0.8581  0.8272
    5DOPE  C318  642   8.100   7.218  11.517  0.1877  0.0738  0.4232
    5DOPE  H18X  643   7.992   7.194  11.511  0.1316  0.0722  1.2626
    5DOPE  H18Y  644   8.116   7.317  11.566  2.2413  0.8134 -1.5354
    5DOPE  H18Z  645   8.145   7.230  11.416 -0.9017  3.6024  0.1984
    6DOPE     N  646   0.469   7.680  13.663 -0.1602  0.7119  0.0395
    6DOPE   HN1  647   0.434   7.749  13.592 -0.1690 -1.0576 -1.7674
    6DOPE   HN2  648   0.398   7.674  13.739  0.4890  1.1885  0.6953
    6DOPE   HN3  649   0.559   7.719  13.696  0.1214 -0.0744  0.2148
    6DOPE   C12  650   0.484   7.544  13.607  0.5434 -1.0888  0.6489
    6DOPE  H12A  651   0.380   7.506  13.616 -0.9467  2.5719  0.7293
    6DOPE  H12B  652   0.553   7.474  13.659  2.2261  0.0448  0.0456
    6DOPE   C11  653   0.519   7.567  13.457 -0.3154 -0.0054  0.1751
    6DOPE  H11A  654   0.515   7.465  13.413 -2.3184 -0.6812  1.7969
    6DOPE  H11B  655   0.624   7.601  13.440 -0.1528 -1.5020 -2.4849
    6DOPE     P  656   0.320   7.600  13.298  0.1047 -0.2599  0.3882
    6DOPE   O13  657   0.247   7.716  13.243 -0.2312 -0.0103  0.6655
    6DOPE   O14  658   0.244   7.500  13.379  0.0140 -0.5630  0.1193
    6DOPE   O11  659   0.407   7.522  13.188 -0.0725  0.0497 -0.2475
    6DOPE   O12  660   0.432   7.660  13.391  0.3851 -0.8745  0.4986
    6DOPE    C1  661   0.518   7.576  13.118  0.0820 -0.3730  0.2874
    6DOPE    HA  662   0.590   7.499  13.085  0.5223 -0.3461  1.1566
    6DOPE    HB  663   0.580   7.652  13.171  2.9717 -0.4787 -2.6864
    6DOPE    C2  664   0.470   7.653  12.988  0.3927  0.0102  0.3010
    6DOPE    HS  665   0.384   7.719  13.013 -1.8588 -1.3299 -3.1181
    6DOPE   O21  666   0.432   7.566  12.884 -0.2425 -0.4178  0.8880
    6DOPE   C21  667   0.326   7.601  12.814 -0.3680  0.4018 -0.2652
    6DOPE   O22  668   0.246   7.683  12.853 -0.4244 -0.4602 -0.5276
    6DOPE   C22  669   0.302   7.506  12.697 -0.2669 -0.3324  0.7909
    6DOPE   H2R  670   0.196   7.473  12.690  0.0569 -1.8379  2.2662
    6DOPE   H2S  671   0.362   7.413  12.712  0.4534 -0.4286 -2.1549
    6DOPE    C3  672   0.586   7.738  12.930 -0.0944 -0.2811  0.6106
    6DOPE    HX  673   0.675   7.681  12.896  0.5006  1.2003 -0.4496
    6DOPE    HY  674   0.617   7.806  13.013  1.1802 -0.1451  0.0501
    6DOPE   O31  675   0.537   7.820  12.823  0.0636 -0.3652  0.1099
    6DOPE   C31  676   0.624   7.910  12.785 -0.2267 -0.0229  0.1236
    6DOPE   O32  677   0.742   7.913  12.817 -0.0627  0.2564 -0.5055
    6DOPE   C32  678   0.562   7.988  12.676  0.1582 -0.1977  0.0528
    6DOPE   H2X  679   0.532   7.925  12.590 -1.3814  2.0696 -1.2025
    6DOPE   H2Y  680   0.474   8.037  12.723 -1.0452 -1.6472 -0.6152
    6DOPE   C23  681   0.334   7.576  12.562  0.7620 -0.4369  0.2658
    6DOPE   H3R  682   0.282   7.509  12.490 -1.1096  2.2926 -1.0780
    6DOPE   H3S  683   0.444   7.569  12.554  0.6760 -1.0275 -0.4619
    6DOPE   C24  684   0.298   7.721  12.544  0.3750  0.4470  0.6034
    6DOPE   H4R  685   0.366   7.777  12.476  0.1124  1.7243  1.3604
    6DOPE   H4S  686   0.294   7.788  12.633  0.9749  1.4321 -0.0924
    6DOPE   C25  687   0.163   7.740  12.476  0.2640  0.2163 -0.3046
    6DOPE   H5R  688   0.090   7.748  12.559  2.1314  0.1641  1.4304
    6DOPE   H5S  689   0.144   7.657  12.405 -0.8273  1.4606 -1.5413
    6DOPE   C26  690   0.163   7.872  12.402  0.7675  0.4793  0.4350
    6DOPE   H6R  691   0.059   7.881  12.364  0.6513  2.5082  1.1583
    6DOPE   H6S  692   0.243   7.865  12.324  0.4091  0.2339  0.0868
    6DOPE   C27  693   0.191   8.000  12.486 -0.3926  0.3264 -0.2309
    6DOPE   H7R  694   0.301   8.007  12.501 -0.6540  1.4476  1.4068
    6DOPE   H7S  695   0.147   7.977  12.586  4.0406 -1.2802  1.6417
    6DOPE   C28  696   0.135   8.125  12.418  0.0831 -0.1460  0.7440
    6DOPE   H8R  697   0.029   8.097  12.404 -0.1846 -0.8252  3.5175
    6DOPE   H8S  698   0.176   8.139  12.316 -1.4335  0.8054  0.2412
    6DOPE   C29  699   0.160   8.254  12.497 -0.0475  0.2567  0.2227
    6DOPE   H9R  700   0.139   8.247  12.604 -1.7176 -0.3287 -0.1161
    6DOPE  C210  701   0.216   8.372  12.460  0.0000 -0.4716 -0.9855
    6DOPE  H10R  702   0.228   8.438  12.547 -1.1283 -0.5410 -0.7510
    6DOPE  C211  703   0.249   8.425  12.326  0.5710  0.0717 -0.5282
    6DOPE  H11R  704   0.243   8.347  12.247 -1.7199  0.1428 -0.4960
    6DOPE  H11S  705   0.345   8.480  12.324  1.0146 -0.6798 -0.1896
    6DOPE  C212  706   0.132   8.526  12.294 -0.0675 -0.2580  0.2426
    6DOPE  H12R  707   0.176   8.583  12.209 -0.3533 -0.4528 -0.0387
    6DOPE  H12S  708   0.114   8.602  12.373  0.7355 -1.3884  1.5483
    6DOPE  C213  709   0.003   8.459  12.248  0.0194 -0.1582  0.0298
    6DOPE  H13R  710  -0.041   8.394  12.326  0.2402 -0.3317  0.0090
    6DOPE  H13S  711   0.024   8.399  12.157 -2.1460  0.0383 -0.6754
    6DOPE  C214  712  -0.107   8.562  12.215 -0.0958  0.0250 -0.0422
    6DOPE  H14R  713  -0.129   8.609  12.313  0.9823  1.4822 -0.4560
    6DOPE  H14S  714  -0.190   8.505  12.170 -1.6232  1.9826  0.1670
    6DOPE  C215  715  -0.071   8.663  12.113 -0.2449  0.5410 -0.0811
    6DOPE  H15R  716  -0.057   8.616  12.013  0.6134  0.4015  0.1024
    6DOPE  H15S  717   0.027   8.713  12.129  0.0070 -0.1074  0.4173
    6DOPE  C216  718  -0.173   8.783  12.103 -0.1226  0.2302  0.1673
    6DOPE  H16R  719  -0.156   8.841  12.196 -0.1649 -0.0340  0.3413
    6DOPE  H16S  720  -0.273   8.736  12.104 -0.9256  1.7862 -1.7242
    6DOPE  C217  721  -0.154   8.874  11.983  0.1435 -0.4840 -0.1320
    6DOPE  H17R  722  -0.048   8.872  11.952  0.1179 -1.5986 -0.2084
    6DOPE  H17S  723  -0.179   8.979  12.009 -3.0476 -1.0422 -0.5480
    6DOPE  C218  724  -0.240   8.827  11.874  0.6741 -0.4453  0.1416
    6DOPE  H18R  725  -0.240   8.907  11.797 -0.2943 -1.2405 -0.7105
    6DOPE  H18S  726  -0.345   8.819  11.908  0.8019 -0.8114  0.4691
    6DOPE  H18T  727  -0.216   8.732  11.823  0.6919  1.1126 -2.9435
    6DOPE   C33  728   0.659   8.099  12.631 -0.7576  0.2707 -0.3692
    6DOPE   H3X  729   0.763   8.071  12.602 -0.4453  0.2123  0.7374
    6DOPE   H3Y  730   0.681   8.171  12.714  0.0773  2.3635 -2.2881
    6DOPE   C34  731   0.607   8.189  12.524 -0.0609 -0.1187  0.2530
    6DOPE   H4X  732   0.516   8.247  12.549 -0.9425 -1.0300 -0.7078
    6DOPE   H4Y  733   0.679   8.273  12.520 -2.3780  1.9844  0.5501
    6DOPE   C35  734   0.601   8.121  12.394  0.6067  0.5969  0.4894
    6DOPE   H5X  735   0.506   8.065  12.380  0.2262  1.8326 -3.0348
    6DOPE   H5Y  736   0.683   8.048  12.380 -0.5254 -0.3819 -1.6618
    6DOPE   C36  737   0.609   8.213  12.273 -0.7193 -0.9760  0.1128
    6DOPE   H6X  738   0.701   8.275  12.273 -1.4078  0.0860 -0.5813
    6DOPE   H6Y  739   0.531   8.293  12.279 -0.4815 -0.7949  0.8740
    6DOPE   C37  740   0.595   8.151  12.139  0.5249  0.0656  0.3094
    6DOPE   H7X  741   0.673   8.184  12.068  0.8941  0.1890  0.7641
    6DOPE   H7Y  742   0.596   8.040  12.150  0.0699 -0.0266 -0.4582
    6DOPE   C38  743   0.455   8.173  12.071 -0.0217 -0.1306 -0.2720
    6DOPE   H8X  744   0.434   8.279  12.047 -1.7218  0.0297  1.6787
    6DOPE   H8Y  745   0.370   8.147  12.137 -1.9939 -0.2026 -2.7067
    6DOPE   C39  746   0.438   8.077  11.959 -0.3365  0.6344 -0.0327
    6DOPE   H9X  747   0.450   7.973  11.993  1.3472  0.5702 -0.7154
    6DOPE  C310  748   0.408   8.101  11.832  0.0639 -0.2271 -0.1175
    6DOPE  H10X  749   0.388   8.013  11.769 -0.1362 -0.0327 -0.3283
    6DOPE  C311  750   0.376   8.235  11.765  0.6781 -0.7818  0.0253
    6DOPE  H11X  751   0.467   8.297  11.747 -1.1958  1.8003 -1.1451
    6DOPE  H11Y  752   0.344   8.199  11.665  1.7810 -0.7383 -0.3595
    6DOPE  C312  753   0.262   8.325  11.825 -0.0684 -0.5217  0.2523
    6DOPE  H12X  754   0.309   8.376  11.912  2.0035 -2.6634  0.5108
    6DOPE  H12Y  755   0.175   8.260  11.848 -0.5188 -1.3248 -3.0975
    6DOPE  C313  756   0.199   8.425  11.724  0.1346  0.2456 -0.2420
    6DOPE  H13X  757   0.278   8.489  11.679  1.2442 -1.5654 -0.9514
    6DOPE  H13Y  758   0.154   8.373  11.637  2.0880  0.3949 -1.3985
    6DOPE  C314  759   0.103   8.530  11.789 -0.2701 -0.5199  0.0430
    6DOPE  H14X  760   0.152   8.575  11.877 -2.6921  0.4236  0.9934
    6DOPE  H14Y  761   0.010   8.474  11.814 -0.4576 -0.1436  0.2000
    6DOPE  C315  762   0.058   8.659  11.705 -0.3529 -0.2879  0.3714
    6DOPE  H15X  763   0.153   8.709  11.676  0.2342 -1.9702 -0.7741
    6DOPE  H15Y  764  -0.008   8.727  11.763 -1.2469  1.3507 -2.3860
    6DOPE  C316  765  -0.007   8.615  11.573  0.1937 -0.8484  0.0796
    6DOPE  H16X  766  -0.099   8.561  11.602 -0.7967  0.5884 -0.2580
    6DOPE  H16Y  767   0.073   8.554  11.525  1.5407  0.7147  0.2239
    6DOPE  C317  768  -0.040   8.736  11.485 -0.9498 -0.1974  1.2177
    6DOPE  H17X  769   0.005   8.823  11.537  1.5034 -2.1763  2.6556
    6DOPE  H17Y  770   0.018   8.718  11.392  2.6690  0.3403  3.1922
    6DOPE  C318  771  -0.193   8.762  11.458 -0.1593 -0.3626  0.1852
    6DOPE  H18X  772  -0.238   8.738  11.556 -1.3574  0.0946 -0.2442
    6DOPE  H18Y  773  -0.209   8.866  11.421  3.4781 -0.5037 -2.4813
    6DOPE  H18Z  774  -0.222   8.689  11.379  0.7198  0.8346 -1.3176
    7DOPE     N  775   4.203   7.577  13.411  0.1193  0.3567 -0.7395
    7DOPE   HN1  776   4.259   7.657  13.375  0.6977 -0.5982 -2.0462
    7DOPE   HN2  777   4.274   7.504  13.431 -0.7303 -0.0707  0.8486
    7DOPE   HN3  778   4.140   7.546  13.335  0.2940  0.9272 -1.1257
    7DOPE   C12  779   4.130   7.626  13.542  0.2968  0.4670  0.7579
    7DOPE  H12A  780   4.193   7.699  13.596  0.3455 -0.8119  2.5004
    7DOPE  H12B  781   4.115   7.535  13.605  1.9748 -0.4621 -0.1091
    7DOPE   C11  782   4.000   7.690  13.507 -0.3898 -0.2172 -0.9234
    7DOPE  H11A  783   4.023   7.770  13.433 -0.0470  0.0212 -0.5609
    7DOPE  H11B  784   3.954   7.741  13.593 -0.6053 -2.0918  0.1365
    7DOPE     P  785   3.766   7.614  13.418  0.0571 -0.3526 -0.2271
    7DOPE   O13  786   3.758   7.730  13.330 -0.1482  0.6901 -0.5832
    7DOPE   O14  787   3.691   7.604  13.541  0.1504 -0.9684  0.0014
    7DOPE   O11  788   3.729   7.479  13.332  0.0660  0.2113 -0.2777
    7DOPE   O12  789   3.917   7.587  13.453 -0.0547 -0.2961  0.5214
    7DOPE    C1  790   3.766   7.346  13.359 -0.2486  0.0284 -0.2643
    7DOPE    HA  791   3.690   7.274  13.321  2.1241 -2.5616 -0.4088
    7DOPE    HB  792   3.761   7.321  13.467 -1.4260 -2.0198 -0.7455
    7DOPE    C2  793   3.911   7.311  13.295  1.0491  0.2846  0.3469
    7DOPE    HS  794   3.978   7.369  13.361  0.4834 -0.9736  2.1063
    7DOPE   O21  795   3.917   7.342  13.160  0.3083 -0.8522 -0.0818
    7DOPE   C21  796   4.014   7.426  13.120  0.8864 -0.4431  0.3178
    7DOPE   O22  797   4.094   7.475  13.195 -0.4512 -0.0559  0.7073
    7DOPE   C22  798   4.012   7.452  12.969 -0.0088 -0.3772  0.1562
    7DOPE   H2R  799   4.049   7.554  12.944 -1.1956  0.1732  0.5410
    7DOPE   H2S  800   3.904   7.449  12.942  0.2669 -1.2137 -0.8861
    7DOPE    C3  801   3.924   7.156  13.314  0.1018  0.2594 -0.1931
    7DOPE    HX  802   3.837   7.111  13.262  0.3008 -1.4121  0.8205
    7DOPE    HY  803   3.910   7.122  13.419 -0.1006  0.2263 -0.2305
    7DOPE   O31  804   4.055   7.112  13.272  0.0168 -0.3345 -0.5719
    7DOPE   C31  805   4.061   7.024  13.174  0.0916 -0.0485 -0.2479
    7DOPE   O32  806   3.965   6.985  13.104 -0.3261 -0.1357 -0.6467
    7DOPE   C32  807   4.202   6.969  13.152 -0.3013  0.0335 -0.4917
    7DOPE   H2X  808   4.282   7.046  13.152  0.9833 -1.1628 -3.3442
    7DOPE   H2Y  809   4.240   6.909  13.237 -0.9515  0.9836  0.5122
    7DOPE   C23  810   4.082   7.343  12.898  0.0087  0.4500 -0.2499
    7DOPE   H3R  811   4.063   7.356  12.789  0.4712 -2.2546 -0.7296
    7DOPE   H3S  812   4.040   7.244  12.925  1.5065  0.0204  0.5723
    7DOPE   C24  813   4.234   7.333  12.926  0.1053  0.1722 -0.0452
    7DOPE   H4R  814   4.281   7.242  12.883 -0.8534 -0.6272  0.5432
    7DOPE   H4S  815   4.246   7.315  13.035 -1.3323 -0.5079  0.0202
    7DOPE   C25  816   4.303   7.449  12.873 -0.3993 -0.3262  0.2747
    7DOPE   H5R  817   4.310   7.522  12.956  3.4367 -0.4605  0.2476
    7DOPE   H5S  818   4.252   7.493  12.785  0.3153 -0.6506 -0.3182
    7DOPE   C26  819   4.450   7.424  12.846  0.1530 -0.2999 -0.1483
    7DOPE   H6R  820   4.460   7.374  12.747  1.8403  1.6055 -1.0218
    7DOPE   H6S  821   4.488   7.359  12.928 -1.6603  0.1429  1.0862
    7DOPE   C27  822   4.539   7.547  12.830 -0.4403 -0.6995  0.2244
    7DOPE   H7R  823   4.532   7.616  12.917  0.9863  3.3720 -2.6114
    7DOPE   H7S  824   4.508   7.606  12.742 -0.5450 -1.9163 -0.5776
    7DOPE   C28  825   4.683   7.501  12.810 -0.3210  0.3840  0.2344
    7DOPE   H8R  826   4.700   7.429  12.892 -2.3859 -1.6417 -0.9841
    7DOPE   H8S  827   4.747   7.587  12.838 -1.2818  0.7734  1.2932
    7DOPE   C29  828   4.703   7.446  12.676 -0.5479  0.0200  0.5125
    7DOPE   H9R  829   4.612   7.412  12.623  0.5828  0.2119 -1.6619
    7DOPE  C210  830   4.829   7.449  12.620  0.6536  0.1422 -0.2943
    7DOPE  H10R  831   4.837   7.407  12.518 -0.0385 -1.3656  0.2412
    7DOPE  C211  832   4.956   7.505  12.676  0.0726  0.4779  0.0351
    7DOPE  H11R  833   5.037   7.429  12.686  1.0833  1.7942  2.3880
    7DOPE  H11S  834   4.943   7.531  12.783 -1.3676 -1.3815  0.3666
    7DOPE  C212  835   5.014   7.623  12.590 -0.3661 -0.2862  0.0934
    7DOPE  H12R  836   5.122   7.628  12.618 -0.3479 -0.2526  0.0166
    7DOPE  H12S  837   4.959   7.717  12.614 -0.5412 -0.7440  1.6306
    7DOPE  C213  838   4.993   7.610  12.441 -0.0005 -0.0354  0.5165
    7DOPE  H13R  839   4.886   7.628  12.417  0.7770  2.6684 -1.4636
    7DOPE  H13S  840   5.022   7.505  12.419 -0.1346 -0.0643  0.4798
    7DOPE  C214  841   5.090   7.716  12.368  1.0252  0.0308  0.0416
    7DOPE  H14R  842   5.193   7.707  12.409  1.1923  1.3540 -0.0642
    7DOPE  H14S  843   5.049   7.813  12.404  0.0907 -0.0526 -0.7553
    7DOPE  C215  844   5.103   7.704  12.221 -0.2908 -0.1460 -0.4665
    7DOPE  H15R  845   5.091   7.597  12.195  0.0574  0.0572 -1.5445
    7DOPE  H15S  846   5.199   7.745  12.184 -1.2225  2.1731 -0.5147
    7DOPE  C216  847   4.995   7.791  12.140 -0.2773  0.1321  0.4757
    7DOPE  H16R  848   5.034   7.894  12.128  1.7202 -0.8614 -2.5507
    7DOPE  H16S  849   4.896   7.795  12.191 -1.4660 -0.0460 -1.6762
    7DOPE  C217  850   4.971   7.747  11.996  0.1301  0.8288  0.3290
    7DOPE  H17R  851   4.956   7.637  11.990 -0.0965  0.8437  0.6130
    7DOPE  H17S  852   5.055   7.783  11.932 -0.6241 -0.0418 -1.2137
    7DOPE  C218  853   4.849   7.808  11.927 -0.1799  0.5054 -0.1493
    7DOPE  H18R  854   4.851   7.918  11.913  0.0311  0.3404 -1.5430
    7DOPE  H18S  855   4.759   7.788  11.989  0.0922 -0.6449 -0.0961
    7DOPE  H18T  856   4.823   7.768  11.827 -2.0338  0.9598  0.1227
    7DOPE   C33  857   4.217   6.883  13.027 -0.2419 -0.5794 -0.5206
    7DOPE   H3X  858   4.199   6.941  12.934  1.2780  0.8749  0.0455
    7DOPE   H3Y  859   4.154   6.792  13.037  0.0373 -0.7490 -0.2962
    7DOPE   C34  860   4.359   6.828  13.015 -0.1555 -0.0957  0.2360
    7DOPE   H4X  861   4.437   6.905  12.999 -0.1787 -0.4491 -1.9849
    7DOPE   H4Y  862   4.376   6.790  13.118  0.2775 -2.0718 -0.5201
    7DOPE   C35  863   4.382   6.715  12.915  0.0207  0.0856  0.0294
    7DOPE   H5X  864   4.297   6.645  12.925 -1.1269  1.7668  4.9228
    7DOPE   H5Y  865   4.481   6.669  12.933 -0.4613 -0.5510  1.1136
    7DOPE   C36  866   4.370   6.774  12.775  0.1964 -0.0230  0.4277
    7DOPE   H6X  867   4.263   6.779  12.747  0.6290 -0.3358 -1.4166
    7DOPE   H6Y  868   4.403   6.695  12.704  0.1175  0.5689 -0.2772
    7DOPE   C37  869   4.456   6.900  12.746  0.0901 -0.1153  0.5620
    7DOPE   H7X  870   4.416   6.985  12.806  0.2981  0.4057 -0.0257
    7DOPE   H7Y  871   4.563   6.881  12.770  0.6568 -0.1162 -1.7618
    7DOPE   C38  872   4.446   6.941  12.598 -0.3183  0.3080 -0.2919
    7DOPE   H8X  873   4.341   6.976  12.586 -0.5934 -0.7263 -1.0930
    7DOPE   H8Y  874   4.455   6.847  12.539 -0.2769  0.6708 -0.8690
    7DOPE   C39  875   4.548   7.041  12.543  0.0164  0.8217  0.1883
    7DOPE   H9X  876   4.641   7.054  12.600  0.1083  2.1407 -0.2374
    7DOPE  C310  877   4.533   7.134  12.445  0.4957  0.4290 -0.3158
    7DOPE  H10X  878   4.607   7.204  12.403  1.2715 -0.4022 -0.3593
    7DOPE  C311  879   4.408   7.156  12.367 -0.2124 -0.4182 -0.0544
    7DOPE  H11X  880   4.426   7.200  12.267  0.3735 -0.2164  0.1368
    7DOPE  H11Y  881   4.353   7.061  12.352 -1.5854  0.3770 -0.3103
    7DOPE  C312  882   4.330   7.269  12.440 -0.0098 -0.0370  0.9485
    7DOPE  H12X  883   4.390   7.363  12.444 -0.2951  0.1981 -0.0173
    7DOPE  H12Y  884   4.304   7.237  12.543 -2.0144  2.6288  1.3751
    7DOPE  C313  885   4.195   7.294  12.358 -1.2146  0.5697  0.3074
    7DOPE  H13X  886   4.223   7.344  12.263 -0.1703  1.0319  0.8365
    7DOPE  H13Y  887   4.142   7.197  12.347 -0.0438 -0.2288  1.3328
    7DOPE  C314  888   4.110   7.381  12.450 -0.3168  0.0999  0.3761
    7DOPE  H14X  889   4.072   7.324  12.538 -0.8477  0.4677  0.3906
    7DOPE  H14Y  890   4.016   7.398  12.393  0.2476 -2.1907 -1.4164
    7DOPE  C315  891   4.174   7.514  12.485 -0.3360 -0.0997 -0.1070
    7DOPE  H15X  892   4.198   7.569  12.391 -1.7448 -1.5081 -1.3519
    7DOPE  H15Y  893   4.260   7.489  12.551 -0.6102 -0.8291 -0.0274
    7DOPE  C316  894   4.071   7.590  12.571  0.2076  0.0142  0.0816
    7DOPE  H16X  895   4.059   7.537  12.668  2.0487 -1.6652 -0.5540
    7DOPE  H16Y  896   3.981   7.596  12.505  1.0346 -1.3511 -1.2299
    7DOPE  C317  897   4.122   7.735  12.600  0.3697 -0.3612  0.2029
    7DOPE  H17X  898   4.197   7.727  12.681  0.7970  0.2552 -0.1198
    7DOPE  H17Y  899   4.183   7.773  12.515  0.1573 -0.1874  0.1258
    7DOPE  C318  900   4.012   7.834  12.645 -0.9471 -0.4318 -0.6171
    7DOPE  H18X  901   3.939   7.853  12.564 -0.5925  2.7236 -0.3305
    7DOPE  H18Y  902   3.963   7.794  12.736 -2.2319 -0.1685 -1.1808
    7DOPE  H18Z  903   4.059   7.932  12.670  0.1663 -1.2829  0.8377
    8DOPE     N  904   5.173   0.842  12.503  0.1446 -0.0775 -0.3457
    8DOPE   HN1  905   5.134   0.846  12.407  2.5287  1.8211 -1.3474
    8DOPE   HN2  906   5.098   0.788  12.551 -0.8061 -0.8793 -2.6050
    8DOPE   HN3  907   5.175   0.942  12.532  3.1152 -0.1675  0.0725
    8DOPE   C12  908   5.300   0.761  12.488 -1.0346  0.2220 -0.1571
    8DOPE  H12A  909   5.372   0.781  12.570 -1.5246 -0.5467  0.4719
    8DOPE  H12B  910   5.353   0.793  12.396  0.4272  2.7627  1.4490
    8DOPE   C11  911   5.257   0.617  12.460 -0.0205 -0.3000  0.3095
    8DOPE  H11A  912   5.351   0.578  12.417  0.5088 -2.0271  2.8424
    8DOPE  H11B  913   5.178   0.605  12.382  1.2315 -2.0287 -0.7629
    8DOPE     P  914   5.086   0.534  12.646  0.1939 -0.1477 -0.0732
    8DOPE   O13  915   5.011   0.668  12.640 -0.0323 -0.1587 -0.0615
    8DOPE   O14  916   5.094   0.482  12.782  0.1459  0.1812  0.1799
    8DOPE   O11  917   5.007   0.424  12.557  0.0291 -0.6459  0.2196
    8DOPE   O12  918   5.232   0.538  12.586 -0.2010 -0.2375  0.4850
    8DOPE    C1  919   5.073   0.314  12.509  0.7629  0.6772  0.2627
    8DOPE    HA  920   5.099   0.244  12.591 -0.0854  0.3238  0.2372
    8DOPE    HB  921   5.168   0.337  12.455  0.4746 -0.5254 -0.8047
    8DOPE    C2  922   4.989   0.232  12.413  0.5991  0.8141  0.0104
    8DOPE    HS  923   5.060   0.160  12.368  0.6355  0.5264  0.5190
    8DOPE   O21  924   4.922   0.316  12.317  0.1851 -0.0536  0.1966
    8DOPE   C21  925   5.002   0.356  12.213 -0.2804  0.5006  0.1908
    8DOPE   O22  926   5.110   0.296  12.192  0.2145 -0.1655 -0.3009
    8DOPE   C22  927   4.954   0.486  12.149 -0.5561 -0.3175  0.0421
    8DOPE   H2R  928   5.030   0.560  12.184  0.5561 -1.6195  0.4584
    8DOPE   H2S  929   4.851   0.506  12.185 -0.8688  0.2945 -1.1400
    8DOPE    C3  930   4.879   0.145  12.490 -0.4349  0.4097  0.3855
    8DOPE    HX  931   4.822   0.199  12.568  0.8267 -0.0564  1.6736
    8DOPE    HY  932   4.930   0.074  12.558  0.5186  0.4206 -0.2976
    8DOPE   O31  933   4.791   0.089  12.397  0.5907  0.0632 -0.1827
    8DOPE   C31  934   4.685   0.160  12.354  0.5397  0.4334  0.1251
    8DOPE   O32  935   4.639   0.257  12.411 -0.1232 -0.4094  0.4631
    8DOPE   C32  936   4.622   0.089  12.231  0.0233 -0.7698 -0.5187
    8DOPE   H2X  937   4.703   0.025  12.191  0.0701 -0.8246 -0.3354
    8DOPE   H2Y  938   4.542   0.024  12.273  1.4453 -1.2687  1.5542
    8DOPE   C23  939   4.945   0.476  11.988 -0.0859  0.3840 -0.8486
    8DOPE   H3R  940   5.046   0.453  11.949 -0.0059  1.5367 -1.3593
    8DOPE   H3S  941   4.918   0.573  11.940 -3.4455  1.1548  2.0553
    8DOPE   C24  942   4.841   0.375  11.947  0.1320  0.1205  0.1888
    8DOPE   H4R  943   4.741   0.421  11.958  0.7875  1.8423 -0.7486
    8DOPE   H4S  944   4.849   0.285  12.012  1.3407 -0.5646 -0.8567
    8DOPE   C25  945   4.835   0.352  11.794  0.0644 -0.2351  0.0018
    8DOPE   H5R  946   4.867   0.448  11.748  0.5654 -0.0366  0.7399
    8DOPE   H5S  947   4.735   0.331  11.751 -1.3352  1.6307  2.1748
    8DOPE   C26  948   4.922   0.233  11.755 -0.6346 -0.0821 -0.1361
    8DOPE   H6R  949   4.879   0.131  11.766 -1.4239 -0.0136 -2.2074
    8DOPE   H6S  950   5.023   0.251  11.799  1.0530  4.1022 -4.7732
    8DOPE   C27  951   4.966   0.232  11.606  0.0196 -0.0535 -0.9451
    8DOPE   H7R  952   5.057   0.173  11.584 -0.2365 -0.7746 -0.1367
    8DOPE   H7S  953   4.992   0.340  11.593 -4.8145  1.4219 -0.2234
    8DOPE   C28  954   4.854   0.175  11.512  0.4887 -0.4688  1.0613
    8DOPE   H8R  955   4.759   0.220  11.551  0.5161 -0.0130  0.6190
    8DOPE   H8S  956   4.844   0.069  11.542 -0.0837 -0.5309  0.6790
    8DOPE   C29  957   4.884   0.182  11.366 -0.3772  0.3011 -0.6248
    8DOPE   H9R  958   4.875   0.086  11.314 -1.0385 -0.3386  0.6194
    8DOPE  C210  959   4.903   0.291  11.293 -0.0562  0.7433 -0.0229
    8DOPE  H10R  960   4.936   0.274  11.190 -0.0081 -2.5065  0.4428
    8DOPE  C211  961   4.887   0.435  11.336 -0.2714 -0.2012  0.1969
    8DOPE  H11R  962   4.895   0.448  11.446 -2.6891  1.7361  0.2491
    8DOPE  H11S  963   4.789   0.471  11.297 -1.7339 -4.6340 -0.7453
    8DOPE  C212  964   5.002   0.510  11.266 -0.0473  0.6449 -0.4031
    8DOPE  H12R  965   5.032   0.478  11.164 -0.1631  0.0108 -0.2436
    8DOPE  H12S  966   5.089   0.497  11.333 -0.5457 -1.3028 -0.0932
    8DOPE  C213  967   4.972   0.657  11.239  0.1266  0.0615  0.0516
    8DOPE  H13R  968   4.899   0.673  11.157 -0.5709  1.4605  0.9023
    8DOPE  H13S  969   5.061   0.702  11.192 -0.6519 -0.8251 -2.4267
    8DOPE  C214  970   4.925   0.735  11.359 -0.0617  0.3624 -0.6925
    8DOPE  H14R  971   5.005   0.731  11.436  0.3822 -4.0529 -1.1691
    8DOPE  H14S  972   4.831   0.693  11.401  0.2041  1.7756  1.4944
    8DOPE  C215  973   4.892   0.881  11.304 -0.2274 -0.0346 -0.4187
    8DOPE  H15R  974   4.823   0.935  11.372 -1.8307 -0.5513 -1.5793
    8DOPE  H15S  975   4.826   0.877  11.215  0.1601  1.1327 -0.7737
    8DOPE  C216  976   5.018   0.968  11.264  0.2731 -0.4842  0.5014
    8DOPE  H16R  977   5.095   0.907  11.212  0.5843  0.2120  0.1365
    8DOPE  H16S  978   5.070   1.005  11.354 -0.0792  0.1782  0.4336
    8DOPE  C217  979   4.976   1.102  11.187  0.0326 -0.0754  0.7518
    8DOPE  H17R  980   5.067   1.165  11.179  1.4510 -2.2409 -1.9034
    8DOPE  H17S  981   4.890   1.152  11.237 -0.7143 -3.0730  2.7456
    8DOPE  C218  982   4.926   1.061  11.053 -0.2331 -0.4241  1.1331
    8DOPE  H18R  983   5.005   0.997  11.009 -1.4420 -1.6781  0.6987
    8DOPE  H18S  984   4.899   1.151  10.994  3.1491  0.0106  0.0756
    8DOPE  H18T  985   4.846   0.984  11.062  0.2435 -0.9467  0.9423
    8DOPE   C33  986   4.565   0.187  12.133  0.3417  0.6911 -0.1582
    8DOPE   H3X  987   4.631   0.252  12.072 -0.2916 -0.6690 -2.3980
    8DOPE   H3Y  988   4.492   0.249  12.189 -1.9994 -1.8070 -0.2492
    8DOPE   C34  989   4.488   0.106  12.023 -0.0943 -0.3150 -0.8006
    8DOPE   H4X  990   4.559   0.031  11.981  0.5189  0.8008 -1.8196
    8DOPE   H4Y  991   4.403   0.055  12.072  2.1738 -3.2345  0.4439
    8DOPE   C35  992   4.451   0.196  11.905 -0.5606  0.3611 -0.3208
    8DOPE   H5X  993   4.546   0.247  11.881 -0.2179 -1.0522 -2.2311
    8DOPE   H5Y  994   4.378   0.272  11.941 -0.9229 -0.1378  0.0268
    8DOPE   C36  995   4.394   0.125  11.784 -0.5719  0.3458  0.0424
    8DOPE   H6X  996   4.451   0.034  11.757 -1.2738 -0.1511  0.2108
    8DOPE   H6Y  997   4.403   0.191  11.695  1.4846 -1.9158 -1.5656
    8DOPE   C37  998   4.249   0.076  11.799  0.3611 -0.1107 -0.2294
    8DOPE   H7X  999   4.234   0.005  11.883 -1.1134 -4.1180 -3.5315
    8DOPE   H7Y 1000   4.201   0.170  11.834 -1.9655 -1.1488 -0.4988
    8DOPE   C38 1001   4.179   0.032  11.677 -0.6463  0.0728 -0.4701
    8DOPE   H8X 1002   4.228  -0.059  11.635  3.5035  2.0772 -0.4387
    8DOPE   H8Y 1003   4.195   0.108  11.598 -3.1211  0.7517 -0.3844
    8DOPE   C39 1004   4.033   0.005  11.708 -0.6663  0.2393 -0.8763
    8DOPE   H9X 1005   4.025  -0.070  11.787 -0.0792  2.2129  1.1626
    8DOPE  C310 1006   3.930   0.065  11.654  1.0251 -0.7073 -0.1536
    8DOPE  H10X 1007   3.831   0.034  11.689  1.0526 -1.9562 -1.1335
    8DOPE  C311 1008   3.924   0.184  11.560  0.0528 -0.2500 -0.2891
    8DOPE  H11X 1009   3.837   0.249  11.583  0.1039 -1.0341  2.4199
    8DOPE  H11Y 1010   4.013   0.249  11.574 -1.2520  1.5464  0.0766
    8DOPE  C312 1011   3.920   0.144  11.409  0.1254 -0.0251 -0.2417
    8DOPE  H12X 1012   3.821   0.097  11.394  0.1329  0.1924 -1.0142
    8DOPE  H12Y 1013   3.999   0.070  11.384 -0.2124 -1.0127  1.4731
    8DOPE  C313 1014   3.925   0.259  11.306 -0.1926  0.0464  0.2130
    8DOPE  H13X 1015   3.834   0.320  11.320 -1.1386 -1.4077  0.6248
    8DOPE  H13Y 1016   4.006   0.333  11.323  0.6088 -0.2692 -1.8782
    8DOPE  C314 1017   3.932   0.207  11.158  0.0026 -0.5810 -0.1702
    8DOPE  H14X 1018   4.026   0.148  11.155  0.7020  0.5098  0.1351
    8DOPE  H14Y 1019   3.950   0.295  11.093 -0.7955 -0.7865 -0.6983
    8DOPE  C315 1020   3.807   0.124  11.105 -0.4208 -0.0101 -0.3041
    8DOPE  H15X 1021   3.775   0.060  11.190  0.2354  1.5181  1.1316
    8DOPE  H15Y 1022   3.828   0.058  11.018  0.7069 -1.4453  0.9949
    8DOPE  C316 1023   3.694   0.221  11.072 -0.5800  0.0459 -0.2470
    8DOPE  H16X 1024   3.682   0.297  11.152  1.8156 -0.6350  0.8459
    8DOPE  H16Y 1025   3.594   0.176  11.058 -1.8175  2.2348  0.9876
    8DOPE  C317 1026   3.727   0.308  10.946 -0.2399  0.5646  0.1312
    8DOPE  H17X 1027   3.655   0.392  10.955 -0.2368  0.5542  0.2640
    8DOPE  H17Y 1028   3.831   0.348  10.943  0.7010 -1.6767  0.5584
    8DOPE  C318 1029   3.709   0.233  10.819  0.1596  0.0876  0.4891
    8DOPE  H18X 1030   3.604   0.240  10.784  0.7601  0.3529 -1.3676
    8DOPE  H18Y 1031   3.737   0.126  10.830  0.8059 -0.0045 -1.6365
    8DOPE  H18Z 1032   3.757   0.274  10.728 -1.2866  0.2882 -0.2249
    9DOPE     N 1033   7.738   6.239  13.458  0.2387  0.0800  0.0778
    9DOPE   HN1 1034   7.701   6.297  13.381 -3.5408 -0.4572  1.2542
    9DOPE   HN2 1035   7.714   6.282  13.550 -1.5545  0.1962 -0.4069
    9DOPE   HN3 1036   7.842   6.245  13.456  0.1993  0.6743 -0.5799
    9DOPE   C12 1037   7.699   6.098  13.457  0.1314  0.2650  0.6173
    9DOPE  H12A 1038   7.592   6.079  13.432  0.7684 -2.2643 -0.5732
    9DOPE  H12B 1039   7.723   6.056  13.557 -1.3563 -1.5580  0.2708
    9DOPE   C11 1040   7.773   6.035  13.341  0.1665  0.7849 -0.3198
    9DOPE  H11A 1041   7.739   5.930  13.328  0.5967  0.5619  0.3217
    9DOPE  H11B 1042   7.876   6.000  13.364 -0.4762  0.2049  1.9290
    9DOPE     P 1043   7.621   6.102  13.137 -0.2955  0.0751 -0.3496
    9DOPE   O13 1044   7.559   6.236  13.137 -0.3537 -0.6745 -0.1985
    9DOPE   O14 1045   7.533   6.001  13.198  0.7399 -0.6577  0.0753
    9DOPE   O11 1046   7.666   6.060  12.992  0.1240 -0.4416  0.0552
    9DOPE   O12 1047   7.763   6.104  13.214  0.7704  0.6424 -0.5507
    9DOPE    C1 1048   7.773   5.968  12.974  0.1211 -0.4070 -0.4250
    9DOPE    HA 1049   7.728   5.874  12.936 -1.5643  0.8438 -1.6470
    9DOPE    HB 1050   7.819   5.930  13.068 -0.9436 -0.3053  0.1473
    9DOPE    C2 1051   7.889   6.018  12.885 -0.0479 -0.4173  0.2858
    9DOPE    HS 1052   7.919   6.117  12.926 -0.6703  0.6941 -1.7909
    9DOPE   O21 1053   7.858   6.018  12.744  1.1744 -0.3981 -0.5396
    9DOPE   C21 1054   7.932   6.100  12.674 -0.4691  0.0757 -0.6205
    9DOPE   O22 1055   7.992   6.192  12.716  0.0489  0.0011 -0.5034
    9DOPE   C22 1056   7.926   6.063  12.521 -0.0182  0.6920 -0.9008
    9DOPE   H2R 1057   7.874   5.966  12.504  0.2547 -0.0305  1.8305
    9DOPE   H2S 1058   8.033   6.048  12.494 -0.0336  0.9235 -1.0876
    9DOPE    C3 1059   8.013   5.917  12.903  0.5359 -0.0452  1.1549
    9DOPE    HX 1060   7.977   5.813  12.890  1.5023 -0.2010 -0.5899
    9DOPE    HY 1061   8.055   5.932  13.005 -0.7036  1.8297  1.4433
    9DOPE   O31 1062   8.117   5.939  12.801  0.1627 -0.4814  0.0851
    9DOPE   C31 1063   8.227   5.874  12.837 -0.8533  0.5083  0.1590
    9DOPE   O32 1064   8.238   5.785  12.913  0.4695  0.3680 -1.1413
    9DOPE   C32 1065   8.350   5.943  12.759  0.0772  0.5482  0.4670
    9DOPE   H2X 1066   8.319   6.018  12.682 -0.6865 -0.3747 -0.1426
    9DOPE   H2Y 1067   8.407   5.989  12.843 -2.9333 -0.7902  3.4871
    9DOPE   C23 1068   7.866   6.178  12.446  0.9156 -0.0613  0.5332
    9DOPE   H3R 1069   7.920   6.275  12.453 -0.6290  0.7290  2.1935
    9DOPE   H3S 1070   7.764   6.207  12.478 -0.1538  0.4952 -2.9331
    9DOPE   C24 1071   7.853   6.148  12.297  0.1275  0.3646  0.1320
    9DOPE   H4R 1072   7.797   6.231  12.250  1.2724  1.0070 -0.1550
    9DOPE   H4S 1073   7.812   6.051  12.262  0.1533  0.5833 -0.5354
    9DOPE   C25 1074   7.995   6.157  12.235 -0.1648  0.5803  0.5285
    9DOPE   H5R 1075   8.065   6.077  12.270  1.1774  1.9166  1.0011
    9DOPE   H5S 1076   8.033   6.257  12.266 -2.8883  2.6925 -2.3393
    9DOPE   C26 1077   7.985   6.164  12.083 -0.4636 -0.4464 -0.0593
    9DOPE   H6R 1078   7.899   6.233  12.067 -0.6709 -0.1740  2.0314
    9DOPE   H6S 1079   7.948   6.064  12.049 -1.4585  0.3716 -1.5011
    9DOPE   C27 1080   8.112   6.206  12.009  0.1985  0.1529  1.0078
    9DOPE   H7R 1081   8.198   6.141  12.038 -0.2779 -0.2581  1.5117
    9DOPE   H7S 1082   8.136   6.311  12.036 -0.7066 -0.0751  2.8365
    9DOPE   C28 1083   8.085   6.181  11.858  0.3630 -0.2389  1.0534
    9DOPE   H8R 1084   8.003   6.248  11.823  1.6009  0.6253 -0.3462
    9DOPE   H8S 1085   8.055   6.075  11.843 -0.7228  0.3697 -1.6659
    9DOPE   C29 1086   8.215   6.204  11.776 -0.4614  0.2065  0.3588
    9DOPE   H9R 1087   8.270   6.109  11.763  0.0805 -0.0288  3.5333
    9DOPE  C210 1088   8.257   6.317  11.712  0.3837 -0.4794 -0.0488
    9DOPE  H10R 1089   8.362   6.329  11.683  1.4505  0.2319  3.5942
    9DOPE  C211 1090   8.194   6.455  11.720  0.0104  0.6450  0.5220
    9DOPE  H11R 1091   8.148   6.472  11.820 -1.1812 -0.4865  0.2063
    9DOPE  H11S 1092   8.112   6.466  11.645  0.7478 -1.6729 -0.7273
    9DOPE  C212 1093   8.304   6.563  11.688  0.2636  0.8444 -0.0284
    9DOPE  H12R 1094   8.397   6.534  11.740  0.3082 -0.0434 -0.5888
    9DOPE  H12S 1095   8.253   6.649  11.737 -2.4262 -0.2383 -0.7455
    9DOPE  C213 1096   8.329   6.593  11.541  0.1493 -0.5721 -0.0346
    9DOPE  H13R 1097   8.350   6.499  11.486 -0.1952  1.2083 -3.4127
    9DOPE  H13S 1098   8.423   6.650  11.525  0.9325 -1.9172 -0.4116
    9DOPE  C214 1099   8.212   6.666  11.480  0.7205 -0.3283  0.8606
    9DOPE  H14R 1100   8.186   6.750  11.549 -0.9930 -1.7018  1.9951
    9DOPE  H14S 1101   8.124   6.598  11.476  0.5453 -0.0887  0.5145
    9DOPE  C215 1102   8.237   6.709  11.337  0.0265 -0.1277 -0.3402
    9DOPE  H15R 1103   8.277   6.634  11.264  1.3639 -0.3139  0.5477
    9DOPE  H15S 1104   8.323   6.779  11.341 -1.6195  2.0099 -0.6971
    9DOPE  C216 1105   8.124   6.794  11.291  0.5617  0.6686  0.5570
    9DOPE  H16R 1106   8.160   6.861  11.210  0.5021 -0.8058 -0.7394
    9DOPE  H16S 1107   8.090   6.863  11.370 -2.7618 -1.2982  1.0404
    9DOPE  C217 1108   8.001   6.718  11.243  0.2365 -0.9345 -0.0665
    9DOPE  H17R 1109   7.952   6.665  11.327 -2.1658  0.5063 -0.4794
    9DOPE  H17S 1110   8.031   6.638  11.172  0.5197 -1.6197  0.8118
    9DOPE  C218 1111   7.898   6.805  11.174  0.5197 -0.5429 -0.3107
    9DOPE  H18R 1112   7.944   6.828  11.076  1.6098 -1.6428 -0.0866
    9DOPE  H18S 1113   7.878   6.899  11.231  0.8865 -0.7032  0.0908
    9DOPE  H18T 1114   7.799   6.758  11.165  0.2518 -0.1759  0.6079
    9DOPE   C33 1115   8.441   5.837  12.690  0.5046  0.2247  0.1152
    9DOPE   H3X 1116   8.485   5.759  12.755 -1.7037  1.0533  2.8334
    9DOPE   H3Y 1117   8.528   5.887  12.643  1.6449 -0.8183  1.0554
    9DOPE   C34 1118   8.358   5.769  12.579 -0.1742  0.4030  0.8337
    9DOPE   H4X 1119   8.431   5.709  12.520 -1.7810  1.3765 -2.3435
    9DOPE   H4Y 1120   8.288   5.693  12.621 -0.3150  1.8013  3.3126
    9DOPE   C35 1121   8.288   5.851  12.474 -0.5324  0.0456 -0.1168
    9DOPE   H5X 1122   8.366   5.916  12.428  2.2994 -1.7028  1.8334
    9DOPE   H5Y 1123   8.221   5.911  12.539  0.9301 -1.7893  3.3851
    9DOPE   C36 1124   8.206   5.771  12.373 -0.1465 -0.4187 -0.4128
    9DOPE   H6X 1125   8.262   5.696  12.313  1.2138  0.2144  0.0232
    9DOPE   H6Y 1126   8.168   5.850  12.304 -1.5049 -0.5786  0.1157
    9DOPE   C37 1127   8.086   5.700  12.441  0.2278 -0.7047  0.1861
    9DOPE   H7X 1128   8.131   5.622  12.506 -1.1436 -1.8564 -0.1798
    9DOPE   H7Y 1129   8.037   5.781  12.499 -0.5421  0.8130 -2.4028
    9DOPE   C38 1130   7.987   5.637  12.339 -0.2350 -0.5397 -0.5490
    9DOPE   H8X 1131   8.043   5.578  12.263  1.2851  2.1762 -1.6919
    9DOPE   H8Y 1132   7.940   5.715  12.275  1.6090  1.5245  0.4734
    9DOPE   C39 1133   7.895   5.548  12.416 -0.7340 -0.3765 -0.3721
    9DOPE   H9X 1134   7.952   5.496  12.494 -0.6207  0.9745  0.4872
    9DOPE  C310 1135   7.762   5.535  12.418  0.0713 -0.1160  0.3839
    9DOPE  H10X 1136   7.725   5.451  12.478  1.5098 -0.8793  0.2390
    9DOPE  C311 1137   7.666   5.602  12.322 -0.2188  0.6283  0.0964
    9DOPE  H11X 1138   7.713   5.661  12.240 -3.1000 -0.3911 -2.4780
    9DOPE  H11Y 1139   7.611   5.525  12.265  0.2910  0.7264 -0.5360
    9DOPE  C312 1140   7.566   5.696  12.402 -0.6035  0.2604 -0.0698
    9DOPE  H12X 1141   7.609   5.798  12.410  0.4604 -0.0912 -1.1301
    9DOPE  H12Y 1142   7.547   5.643  12.498 -0.5803  1.2378  0.4811
    9DOPE  C313 1143   7.433   5.702  12.335  0.6280  0.2248 -0.0384
    9DOPE  H13X 1144   7.381   5.606  12.353 -1.8216  1.0812 -1.9134
    9DOPE  H13Y 1145   7.367   5.781  12.376 -1.0158 -1.1318  0.0025
    9DOPE  C314 1146   7.428   5.738  12.186  0.1635 -1.1650  0.7173
    9DOPE  H14X 1147   7.327   5.746  12.141  0.2713  1.0443  0.7637
    9DOPE  H14Y 1148   7.481   5.659  12.129  0.0819 -2.3149  2.1843
    9DOPE  C315 1149   7.493   5.876  12.157  0.3383  0.4693 -0.7635
    9DOPE  H15X 1150   7.580   5.886  12.225 -0.8843  1.1268  0.7594
    9DOPE  H15Y 1151   7.412   5.944  12.192 -0.8159 -1.7764  1.1447
    9DOPE  C316 1152   7.519   5.916  12.014  0.2322 -0.1760  0.4822
    9DOPE  H16X 1153   7.419   5.888  11.973  0.3251 -0.8904  0.7316
    9DOPE  H16Y 1154   7.587   5.843  11.966  0.0469 -0.9271  1.3214
    9DOPE  C317 1155   7.557   6.060  11.990 -0.0828 -0.1141  0.3503
    9DOPE  H17X 1156   7.513   6.133  12.061  0.6929 -2.7955  3.9073
    9DOPE  H17Y 1157   7.666   6.075  12.008 -0.1424  0.1048  0.5425
    9DOPE  C318 1158   7.531   6.104  11.851 -0.4885  0.0670  0.9152
    9DOPE  H18X 1159   7.428   6.070  11.827 -0.5541 -0.2545  1.6492
    9DOPE  H18Y 1160   7.522   6.214  11.866  0.9416 -0.0598  3.1079
    9DOPE  H18Z 1161   7.611   6.069  11.783  0.3905  0.7046  1.6057
   10DOPE     N 1162   8.272   8.159  13.200  0.1449 -0.0310 -0.5140
   10DOPE   HN1 1163   8.314   8.202  13.285 -0.5004 -2.2429  1.0355
   10DOPE   HN2 1164   8.222   8.077  13.240  1.7480 -0.1320  1.4686
   10DOPE   HN3 1165   8.349   8.110  13.150  0.4716 -1.5909  1.3598
   10DOPE   C12 1166   8.187   8.244  13.111 -0.1683 -1.1561 -0.0500
   10DOPE  H12A 1167   8.261   8.309  13.060  0.2097 -0.9878  0.7109
   10DOPE  H12B 1168   8.124   8.308  13.176  0.2341  0.0685 -0.8225
   10DOPE   C11 1169   8.112   8.158  13.011 -0.0885  0.0407 -0.6578
   10DOPE  H11A 1170   8.193   8.100  12.963  0.3109 -0.8171  0.9691
   10DOPE  H11B 1171   8.059   8.222  12.937 -1.8272 -0.2069  0.3102
   10DOPE     P 1172   8.044   7.908  13.074  0.3949  0.3065 -0.6459
   10DOPE   O13 1173   7.920   7.829  13.100 -0.1008  0.0787 -0.1191
   10DOPE   O14 1174   8.156   7.883  13.165  0.4054  0.5269 -0.4932
   10DOPE   O11 1175   8.091   7.866  12.927  0.3475  0.1422  0.7312
   10DOPE   O12 1176   8.017   8.068  13.075  0.1820  0.0276 -0.3364
   10DOPE    C1 1177   8.016   7.920  12.814 -0.3311 -0.4654  0.5408
   10DOPE    HA 1178   8.097   7.955  12.747 -0.8637  2.0826  1.1473
   10DOPE    HB 1179   7.961   8.014  12.834 -0.5325 -0.0434 -1.7046
   10DOPE    C2 1180   7.926   7.814  12.741 -0.6302  0.8788 -0.5815
   10DOPE    HS 1181   7.858   7.772  12.818 -0.0016  0.4978 -0.2214
   10DOPE   O21 1182   8.023   7.718  12.696 -0.7510 -0.2466  0.5128
   10DOPE   C21 1183   7.976   7.596  12.689  0.3286 -0.5183 -0.4391
   10DOPE   O22 1184   7.865   7.561  12.722 -0.1219 -0.3072 -0.2291
   10DOPE   C22 1185   8.086   7.502  12.649 -0.3842 -0.4573  0.2830
   10DOPE   H2R 1186   8.023   7.410  12.647 -3.0382  1.2654 -0.3296
   10DOPE   H2S 1187   8.157   7.498  12.734  1.0192 -0.0632 -0.8286
   10DOPE    C3 1188   7.860   7.875  12.619  0.9503  0.7230 -0.1819
   10DOPE    HX 1189   7.941   7.908  12.551  0.3954  0.4874 -0.9840
   10DOPE    HY 1190   7.797   7.960  12.654 -0.8300 -0.3256 -0.7069
   10DOPE   O31 1191   7.777   7.782  12.549  0.1384 -0.4967 -0.2336
   10DOPE   C31 1192   7.663   7.751  12.601 -0.0991  0.0125 -0.4206
   10DOPE   O32 1193   7.618   7.797  12.705 -0.3857 -0.4577 -0.4934
   10DOPE   C32 1194   7.612   7.639  12.521  0.0057  0.2313 -0.3031
   10DOPE   H2X 1195   7.607   7.658  12.412  2.3620 -0.6641 -0.6172
   10DOPE   H2Y 1196   7.676   7.551  12.543  0.5592 -0.0739 -2.8640
   10DOPE   C23 1197   8.156   7.541  12.514 -0.5101  0.4094 -0.7928
   10DOPE   H3R 1198   8.242   7.473  12.504 -1.6238 -1.7686  2.5667
   10DOPE   H3S 1199   8.186   7.647  12.531 -1.4927  0.3085  2.3111
   10DOPE   C24 1200   8.067   7.531  12.392 -0.0352  0.5282  0.8065
   10DOPE   H4R 1201   7.992   7.614  12.397 -0.1240  0.5293 -0.2943
   10DOPE   H4S 1202   8.026   7.428  12.385  0.2464  0.3271  1.9820
   10DOPE   C25 1203   8.145   7.558  12.265 -0.3265 -0.4594  0.4689
   10DOPE   H5R 1204   8.232   7.491  12.247  0.7014  1.5590 -2.8847
   10DOPE   H5S 1205   8.184   7.660  12.285 -2.3634  0.5621 -0.4900
   10DOPE   C26 1206   8.059   7.577  12.139  0.5624 -0.4888 -0.5131
   10DOPE   H6R 1207   8.120   7.623  12.058  1.2783 -0.4805  0.0221
   10DOPE   H6S 1208   7.967   7.634  12.163  2.6407  2.1160  1.9092
   10DOPE   C27 1209   8.008   7.436  12.096  0.0530 -0.3907  0.2510
   10DOPE   H7R 1210   7.987   7.366  12.180  1.4995  0.8401  1.7004
   10DOPE   H7S 1211   8.092   7.390  12.040 -1.6282 -1.7139 -1.3047
   10DOPE   C28 1212   7.882   7.434  12.011  0.0485  0.6740  0.1298
   10DOPE   H8R 1213   7.854   7.332  11.977 -2.4062  1.3976 -0.2273
   10DOPE   H8S 1214   7.914   7.490  11.921  0.3250 -0.8536 -0.7672
   10DOPE   C29 1215   7.759   7.497  12.068  0.1767  0.4273 -0.4171
   10DOPE   H9R 1216   7.778   7.528  12.172 -0.3193  1.1395 -0.5306
   10DOPE  C210 1217   7.658   7.555  11.998  0.4106  0.1165 -0.3702
   10DOPE  H10R 1218   7.567   7.594  12.047 -0.2212 -1.4896 -0.1880
   10DOPE  C211 1219   7.634   7.545  11.848 -0.0618  0.2598 -0.8768
   10DOPE  H11R 1220   7.723   7.503  11.797  0.9773 -0.3341  1.3064
   10DOPE  H11S 1221   7.627   7.652  11.819  0.7653  1.0043  1.4653
   10DOPE  C212 1222   7.511   7.454  11.808  0.1060 -0.1850  0.6963
   10DOPE  H12R 1223   7.413   7.479  11.854 -0.4597 -1.6693  0.3779
   10DOPE  H12S 1224   7.527   7.351  11.848 -0.5236 -0.9654 -0.9485
   10DOPE  C213 1225   7.498   7.447  11.649  0.2824 -0.5422  0.3532
   10DOPE  H13R 1226   7.498   7.546  11.598  3.3202 -0.1641  0.8697
   10DOPE  H13S 1227   7.393   7.410  11.644  0.7451 -2.1103  1.3794
   10DOPE  C214 1228   7.597   7.355  11.573  1.0588 -0.7722 -0.1143
   10DOPE  H14R 1229   7.701   7.369  11.611  0.8842 -1.3039  0.5757
   10DOPE  H14S 1230   7.583   7.380  11.466 -1.3938 -0.4088  0.2450
   10DOPE  C215 1231   7.562   7.211  11.585  0.4253 -0.2676 -0.1578
   10DOPE  H15R 1232   7.458   7.198  11.548  1.2485 -3.1181 -1.7863
   10DOPE  H15S 1233   7.577   7.180  11.691  2.3280 -0.5131 -0.4679
   10DOPE  C216 1234   7.652   7.116  11.505 -0.3910 -0.0753 -0.3449
   10DOPE  H16R 1235   7.738   7.180  11.475 -1.5095  1.8011  0.3301
   10DOPE  H16S 1236   7.603   7.073  11.415 -0.6735 -3.3289  1.2360
   10DOPE  C217 1237   7.708   6.996  11.574 -0.2056  0.1824  0.2273
   10DOPE  H17R 1238   7.627   6.932  11.616 -1.0444  1.6831  0.9745
   10DOPE  H17S 1239   7.765   7.043  11.657 -0.4186 -1.4593  1.3699
   10DOPE  C218 1240   7.809   6.915  11.495  1.1558 -0.0965 -0.6517
   10DOPE  H18R 1241   7.854   6.836  11.558  2.9527 -0.4377 -2.2982
   10DOPE  H18S 1242   7.894   6.977  11.460  1.4844  0.0877  0.4376
   10DOPE  H18T 1243   7.761   6.877  11.402  2.5790  0.6492 -1.7256
   10DOPE   C33 1244   7.465   7.596  12.570  0.5381 -0.1388  0.5434
   10DOPE   H3X 1245   7.388   7.676  12.562  0.4977 -0.3190 -1.2091
   10DOPE   H3Y 1246   7.477   7.558  12.674 -1.3494  1.6242  1.4727
   10DOPE   C34 1247   7.420   7.471  12.488  0.2168  0.1277 -0.1854
   10DOPE   H4X 1248   7.490   7.385  12.483 -0.6208 -0.5287 -0.9724
   10DOPE   H4Y 1249   7.317   7.450  12.525  0.3850  2.9817  2.2891
   10DOPE   C35 1250   7.392   7.502  12.335 -0.0219  0.0900 -0.2645
   10DOPE   H5X 1251   7.493   7.492  12.291  0.1933  0.2333  0.1875
   10DOPE   H5Y 1252   7.353   7.606  12.325 -0.3961  0.0334  0.5065
   10DOPE   C36 1253   7.305   7.392  12.275 -0.1332  0.0927  0.2884
   10DOPE   H6X 1254   7.209   7.396  12.330  0.3891  1.4309  1.1521
   10DOPE   H6Y 1255   7.344   7.291  12.301  0.1254  0.3993  1.0951
   10DOPE   C37 1256   7.288   7.420  12.127  0.2129 -0.4894  0.4056
   10DOPE   H7X 1257   7.255   7.526  12.117  0.8974 -0.1054  1.9313
   10DOPE   H7Y 1258   7.385   7.410  12.074  0.0365 -1.3320  0.2259
   10DOPE   C38 1259   7.187   7.332  12.048 -0.1063  0.3681  0.3898
   10DOPE   H8X 1260   7.083   7.363  12.075 -0.5818  0.4148 -1.3478
   10DOPE   H8Y 1261   7.202   7.224  12.070 -1.1691  0.0740 -0.2195
   10DOPE   C39 1262   7.195   7.337  11.898 -0.4509 -0.2334  0.1051
   10DOPE   H9X 1263   7.271   7.272  11.854  2.8060  2.1429  1.7782
   10DOPE  C310 1264   7.124   7.416  11.810  0.1806 -0.2758 -0.3270
   10DOPE  H10X 1265   7.145   7.407  11.703  0.1785 -2.2651 -0.2042
   10DOPE  C311 1266   7.020   7.521  11.840 -1.0431  0.0379 -0.1442
   10DOPE  H11X 1267   6.916   7.480  11.838 -0.2989 -2.0270  0.8605
   10DOPE  H11Y 1268   7.018   7.557  11.945 -0.3692  1.6162 -0.6397
   10DOPE  C312 1269   7.037   7.642  11.742  0.1476 -0.0316 -0.2964
   10DOPE  H12X 1270   7.033   7.612  11.635  1.6037 -0.5309 -0.2322
   10DOPE  H12Y 1271   7.144   7.668  11.753 -0.1189  0.6034  0.9527
   10DOPE  C313 1272   6.941   7.763  11.765  0.1493  0.2343 -0.1150
   10DOPE  H13X 1273   6.839   7.744  11.725 -0.3305 -0.6958  1.4629
   10DOPE  H13Y 1274   6.936   7.778  11.875  1.5687  0.0932 -0.0125
   10DOPE  C314 1275   6.988   7.896  11.708 -0.0309  0.5515 -0.0293
   10DOPE  H14X 1276   7.053   7.897  11.619 -0.1077 -0.7418 -0.1215
   10DOPE  H14Y 1277   7.055   7.940  11.784  0.3818  0.9130 -0.5972
   10DOPE  C315 1278   6.868   7.985  11.677 -0.0532  1.6989  0.0633
   10DOPE  H15X 1279   6.774   7.977  11.735 -0.6282  1.9092 -0.8218
   10DOPE  H15Y 1280   6.843   7.934  11.582  0.1151  1.3444  0.2078
   10DOPE  C316 1281   6.898   8.126  11.646 -0.0901 -0.1313 -0.1737
   10DOPE  H16X 1282   6.978   8.139  11.570 -1.0163  1.0914 -0.9674
   10DOPE  H16Y 1283   6.906   8.175  11.746  2.5832  2.0314 -1.3212
   10DOPE  C317 1284   6.772   8.189  11.585 -0.3630 -0.3108  0.1281
   10DOPE  H17X 1285   6.749   8.138  11.489  2.4063 -1.1962 -0.1666
   10DOPE  H17Y 1286   6.694   8.178  11.663  0.6988 -0.4217  1.2097
   10DOPE  C318 1287   6.785   8.338  11.552 -0.6442 -0.3821  0.1425
   10DOPE  H18X 1288   6.785   8.397  11.646  0.7207 -1.5557  0.9155
   10DOPE  H18Y 1289   6.877   8.348  11.490 -1.1187 -2.6665 -1.0330
   10DOPE  H18Z 1290   6.699   8.367  11.488 -0.8061 -2.2342 -0.5318
   11DOPE     N 1291   0.826   3.128  12.829 -0.2738 -0.3747  0.3552
   11DOPE   HN1 1292   0.930   3.123  12.829 -0.0078  2.8528  0.0959
   11DOPE   HN2 1293   0.794   3.035  12.794  1.7815 -0.5241 -1.3589
   11DOPE   HN3 1294   0.797   3.201  12.760 -0.3021  0.2785  1.0490
   11DOPE   C12 1295   0.775   3.165  12.963  0.1578  0.4253  0.3870
   11DOPE  H12A 1296   0.670   3.198  12.945  0.0269  0.8833  1.8609
   11DOPE  H12B 1297   0.835   3.251  12.999 -1.2921  1.1892  1.0807
   11DOPE   C11 1298   0.773   3.045  13.067  0.8047 -0.4878 -0.1301
   11DOPE  H11A 1299   0.705   3.075  13.149  2.9807 -0.8490  1.8785
   11DOPE  H11B 1300   0.875   3.030  13.107  0.6018 -0.1964  0.5065
   11DOPE     P 1301   0.568   2.883  12.998 -0.3920 -0.0180  0.2836
   11DOPE   O13 1302   0.511   2.836  13.128  0.1331  0.0126  0.5194
   11DOPE   O14 1303   0.551   2.792  12.886 -0.0995  0.3525  0.5025
   11DOPE   O11 1304   0.495   3.017  12.957  0.0986 -0.5860  0.6219
   11DOPE   O12 1305   0.722   2.926  13.005  0.0071  0.4163 -0.6313
   11DOPE    C1 1306   0.393   3.018  12.850 -0.5039 -0.0589  0.2355
   11DOPE    HA 1307   0.293   3.010  12.898 -0.8147  1.2556 -0.1528
   11DOPE    HB 1308   0.399   2.932  12.779  0.5577 -1.0191  1.4392
   11DOPE    C2 1309   0.402   3.147  12.763  0.1631 -0.2955 -0.8112
   11DOPE    HS 1310   0.502   3.151  12.716 -0.0203  0.1225 -1.1767
   11DOPE   O21 1311   0.377   3.258  12.848  0.1429  0.0325  0.0144
   11DOPE   C21 1312   0.431   3.374  12.811  0.0751 -0.0525  0.6093
   11DOPE   O22 1313   0.504   3.399  12.720  0.5596 -0.6482 -0.2650
   11DOPE   C22 1314   0.374   3.483  12.898  0.0170  0.4984 -0.0265
   11DOPE   H2R 1315   0.439   3.497  12.986 -1.5179  0.7818  1.1009
   11DOPE   H2S 1316   0.277   3.446  12.939 -1.3977  0.7197 -2.8916
   11DOPE    C3 1317   0.289   3.140  12.657  0.3559 -0.0850 -0.1694
   11DOPE    HX 1318   0.298   3.227  12.589  1.3730  0.3195  0.4666
   11DOPE    HY 1319   0.190   3.144  12.707 -0.5730 -1.7015 -1.7504
   11DOPE   O31 1320   0.295   3.014  12.587  0.3746  0.1975 -0.1422
   11DOPE   C31 1321   0.367   3.016  12.475  0.5616  0.1425 -0.3286
   11DOPE   O32 1322   0.447   3.105  12.445 -0.0057 -0.4118 -0.1528
   11DOPE   C32 1323   0.323   2.894  12.390 -0.7859 -0.2525  0.2314
   11DOPE   H2X 1324   0.420   2.848  12.361  0.3254  1.5340  0.9989
   11DOPE   H2Y 1325   0.277   2.827  12.465  3.6954 -0.7426  2.8833
   11DOPE   C23 1326   0.342   3.612  12.827 -0.2351 -0.4949  0.1915
   11DOPE   H3R 1327   0.431   3.623  12.762 -0.0950 -2.9461 -0.1400
   11DOPE   H3S 1328   0.344   3.700  12.895  1.6425  0.6904 -1.2803
   11DOPE   C24 1329   0.205   3.609  12.746 -0.5081 -0.2902 -0.7282
   11DOPE   H4R 1330   0.129   3.645  12.819  1.2651 -1.0580  1.6131
   11DOPE   H4S 1331   0.182   3.504  12.717  0.8861 -0.5032 -1.1443
   11DOPE   C25 1332   0.196   3.696  12.619  0.0783  0.3259  0.2539
   11DOPE   H5R 1333   0.258   3.661  12.534  1.0730  1.1053  0.6489
   11DOPE   H5S 1334   0.223   3.801  12.640  0.9271 -0.0711  1.1872
   11DOPE   C26 1335   0.048   3.707  12.566 -0.1398  0.3296  0.4894
   11DOPE   H6R 1336  -0.014   3.769  12.634 -0.5575 -0.2521  0.6516
   11DOPE   H6S 1337   0.015   3.601  12.571 -0.8318  0.4119 -1.6356
   11DOPE   C27 1338   0.037   3.765  12.422 -0.0085  0.1465 -0.2665
   11DOPE   H7R 1339   0.111   3.716  12.355  1.1453 -0.4704  1.3925
   11DOPE   H7S 1340   0.050   3.876  12.426  0.7256  0.0958 -1.0912
   11DOPE   C28 1341  -0.105   3.736  12.365 -0.1639 -0.0523  0.9473
   11DOPE   H8R 1342  -0.173   3.811  12.411  0.1036  1.3772 -0.8423
   11DOPE   H8S 1343  -0.134   3.632  12.389 -0.7977 -0.6638 -2.1312
   11DOPE   C29 1344  -0.102   3.760  12.214  0.1989 -0.0991  0.1636
   11DOPE   H9R 1345  -0.041   3.844  12.177 -1.2451 -0.2217 -2.7623
   11DOPE  C210 1346  -0.157   3.673  12.119 -0.7819 -0.3226 -0.2734
   11DOPE  H10R 1347  -0.130   3.694  12.015 -0.5118 -0.1702 -0.1749
   11DOPE  C211 1348  -0.238   3.549  12.153  0.5587 -0.1740 -0.6662
   11DOPE  H11R 1349  -0.234   3.512  12.257  0.2706 -0.8228 -0.8808
   11DOPE  H11S 1350  -0.190   3.471  12.090  1.0515 -0.4167 -0.0046
   11DOPE  C212 1351  -0.383   3.572  12.103  0.1107  0.4883  0.1837
   11DOPE  H12R 1352  -0.381   3.621  12.004 -2.9053  0.0162 -0.2052
   11DOPE  H12S 1353  -0.439   3.647  12.163  0.1167  0.5935  0.0552
   11DOPE  C213 1354  -0.451   3.440  12.073 -0.1062 -0.0269  0.2698
   11DOPE  H13R 1355  -0.381   3.396  12.000 -0.2714 -0.7129  0.5248
   11DOPE  H13S 1356  -0.553   3.441  12.028 -0.9638 -0.2374  2.0970
   11DOPE  C214 1357  -0.448   3.339  12.190 -0.6342 -0.0015 -0.1029
   11DOPE  H14R 1358  -0.487   3.371  12.289  2.6297 -0.4931  1.4722
   11DOPE  H14S 1359  -0.342   3.312  12.210 -0.2967  2.0046  1.0795
   11DOPE  C215 1360  -0.524   3.208  12.156 -0.1136  0.9064  0.2482
   11DOPE  H15R 1361  -0.512   3.130  12.233  2.0573 -0.6035 -1.5067
   11DOPE  H15S 1362  -0.489   3.170  12.058 -0.5594 -2.1694  1.1980
   11DOPE  C216 1363  -0.671   3.234  12.140 -0.0104  0.6625 -0.8109
   11DOPE  H16R 1364  -0.672   3.276  12.037  1.3529  1.3881 -0.5549
   11DOPE  H16S 1365  -0.720   3.303  12.212 -0.0296  0.7402 -0.8987
   11DOPE  C217 1366  -0.761   3.110  12.160  1.0799 -0.4125 -0.2885
   11DOPE  H17R 1367  -0.708   3.023  12.116 -0.6026 -2.5731  1.6674
   11DOPE  H17S 1368  -0.865   3.118  12.121  0.2651  0.2002  1.8608
   11DOPE  C218 1369  -0.780   3.085  12.315  0.7853  0.1915 -0.0083
   11DOPE  H18R 1370  -0.789   2.980  12.349  1.0241  0.5690  1.2726
   11DOPE  H18S 1371  -0.854   3.150  12.365 -0.5542 -0.0708 -1.5369
   11DOPE  H18T 1372  -0.693   3.126  12.370 -0.8241  1.1849  1.8966
   11DOPE   C33 1373   0.249   2.935  12.259  0.7363  0.1435  0.6113
   11DOPE   H3X 1374   0.156   2.993  12.280  1.4942  1.0886  1.4424
   11DOPE   H3Y 1375   0.214   2.837  12.220  1.1903  0.2403 -0.0491
   11DOPE   C34 1376   0.332   3.008  12.148 -0.7333 -0.5756 -0.1653
   11DOPE   H4X 1377   0.372   3.103  12.189  0.9568 -1.6368  0.7941
   11DOPE   H4Y 1378   0.421   2.952  12.111  0.9011  0.9117  1.3257
   11DOPE   C35 1379   0.256   3.062  12.022  0.2945  0.1905  0.4006
   11DOPE   H5X 1380   0.329   3.112  11.956  1.2310 -2.8096 -0.9700
   11DOPE   H5Y 1381   0.185   3.142  12.054 -0.7279 -0.6575  0.3022
   11DOPE   C36 1382   0.188   2.965  11.928 -0.5839 -0.3324 -0.3632
   11DOPE   H6X 1383   0.155   3.027  11.842  1.8005  1.7195  0.0666
   11DOPE   H6Y 1384   0.102   2.915  11.977 -0.5664  0.0372  0.0455
   11DOPE   C37 1385   0.288   2.851  11.891  0.0884  0.0448 -0.1354
   11DOPE   H7X 1386   0.390   2.894  11.878  1.0194 -1.7005  1.0412
   11DOPE   H7Y 1387   0.297   2.781  11.977 -0.2499  0.3218  0.1286
   11DOPE   C38 1388   0.261   2.776  11.760  0.4409 -0.0861  0.6794
   11DOPE   H8X 1389   0.339   2.698  11.757  1.4077  0.8824 -0.9189
   11DOPE   H8Y 1390   0.286   2.838  11.671 -1.5262 -0.5475 -0.2617
   11DOPE   C39 1391   0.116   2.730  11.737 -0.1309  0.4140  0.0625
   11DOPE   H9X 1392   0.060   2.801  11.673  0.1151  1.7934  1.3157
   11DOPE  C310 1393   0.052   2.617  11.772 -0.3509 -0.1367 -0.0762
   11DOPE  H10X 1394  -0.051   2.605  11.734 -0.1112  1.4256 -1.3567
   11DOPE  C311 1395   0.115   2.512  11.867 -0.5893  0.0221 -0.1283
   11DOPE  H11X 1396   0.193   2.556  11.933 -0.0397  1.2009 -1.5172
   11DOPE  H11Y 1397   0.039   2.476  11.940  1.1267 -0.2378  1.6178
   11DOPE  C312 1398   0.170   2.397  11.779 -0.4200 -0.2253 -0.3873
   11DOPE  H12X 1399   0.231   2.333  11.846 -1.9487  0.7901  2.1485
   11DOPE  H12Y 1400   0.231   2.438  11.696  0.7562 -0.5143  0.3151
   11DOPE  C313 1401   0.061   2.323  11.709  0.7144 -0.6258 -0.2202
   11DOPE  H13X 1402  -0.016   2.305  11.787  0.3538  2.0210  0.1123
   11DOPE  H13Y 1403   0.024   2.395  11.633  1.8435 -1.6919 -1.8595
   11DOPE  C314 1404   0.107   2.185  11.653 -0.1682 -0.6033  0.3122
   11DOPE  H14X 1405   0.176   2.128  11.719  0.9173  1.6357  1.2476
   11DOPE  H14Y 1406   0.158   2.198  11.555  0.8840  0.1049  0.9251
   11DOPE  C315 1407  -0.015   2.088  11.626 -0.1123  0.6524  0.0211
   11DOPE  H15X 1408  -0.063   2.082  11.725 -0.9051 -0.4980 -0.4100
   11DOPE  H15Y 1409   0.018   1.986  11.598 -0.6477 -0.0435  1.7847
   11DOPE  C316 1410  -0.110   2.139  11.522  0.5111  0.2842  0.4623
   11DOPE  H16X 1411  -0.056   2.190  11.439 -2.2343  1.7082 -0.5672
   11DOPE  H16Y 1412  -0.184   2.210  11.564 -0.4046 -1.1134  1.2702
   11DOPE  C317 1413  -0.188   2.027  11.453 -0.0821 -0.5576  0.4081
   11DOPE  H17X 1414  -0.264   2.065  11.383 -0.4366  0.6259  1.3878
   11DOPE  H17Y 1415  -0.119   1.962  11.396  1.8029  0.1200  1.8008
   11DOPE  C318 1416  -0.270   1.937  11.547  0.3890  0.0463 -0.4315
   11DOPE  H18X 1417  -0.315   1.851  11.493 -1.0860  2.0370 -2.5788
   11DOPE  H18Y 1418  -0.206   1.904  11.632 -0.2703 -1.4920 -0.4952
   11DOPE  H18Z 1419  -0.351   2.000  11.589  3.5039  2.8085  1.9379
   12DOPE     N 1420   3.054   7.124  13.044  0.0454  0.4976  0.2244
   12DOPE   HN1 1421   3.084   7.161  13.136  0.0248  0.3694  0.2820
   12DOPE   HN2 1422   3.126   7.061  13.003 -0.2670  0.4908 -0.3261
   12DOPE   HN3 1423   3.046   7.208  12.983 -0.7575 -1.0123 -1.8577
   12DOPE   C12 1424   2.923   7.061  13.056 -0.1472 -0.6652  0.8767
   12DOPE  H12A 1425   2.914   7.007  13.152  0.2249 -2.3340  0.0221
   12DOPE  H12B 1426   2.910   6.983  12.977  0.1588 -0.2117  0.3719
   12DOPE   C11 1427   2.812   7.166  13.054 -0.2585  0.3623 -0.1623
   12DOPE  H11A 1428   2.708   7.128  13.068  0.4860 -0.5544  3.9580
   12DOPE  H11B 1429   2.819   7.211  12.953  1.1513 -0.4049 -0.4273
   12DOPE     P 1430   2.741   7.406  13.152 -0.3381 -0.1287  0.0575
   12DOPE   O13 1431   2.804   7.527  13.211 -0.0245  0.1389 -0.4518
   12DOPE   O14 1432   2.608   7.364  13.196  0.0269  0.3349 -0.3227
   12DOPE   O11 1433   2.726   7.435  12.994  0.0479 -0.2334  0.1793
   12DOPE   O12 1434   2.842   7.274  13.152  0.0270 -0.2773  0.2594
   12DOPE    C1 1435   2.629   7.538  12.955 -0.3746  0.2513  0.3136
   12DOPE    HA 1436   2.650   7.641  12.991 -1.1443  1.6411 -2.8864
   12DOPE    HB 1437   2.528   7.510  12.994 -0.8343  0.2244 -0.8589
   12DOPE    C2 1438   2.613   7.541  12.797  0.2176 -0.6891 -0.1228
   12DOPE    HS 1439   2.632   7.434  12.774  0.2210 -1.1751  1.9280
   12DOPE   O21 1440   2.696   7.635  12.730 -0.0262  0.1726  0.4331
   12DOPE   C21 1441   2.828   7.611  12.720 -0.8114 -0.3351 -0.3429
   12DOPE   O22 1442   2.881   7.511  12.754  0.0107  0.3418  0.1299
   12DOPE   C22 1443   2.911   7.715  12.653 -0.8485 -0.3056 -0.1378
   12DOPE   H2R 1444   3.014   7.676  12.638  0.3906  1.9437  1.8007
   12DOPE   H2S 1445   2.936   7.793  12.728  0.4155 -0.1510 -0.7030
   12DOPE    C3 1446   2.469   7.562  12.755  0.0801  0.1077  0.9629
   12DOPE    HX 1447   2.437   7.666  12.778  1.5259  0.4429  1.5267
   12DOPE    HY 1448   2.405   7.485  12.802  0.2090 -1.6861 -1.5789
   12DOPE   O31 1449   2.459   7.522  12.616 -0.1727  1.0901 -0.0908
   12DOPE   C31 1450   2.463   7.628  12.532 -0.6877 -0.0991  0.6481
   12DOPE   O32 1451   2.457   7.744  12.558 -0.6504 -0.3328 -0.4110
   12DOPE   C32 1452   2.457   7.581  12.394  0.3995 -0.6262  0.2305
   12DOPE   H2X 1453   2.541   7.626  12.337  1.2362 -0.9483  1.1778
   12DOPE   H2Y 1454   2.469   7.470  12.387  1.0042 -0.5672  0.2753
   12DOPE   C23 1455   2.850   7.775  12.525 -0.1253  0.6686 -0.0740
   12DOPE   H3R 1456   2.910   7.867  12.509 -0.2981  0.7390 -0.3326
   12DOPE   H3S 1457   2.746   7.808  12.549 -0.3810 -1.2818  1.8402
   12DOPE   C24 1458   2.846   7.688  12.392  0.4126  0.4437 -0.2116
   12DOPE   H4R 1459   2.778   7.601  12.403  0.1347  0.4835 -1.4927
   12DOPE   H4S 1460   2.948   7.645  12.377  1.3270  1.7032  1.8397
   12DOPE   C25 1461   2.820   7.763  12.262  0.1815 -0.6195  0.0723
   12DOPE   H5R 1462   2.892   7.847  12.254 -0.4355  0.0960  1.6967
   12DOPE   H5S 1463   2.720   7.810  12.273  0.4400  0.0122 -0.2638
   12DOPE   C26 1464   2.827   7.672  12.134  0.6119 -0.1686 -0.3294
   12DOPE   H6R 1465   2.796   7.733  12.046 -2.1981  0.5889  1.0720
   12DOPE   H6S 1466   2.754   7.590  12.147  0.7145 -0.1279  0.5122
   12DOPE   C27 1467   2.966   7.610  12.098 -0.7000  0.1437 -0.2611
   12DOPE   H7R 1468   2.990   7.534  12.174  1.7491 -0.2839 -1.3783
   12DOPE   H7S 1469   3.039   7.693  12.089 -0.9427  0.5669  1.3553
   12DOPE   C28 1470   2.950   7.535  11.969  0.2155  0.2806 -0.0030
   12DOPE   H8R 1471   2.906   7.603  11.894 -1.3819 -1.5548 -0.8410
   12DOPE   H8S 1472   2.871   7.460  11.991  0.8752 -0.8068 -1.2066
   12DOPE   C29 1473   3.076   7.458  11.924  0.3379  0.2650 -0.3451
   12DOPE   H9R 1474   3.156   7.516  11.877  0.0289  0.6001 -0.4585
   12DOPE  C210 1475   3.087   7.322  11.917 -0.8717 -0.3702  0.1663
   12DOPE  H10R 1476   3.180   7.286  11.871 -0.9022  0.5465 -0.6603
   12DOPE  C211 1477   2.989   7.225  11.970 -0.5594 -0.1599 -0.0994
   12DOPE  H11R 1478   2.922   7.177  11.895 -0.5168  0.5428 -0.5985
   12DOPE  H11S 1479   2.924   7.265  12.050 -1.3485  0.9670 -1.2584
   12DOPE  C212 1480   3.072   7.111  12.028  0.1225 -0.8297  0.7329
   12DOPE  H12R 1481   3.136   7.152  12.109 -0.6376  4.1287 -0.8484
   12DOPE  H12S 1482   3.141   7.075  11.949 -1.6269 -1.8245 -0.4142
   12DOPE  C213 1483   2.985   6.994  12.080  0.1838 -0.3776  0.9335
   12DOPE  H13R 1484   2.933   6.951  11.992 -0.4535 -0.1896  1.2151
   12DOPE  H13S 1485   2.911   7.032  12.153 -0.1409 -1.5198  1.2049
   12DOPE  C214 1486   3.068   6.886  12.150  0.0033  0.0908 -0.0904
   12DOPE  H14R 1487   3.147   6.942  12.204 -0.7592 -0.9093  2.1902
   12DOPE  H14S 1488   3.113   6.810  12.083  0.3251 -0.2930  0.5449
   12DOPE  C215 1489   3.000   6.806  12.263 -0.4395 -0.0641 -0.2273
   12DOPE  H15R 1490   2.986   6.865  12.356  3.8526 -1.4245  1.5144
   12DOPE  H15S 1491   3.062   6.724  12.304  0.5893  1.4230  1.3506
   12DOPE  C216 1492   2.858   6.753  12.220  0.5311 -0.3948  0.3002
   12DOPE  H16R 1493   2.864   6.702  12.121  1.1413  3.1414 -1.6265
   12DOPE  H16S 1494   2.792   6.838  12.194  2.8911  1.5007  0.2524
   12DOPE  C217 1495   2.801   6.663  12.335 -0.4673  0.0576  0.1477
   12DOPE  H17R 1496   2.697   6.636  12.305 -0.2970 -1.2853  0.7041
   12DOPE  H17S 1497   2.788   6.730  12.422  0.6444 -0.1198  0.4616
   12DOPE  C218 1498   2.871   6.532  12.375 -0.1367 -0.1003  0.5002
   12DOPE  H18R 1499   2.866   6.466  12.286  3.3319  0.5666 -0.3299
   12DOPE  H18S 1500   2.827   6.471  12.457 -1.6930 -3.1309 -2.3540
   12DOPE  H18T 1501   2.980   6.547  12.393  0.0308 -1.1884  0.4570
   12DOPE   C33 1502   2.324   7.626  12.322 -0.0188 -0.0235 -0.0000
   12DOPE   H3X 1503   2.310   7.736  12.315 -0.3398 -0.0178  0.6471
   12DOPE   H3Y 1504   2.236   7.587  12.377 -1.5185  2.0430 -0.8183
   12DOPE   C34 1505   2.308   7.562  12.185 -0.6789 -0.7590  0.1704
   12DOPE   H4X 1506   2.321   7.452  12.190 -2.1171 -0.9827 -0.4447
   12DOPE   H4Y 1507   2.202   7.584  12.159 -1.0815 -1.0371  1.4672
   12DOPE   C35 1508   2.413   7.605  12.085 -0.3851  0.0325 -0.0788
   12DOPE   H5X 1509   2.515   7.614  12.128 -1.2390  1.1826  1.8186
   12DOPE   H5Y 1510   2.383   7.709  12.062 -1.6810  0.3604  2.6900
   12DOPE   C36 1511   2.425   7.511  11.965 -0.0532 -0.3035  0.0108
   12DOPE   H6X 1512   2.487   7.570  11.895  0.0846  1.0970  1.2652
   12DOPE   H6Y 1513   2.327   7.486  11.918 -0.5917  0.8129  0.5060
   12DOPE   C37 1514   2.501   7.380  11.999  0.6331  0.1780 -0.0493
   12DOPE   H7X 1515   2.600   7.412  12.037  1.4865 -0.6974 -1.4591
   12DOPE   H7Y 1516   2.443   7.325  12.076 -0.6120 -0.1984 -1.2132
   12DOPE   C38 1517   2.543   7.291  11.878 -0.0852 -1.0623  0.4441
   12DOPE   H8X 1518   2.614   7.213  11.913  1.3367  1.4744  3.7793
   12DOPE   H8Y 1519   2.600   7.339  11.796  0.7023 -1.1302  0.9465
   12DOPE   C39 1520   2.429   7.222  11.807  0.0731 -0.4352 -0.2867
   12DOPE   H9X 1521   2.377   7.281  11.731 -0.7183 -0.7799 -0.0231
   12DOPE  C310 1522   2.374   7.106  11.850  0.0556  0.8811  0.7078
   12DOPE  H10X 1523   2.294   7.057  11.791  0.2836  2.0649 -0.6333
   12DOPE  C311 1524   2.424   7.012  11.952  0.1240 -0.1648  0.0092
   12DOPE  H11X 1525   2.523   7.050  11.987  0.1555 -0.0210 -0.2334
   12DOPE  H11Y 1526   2.361   7.001  12.043  0.1084  0.4524  0.0779
   12DOPE  C312 1527   2.445   6.874  11.883 -0.1834 -0.9909  0.1517
   12DOPE  H12X 1528   2.350   6.834  11.843 -0.5608 -0.7125  0.7582
   12DOPE  H12Y 1529   2.477   6.798  11.957  1.1548 -0.2012  0.4169
   12DOPE  C313 1530   2.556   6.882  11.777 -0.4139  0.0291  0.0243
   12DOPE  H13X 1531   2.530   6.962  11.704  1.8277  0.4950 -0.3215
   12DOPE  H13Y 1532   2.653   6.909  11.825  0.3214 -1.8822 -0.3168
   12DOPE  C314 1533   2.566   6.750  11.704  0.4025 -0.4268  0.0500
   12DOPE  H14X 1534   2.473   6.715  11.655  1.0265 -0.4122 -1.1808
   12DOPE  H14Y 1535   2.602   6.671  11.774  1.2173  0.5339  0.7297
   12DOPE  C315 1536   2.679   6.747  11.595  0.2942 -0.2570 -0.1250
   12DOPE  H15X 1537   2.671   6.651  11.541 -2.2462  0.8032 -1.7909
   12DOPE  H15Y 1538   2.775   6.750  11.652  0.0914  1.2794  0.1755
   12DOPE  C316 1539   2.685   6.864  11.488 -0.1618  0.0874 -0.4051
   12DOPE  H16X 1540   2.759   6.832  11.411 -0.2004  0.1724 -0.4773
   12DOPE  H16Y 1541   2.720   6.959  11.531  0.7858 -0.8531  0.9571
   12DOPE  C317 1542   2.557   6.894  11.411  0.0822  0.2615  0.3866
   12DOPE  H17X 1543   2.474   6.925  11.478  0.7672  0.4798  1.1341
   12DOPE  H17Y 1544   2.562   6.981  11.341 -1.6014  1.4659  1.6707
   12DOPE  C318 1545   2.501   6.779  11.325 -0.2839  0.1676  0.6131
   12DOPE  H18X 1546   2.579   6.740  11.256 -1.3862  0.3581 -0.7973
   12DOPE  H18Y 1547   2.466   6.697  11.391 -0.8253 -1.3145 -1.3971
   12DOPE  H18Z 1548   2.406   6.807  11.274 -0.2633  0.7757  0.8939
   13DOPE     N 1549   0.914   1.138  13.452  1.0039 -0.2606  0.1654
   13DOPE   HN1 1550   0.827   1.141  13.394 -0.0050 -0.0728  1.6147
   13DOPE   HN2 1551   0.948   1.040  13.455  0.1698 -0.5926 -0.6066
   13DOPE   HN3 1552   0.893   1.181  13.545  4.2075  1.5179  0.2041
   13DOPE   C12 1553   1.017   1.231  13.396  0.0086  0.3817  0.1260
   13DOPE  H12A 1554   1.104   1.234  13.464 -0.2873 -0.9858  0.6041
   13DOPE  H12B 1555   0.978   1.335  13.401  1.2672  0.8344  0.8906
   13DOPE   C11 1556   1.055   1.181  13.253 -0.3393 -1.1881 -0.2944
   13DOPE  H11A 1557   1.085   1.074  13.247 -0.6690 -1.2233 -1.8816
   13DOPE  H11B 1558   1.144   1.244  13.238 -0.3663 -0.8215  0.9847
   13DOPE     P 1559   0.851   1.134  13.107  0.2841  0.1076  0.0260
   13DOPE   O13 1560   0.790   1.078  13.227 -0.3061  0.2900 -0.2350
   13DOPE   O14 1561   0.895   1.033  13.004 -0.0129 -0.6268  0.0833
   13DOPE   O11 1562   0.761   1.236  13.037  0.2109 -0.4720 -0.5000
   13DOPE   O12 1563   0.971   1.223  13.153 -0.1724  0.4029 -0.0108
   13DOPE    C1 1564   0.816   1.316  12.934 -0.4476  0.5749 -0.6412
   13DOPE    HA 1565   0.863   1.252  12.856 -0.8429  0.3952 -0.7342
   13DOPE    HB 1566   0.886   1.391  12.975  0.1809 -0.3711  0.0630
   13DOPE    C2 1567   0.708   1.400  12.858 -0.1268  0.8098  0.0967
   13DOPE    HS 1568   0.626   1.425  12.929  0.2600 -2.8573  2.0828
   13DOPE   O21 1569   0.655   1.308  12.754 -0.1802 -0.5242 -0.1326
   13DOPE   C21 1570   0.530   1.338  12.716  0.0775 -0.1618  0.2749
   13DOPE   O22 1571   0.464   1.427  12.768  0.1066 -0.0441  0.0303
   13DOPE   C22 1572   0.497   1.263  12.585  0.0331 -0.4895 -0.6739
   13DOPE   H2R 1573   0.513   1.155  12.599  1.6784  0.0589  2.5911
   13DOPE   H2S 1574   0.569   1.291  12.506 -1.2823  0.2635 -1.6568
   13DOPE    C3 1575   0.766   1.529  12.800  0.2643 -0.1062 -0.2867
   13DOPE    HX 1576   0.848   1.570  12.863  0.7813  0.7973 -1.5146
   13DOPE    HY 1577   0.684   1.604  12.804  1.4772  1.2366  0.7932
   13DOPE   O31 1578   0.821   1.509  12.664  0.7055 -0.4848 -0.6664
   13DOPE   C31 1579   0.749   1.547  12.564 -0.2436 -0.3011  0.7105
   13DOPE   O32 1580   0.632   1.585  12.569 -0.1938 -0.1450  0.3681
   13DOPE   C32 1581   0.834   1.525  12.441 -0.1480 -0.0110  0.4944
   13DOPE   H2X 1582   0.914   1.602  12.445 -1.1570  1.0930 -0.1059
   13DOPE   H2Y 1583   0.873   1.422  12.429 -0.5622 -0.0186 -0.9157
   13DOPE   C23 1584   0.363   1.288  12.514 -0.5449 -0.1761  0.2134
   13DOPE   H3R 1585   0.279   1.295  12.587  0.7681 -0.5134  1.8066
   13DOPE   H3S 1586   0.331   1.198  12.457 -2.2012  1.4740 -1.6283
   13DOPE   C24 1587   0.368   1.414  12.423 -0.2599  0.1557  0.1328
   13DOPE   H4R 1588   0.457   1.400  12.358 -0.4207  3.1884 -0.8983
   13DOPE   H4S 1589   0.382   1.503  12.488  0.6923  0.5865 -0.6303
   13DOPE   C25 1590   0.244   1.439  12.339  0.4364 -0.1642  0.5581
   13DOPE   H5R 1591   0.150   1.426  12.397  0.3542  0.1999  0.5076
   13DOPE   H5S 1592   0.244   1.364  12.257  1.5839  0.4791 -0.0544
   13DOPE   C26 1593   0.252   1.582  12.274 -0.0140  0.4479 -0.5808
   13DOPE   H6R 1594   0.254   1.661  12.352  0.5477  0.7665 -0.9075
   13DOPE   H6S 1595   0.167   1.611  12.210  1.6311  1.5158 -2.4002
   13DOPE   C27 1596   0.374   1.595  12.185  0.1969 -0.6098 -0.5447
   13DOPE   H7R 1597   0.411   1.495  12.153  1.1189 -0.3789 -0.2447
   13DOPE   H7S 1598   0.458   1.645  12.238  0.8206  0.3327 -2.3578
   13DOPE   C28 1599   0.355   1.666  12.052  0.4579  1.0163 -0.2281
   13DOPE   H8R 1600   0.289   1.603  11.988  0.5757  0.1159  0.5328
   13DOPE   H8S 1601   0.452   1.658  11.999 -0.0595  0.3247 -1.0997
   13DOPE   C29 1602   0.306   1.806  12.053  0.0350  0.3974 -0.4809
   13DOPE   H9R 1603   0.210   1.818  12.106 -0.6563 -1.4297 -1.2465
   13DOPE  C210 1604   0.366   1.916  12.004  0.1072  0.1053 -0.3931
   13DOPE  H10R 1605   0.310   2.010  12.017 -0.3495 -0.2491  0.2607
   13DOPE  C211 1606   0.502   1.928  11.938  0.3756 -0.2588  0.3499
   13DOPE  H11R 1607   0.549   1.827  11.943 -1.4798 -1.1159  1.3718
   13DOPE  H11S 1608   0.559   1.997  12.004  0.3967 -0.5506  0.6358
   13DOPE  C212 1609   0.490   1.987  11.799  0.0185 -0.1719 -0.0629
   13DOPE  H12R 1610   0.479   2.097  11.806  1.7513  0.1670 -1.7746
   13DOPE  H12S 1611   0.396   1.961  11.746  0.0148 -0.6231  0.1565
   13DOPE  C213 1612   0.617   1.965  11.714 -0.0754 -0.3522  0.5909
   13DOPE  H13R 1613   0.579   1.990  11.613 -0.6787  0.9875  1.1367
   13DOPE  H13S 1614   0.652   1.859  11.721  0.7659 -0.1957 -0.8564
   13DOPE  C214 1615   0.736   2.050  11.753 -0.1702  0.4385  0.2913
   13DOPE  H14R 1616   0.767   2.022  11.856  3.3382 -1.1815 -1.0582
   13DOPE  H14S 1617   0.710   2.158  11.752  1.9596  1.0100 -0.1791
   13DOPE  C215 1618   0.862   2.032  11.663 -0.0214  1.1682  0.2625
   13DOPE  H15R 1619   0.838   2.060  11.558  1.1196  0.0594 -0.3257
   13DOPE  H15S 1620   0.891   1.925  11.653 -1.2511  0.9678 -1.9834
   13DOPE  C216 1621   0.991   2.106  11.699  0.0931  0.2071  0.4184
   13DOPE  H16R 1622   1.031   2.075  11.798  2.0006  0.6560 -0.1512
   13DOPE  H16S 1623   0.977   2.216  11.700 -1.0533  0.0938 -0.7000
   13DOPE  C217 1624   1.117   2.065  11.612  0.2246 -0.3172  0.5640
   13DOPE  H17R 1625   1.094   2.076  11.504 -1.4845  0.7145  1.0031
   13DOPE  H17S 1626   1.148   1.959  11.624 -2.7339 -1.2660  0.6891
   13DOPE  C218 1627   1.238   2.162  11.625 -0.9257  0.3373  0.1583
   13DOPE  H18R 1628   1.221   2.258  11.572 -1.7112 -0.2149 -0.6107
   13DOPE  H18S 1629   1.322   2.107  11.578 -0.6188 -0.0267  1.1121
   13DOPE  H18T 1630   1.265   2.183  11.731  1.0900  0.8207 -0.4150
   13DOPE   C33 1631   0.749   1.569  12.318  0.3923  0.1530 -0.8787
   13DOPE   H3X 1632   0.704   1.668  12.343 -1.6535 -0.3422 -2.3684
   13DOPE   H3Y 1633   0.670   1.493  12.301  0.5901 -0.2805  0.1112
   13DOPE   C34 1634   0.824   1.589  12.184  0.3853 -0.4209  0.9975
   13DOPE   H4X 1635   0.876   1.686  12.198 -0.9182  0.0725  2.7281
   13DOPE   H4Y 1636   0.905   1.512  12.176  1.2888  0.6691 -1.3455
   13DOPE   C35 1637   0.734   1.577  12.057  0.9365  0.2500  0.0826
   13DOPE   H5X 1638   0.665   1.665  12.066  2.4080  1.2709  2.7034
   13DOPE   H5Y 1639   0.678   1.482  12.064 -0.8224  1.3379  2.1586
   13DOPE   C36 1640   0.819   1.585  11.926  0.2388  0.3543 -0.7345
   13DOPE   H6X 1641   0.884   1.496  11.933  0.2567  0.4732  1.3549
   13DOPE   H6Y 1642   0.882   1.677  11.916 -0.6105  0.8567 -1.5692
   13DOPE   C37 1643   0.718   1.566  11.805 -0.7576  0.3707  0.8401
   13DOPE   H7X 1644   0.665   1.470  11.827  1.5754 -0.9258  1.1202
   13DOPE   H7Y 1645   0.651   1.654  11.815  0.7749  2.0154 -2.0172
   13DOPE   C38 1646   0.783   1.556  11.665  0.0562  0.1383 -0.2407
   13DOPE   H8X 1647   0.847   1.465  11.659  1.4875  1.2126 -1.9213
   13DOPE   H8Y 1648   0.846   1.645  11.648  0.4205 -0.2640 -1.0345
   13DOPE   C39 1649   0.672   1.558  11.563  0.8943 -0.4612 -0.2495
   13DOPE   H9X 1650   0.592   1.486  11.582 -0.5402  0.5123 -2.2532
   13DOPE  C310 1651   0.664   1.619  11.445  0.0187 -0.3372  0.0930
   13DOPE  H10X 1652   0.566   1.611  11.395  0.4956 -3.0554 -0.5647
   13DOPE  C311 1653   0.761   1.723  11.388 -0.3335 -0.0636 -0.0349
   13DOPE  H11X 1654   0.722   1.773  11.297 -0.4442  0.7841  0.4660
   13DOPE  H11Y 1655   0.757   1.814  11.451 -1.2479  1.4760 -2.2155
   13DOPE  C312 1656   0.907   1.676  11.366  0.1081  0.0174  0.4292
   13DOPE  H12X 1657   0.913   1.618  11.271 -0.0310  0.5183  0.1075
   13DOPE  H12Y 1658   0.940   1.607  11.447  0.0912 -0.9597 -0.3689
   13DOPE  C313 1659   1.022   1.786  11.362  0.6903  1.2044  0.3904
   13DOPE  H13X 1660   0.978   1.861  11.293 -2.2558 -0.0083  0.7751
   13DOPE  H13Y 1661   1.031   1.822  11.467  3.4466  0.0210  0.6281
   13DOPE  C314 1662   1.158   1.733  11.322 -0.1475  0.1465  0.0041
   13DOPE  H14X 1663   1.154   1.689  11.221  1.2822 -2.7891  1.0941
   13DOPE  H14Y 1664   1.187   1.656  11.397  2.9561  0.2805 -0.9121
   13DOPE  C315 1665   1.277   1.831  11.334 -0.1394  0.1307 -0.4326
   13DOPE  H15X 1666   1.306   1.839  11.441 -0.8425  0.0553 -0.2377
   13DOPE  H15Y 1667   1.248   1.931  11.295  1.0702  0.3089 -0.9234
   13DOPE  C316 1668   1.399   1.787  11.254 -0.3628 -0.1198  0.0031
   13DOPE  H16X 1669   1.413   1.689  11.304  0.7142  0.5959  1.1823
   13DOPE  H16Y 1670   1.494   1.840  11.278  0.8130 -1.2241 -1.9546
   13DOPE  C317 1671   1.386   1.767  11.099  0.1584 -0.2693  0.3188
   13DOPE  H17X 1672   1.484   1.747  11.049 -0.3418 -0.6263 -0.5481
   13DOPE  H17Y 1673   1.315   1.682  11.101  0.8979 -0.8901  0.6135
   13DOPE  C318 1674   1.331   1.886  11.022  0.1319 -0.6147 -0.2889
   13DOPE  H18X 1675   1.324   1.850  10.917  0.9923  1.2089 -1.0204
   13DOPE  H18Y 1676   1.230   1.911  11.063  0.1534  0.2755 -0.7556
   13DOPE  H18Z 1677   1.408   1.966  11.031  2.3029 -2.3794 -2.0392
   14DOPE     N 1678   5.039   5.897  13.517 -0.0006  0.6412 -0.2878
   14DOPE   HN1 1679   5.074   5.886  13.614 -2.1792 -2.6176  0.2654
   14DOPE   HN2 1680   4.991   5.988  13.498 -0.3792  0.4899 -0.0735
   14DOPE   HN3 1681   4.976   5.815  13.503  1.0168 -0.1681 -0.1840
   14DOPE   C12 1682   5.137   5.879  13.404 -0.4695 -0.0682 -0.0081
   14DOPE  H12A 1683   5.209   5.800  13.433 -2.2469 -2.3657 -1.5195
   14DOPE  H12B 1684   5.188   5.976  13.386  1.7620 -1.3833 -1.1348
   14DOPE   C11 1685   5.066   5.833  13.279  0.4306 -0.1678 -0.0052
   14DOPE  H11A 1686   5.145   5.798  13.208 -0.0647  0.0780 -0.6822
   14DOPE  H11B 1687   5.010   5.916  13.231  0.2844  0.0425  0.5234
   14DOPE     P 1688   4.921   5.622  13.207  0.2720 -0.1358 -0.4918
   14DOPE   O13 1689   4.779   5.583  13.231 -0.7777  0.5698 -0.3048
   14DOPE   O14 1690   5.023   5.523  13.219  0.1691  0.7817 -0.0898
   14DOPE   O11 1691   4.921   5.694  13.073 -0.2812 -0.0948 -0.2124
   14DOPE   O12 1692   4.969   5.735  13.316 -0.8234 -0.6075  0.3407
   14DOPE    C1 1693   4.808   5.771  13.024  0.0205  0.0311 -0.8620
   14DOPE    HA 1694   4.845   5.855  12.961  3.5423 -0.4660  0.3252
   14DOPE    HB 1695   4.742   5.812  13.103 -1.4389 -2.1247 -0.8688
   14DOPE    C2 1696   4.717   5.687  12.925  0.1943 -0.3624  0.3718
   14DOPE    HS 1697   4.693   5.597  12.985 -1.6747  0.6627  1.2703
   14DOPE   O21 1698   4.790   5.652  12.807  0.0719 -0.5294  0.5179
   14DOPE   C21 1699   4.734   5.555  12.737  0.4030 -0.6654 -0.3146
   14DOPE   O22 1700   4.636   5.488  12.774 -0.0593  0.1732 -0.2304
   14DOPE   C22 1701   4.808   5.548  12.603  0.8020 -0.5643 -0.3474
   14DOPE   H2R 1702   4.909   5.507  12.627  1.1089  1.4375  2.2825
   14DOPE   H2S 1703   4.820   5.649  12.560 -0.3478 -0.0369  0.5110
   14DOPE    C3 1704   4.585   5.757  12.896  0.8136  0.5402  0.9079
   14DOPE    HX 1705   4.566   5.841  12.967  3.3123  2.3632 -0.4246
   14DOPE    HY 1706   4.506   5.681  12.909  0.0860  1.1477  0.1524
   14DOPE   O31 1707   4.564   5.805  12.761  0.3992  0.3948  0.0277
   14DOPE   C31 1708   4.567   5.933  12.742 -0.2576  0.4197 -0.3987
   14DOPE   O32 1709   4.616   6.008  12.817  0.0169  0.0464 -0.0138
   14DOPE   C32 1710   4.493   5.966  12.611  0.2477  0.0047  0.0000
   14DOPE   H2X 1711   4.565   5.935  12.532  4.4397 -0.3167  3.5634
   14DOPE   H2Y 1712   4.398   5.911  12.603  0.2417  0.1537 -1.1015
   14DOPE   C23 1713   4.734   5.450  12.507  0.0016  0.7311  0.2255
   14DOPE   H3R 1714   4.643   5.403  12.550  0.8557 -2.7680 -1.4229
   14DOPE   H3S 1715   4.800   5.363  12.484 -1.2985 -0.3010  0.3142
   14DOPE   C24 1716   4.692   5.504  12.370 -0.0792 -0.3176  0.4816
   14DOPE   H4R 1717   4.674   5.414  12.308 -0.1257 -0.9196  1.3567
   14DOPE   H4S 1718   4.781   5.556  12.328  0.9898 -3.8611 -2.0942
   14DOPE   C25 1719   4.585   5.609  12.350  0.2449  0.7848  0.0761
   14DOPE   H5R 1720   4.608   5.701  12.408 -0.3305  1.2100 -0.3622
   14DOPE   H5S 1721   4.484   5.571  12.377  1.0781 -0.7155  1.2948
   14DOPE   C26 1722   4.580   5.664  12.203  0.4616  0.5257 -0.1993
   14DOPE   H6R 1723   4.588   5.571  12.142  0.0886 -0.4707  1.2227
   14DOPE   H6S 1724   4.671   5.727  12.193 -0.7856  2.0951 -2.7123
   14DOPE   C27 1725   4.452   5.729  12.153 -0.3926  0.4892 -0.3862
   14DOPE   H7R 1726   4.439   5.818  12.218 -0.2971 -0.3955  0.8955
   14DOPE   H7S 1727   4.370   5.654  12.162 -0.6195  0.6983 -0.6995
   14DOPE   C28 1728   4.460   5.778  12.007  0.4816  0.1234  0.5891
   14DOPE   H8R 1729   4.543   5.849  11.984 -0.6352  0.6258 -2.4219
   14DOPE   H8S 1730   4.359   5.824  11.999  0.5083  0.1162  0.1833
   14DOPE   C29 1731   4.471   5.658  11.909  0.0515 -0.1191  0.1392
   14DOPE   H9R 1732   4.540   5.578  11.940  0.6092  0.2633 -0.1131
   14DOPE  C210 1733   4.398   5.650  11.793  0.7181 -0.2061 -0.5292
   14DOPE  H10R 1734   4.409   5.569  11.719 -0.3489  0.2209 -1.1756
   14DOPE  C211 1735   4.308   5.757  11.729 -0.2501  0.2932 -0.8217
   14DOPE  H11R 1736   4.237   5.803  11.800 -3.1139 -3.3872 -0.9828
   14DOPE  H11S 1737   4.233   5.714  11.659  0.5013 -2.0536 -0.2917
   14DOPE  C212 1738   4.397   5.861  11.665 -0.8143  0.2809 -0.4227
   14DOPE  H12R 1739   4.475   5.820  11.597  0.1874 -0.9404  1.3574
   14DOPE  H12S 1740   4.458   5.894  11.753 -0.7651 -1.0216  0.0655
   14DOPE  C213 1741   4.306   5.965  11.592 -0.0562  0.4893 -0.7432
   14DOPE  H13R 1742   4.225   5.992  11.663  3.4702 -0.7673  4.3635
   14DOPE  H13S 1743   4.262   5.914  11.504  0.7287 -0.3504 -0.6639
   14DOPE  C214 1744   4.376   6.093  11.551  0.5467  0.1141  0.3930
   14DOPE  H14R 1745   4.469   6.068  11.497 -0.3165  0.6126 -1.3959
   14DOPE  H14S 1746   4.411   6.145  11.643  0.7691 -0.7283  0.7890
   14DOPE  C215 1747   4.291   6.187  11.455  0.1594 -0.4681  0.0207
   14DOPE  H15R 1748   4.231   6.139  11.375 -1.4114 -1.5159  1.7605
   14DOPE  H15S 1749   4.363   6.261  11.413  0.5638 -1.3452 -0.8767
   14DOPE  C216 1750   4.200   6.274  11.544  0.0896  0.1487  0.2658
   14DOPE  H16R 1751   4.259   6.321  11.626  0.0651 -0.8218  0.8569
   14DOPE  H16S 1752   4.139   6.203  11.604  1.6963 -0.5113  1.2115
   14DOPE  C217 1753   4.118   6.375  11.467  0.7794  0.0130  0.5923
   14DOPE  H17R 1754   4.044   6.432  11.528  0.1784 -0.1574  0.0289
   14DOPE  H17S 1755   4.061   6.328  11.385 -2.1059  2.4597  1.0064
   14DOPE  C218 1756   4.205   6.489  11.409 -0.4620  0.1779 -0.3549
   14DOPE  H18R 1757   4.274   6.449  11.332  1.2432 -0.7667  1.5517
   14DOPE  H18S 1758   4.268   6.528  11.492 -0.9847  1.1372 -0.4037
   14DOPE  H18T 1759   4.149   6.572  11.362 -0.8093  0.2313  0.1461
   14DOPE   C33 1760   4.466   6.120  12.608  0.1362  0.8109 -0.0501
   14DOPE   H3X 1761   4.449   6.161  12.709 -0.1306 -0.2976  0.3663
   14DOPE   H3Y 1762   4.369   6.114  12.555  0.7932  0.7074 -1.2962
   14DOPE   C34 1763   4.565   6.201  12.523  0.0170  0.3901  0.4835
   14DOPE   H4X 1764   4.662   6.211  12.574  0.1353  0.6986  0.2050
   14DOPE   H4Y 1765   4.577   6.151  12.424  2.9997 -0.7454  1.3228
   14DOPE   C35 1766   4.529   6.341  12.502  0.3226  0.1039  0.8007
   14DOPE   H5X 1767   4.614   6.386  12.447  0.1158  1.2998  1.4051
   14DOPE   H5Y 1768   4.521   6.405  12.593  0.5930  1.4876 -0.1140
   14DOPE   C36 1769   4.406   6.356  12.415 -0.0276  0.5910 -0.3108
   14DOPE   H6X 1770   4.327   6.295  12.463  1.2050 -3.9300 -3.4310
   14DOPE   H6Y 1771   4.420   6.303  12.318  0.8050 -1.0228  0.6612
   14DOPE   C37 1772   4.354   6.495  12.398  0.5265 -0.2552 -0.5905
   14DOPE   H7X 1773   4.334   6.550  12.493  0.2009 -1.7161  0.2157
   14DOPE   H7Y 1774   4.432   6.562  12.356  0.9656 -0.2156  0.2622
   14DOPE   C38 1775   4.226   6.499  12.314 -0.5800  0.1483 -0.5542
   14DOPE   H8X 1776   4.254   6.445  12.222  1.1988 -1.1744  0.7035
   14DOPE   H8Y 1777   4.220   6.609  12.297  0.8002  0.6188  1.5828
   14DOPE   C39 1778   4.100   6.442  12.359  0.7429 -0.1702 -0.6189
   14DOPE   H9X 1779   4.061   6.366  12.289 -1.3577 -0.3764  0.6930
   14DOPE  C310 1780   4.028   6.479  12.471  0.1748 -0.5159  0.4672
   14DOPE  H10X 1781   3.931   6.429  12.485 -0.1775 -0.3874 -1.3266
   14DOPE  C311 1782   4.065   6.579  12.580 -0.3763  0.1688  0.5167
   14DOPE  H11X 1783   4.147   6.646  12.548 -0.0941  0.8133  2.4410
   14DOPE  H11Y 1784   3.980   6.650  12.567 -1.1247 -0.3885  2.1203
   14DOPE  C312 1785   4.076   6.533  12.723 -0.2882  0.2021 -0.1610
   14DOPE  H12X 1786   4.094   6.624  12.784 -1.6550  1.3929 -1.4785
   14DOPE  H12Y 1787   4.160   6.463  12.744 -1.1509 -0.4415  1.3225
   14DOPE  C313 1788   3.955   6.473  12.790 -0.1036 -0.1654  0.1237
   14DOPE  H13X 1789   3.941   6.368  12.754 -1.2002  0.1679 -0.4535
   14DOPE  H13Y 1790   3.980   6.458  12.897 -1.5129 -2.5637  0.1838
   14DOPE  C314 1791   3.830   6.553  12.768 -0.3769  0.8394  0.4904
   14DOPE  H14X 1792   3.808   6.539  12.660 -0.0305 -2.9085  0.7676
   14DOPE  H14Y 1793   3.840   6.658  12.801  1.0437  0.0392  2.8607
   14DOPE  C315 1794   3.712   6.489  12.847 -0.1227 -0.0992 -0.4230
   14DOPE  H15X 1795   3.624   6.554  12.827  0.3797 -0.0465 -2.7462
   14DOPE  H15Y 1796   3.738   6.499  12.955 -2.8934 -2.4181  0.5788
   14DOPE  C316 1797   3.675   6.342  12.832 -0.3964 -0.2549 -0.3985
   14DOPE  H16X 1798   3.758   6.274  12.861 -0.2516  1.3740  3.6399
   14DOPE  H16Y 1799   3.655   6.328  12.724 -2.0151 -0.5755 -0.0711
   14DOPE  C317 1800   3.544   6.308  12.898 -0.8885 -0.2966 -0.5530
   14DOPE  H17X 1801   3.467   6.379  12.861 -1.0782 -0.3543 -0.2624
   14DOPE  H17Y 1802   3.518   6.204  12.868  0.7286 -1.1548  0.8427
   14DOPE  C318 1803   3.553   6.309  13.048 -0.0477  0.6782  0.0447
   14DOPE  H18X 1804   3.632   6.238  13.079 -1.8932 -0.8116  1.5852
   14DOPE  H18Y 1805   3.580   6.414  13.074  0.9562  1.0475 -2.1999
   14DOPE  H18Z 1806   3.461   6.277  13.102 -0.8323  0.8333 -1.1370
   15DOPE     N 1807   8.344   1.433  12.803 -0.6017 -0.1103  0.7207
   15DOPE   HN1 1808   8.336   1.348  12.862 -0.8915 -1.3166 -0.9760
   15DOPE   HN2 1809   8.247   1.456  12.773 -0.7838  1.3639  2.2527
   15DOPE   HN3 1810   8.404   1.419  12.720 -1.3957 -0.0317  0.1201
   15DOPE   C12 1811   8.396   1.555  12.881 -0.3590  0.7772  0.3266
   15DOPE  H12A 1812   8.406   1.631  12.800  0.8570 -1.1046 -1.3710
   15DOPE  H12B 1813   8.491   1.529  12.932 -0.4486 -3.6396 -1.3476
   15DOPE   C11 1814   8.288   1.615  12.972  0.1101  0.6215  0.1460
   15DOPE  H11A 1815   8.323   1.709  13.019  0.4656  0.5917 -0.0551
   15DOPE  H11B 1816   8.282   1.548  13.061  3.0118 -1.2085 -0.9026
   15DOPE     P 1817   8.030   1.657  12.959 -0.0183 -0.1866  0.0373
   15DOPE   O13 1818   8.038   1.682  13.105 -0.1699  0.6543 -0.3325
   15DOPE   O14 1819   7.948   1.536  12.922  0.1130  0.3552  0.0675
   15DOPE   O11 1820   7.960   1.782  12.888  0.1751 -0.0966  0.2243
   15DOPE   O12 1821   8.170   1.637  12.887  0.5932  0.3220 -0.4159
   15DOPE    C1 1822   7.942   1.785  12.746 -0.1055 -0.2096  0.3925
   15DOPE    HA 1823   7.836   1.760  12.724 -0.2724 -0.4612  1.4166
   15DOPE    HB 1824   8.008   1.729  12.676 -1.1908  0.0253 -0.8620
   15DOPE    C2 1825   7.953   1.932  12.702  0.1493  0.0320 -0.3442
   15DOPE    HS 1826   7.875   1.994  12.752  0.9801  1.8636 -1.2527
   15DOPE   O21 1827   7.942   1.929  12.557 -0.2101  0.1504  0.3225
   15DOPE   C21 1828   7.900   2.045  12.504  0.1912 -0.0673  0.3173
   15DOPE   O22 1829   7.850   2.138  12.569 -0.0643 -0.6268 -0.5207
   15DOPE   C22 1830   7.925   2.044  12.358  0.3471 -0.0412 -0.3525
   15DOPE   H2R 1831   7.876   1.954  12.314 -1.5977  1.6559 -1.8568
   15DOPE   H2S 1832   8.034   2.040  12.335 -0.2016  1.1373 -3.7907
   15DOPE    C3 1833   8.094   1.980  12.750 -0.3512 -0.7599 -0.0142
   15DOPE    HX 1834   8.162   1.900  12.714  1.7765  0.4656  1.1548
   15DOPE    HY 1835   8.082   1.996  12.859  2.5858  0.9209  0.1615
   15DOPE   O31 1836   8.136   2.104  12.692  0.3131 -0.0498  0.5944
   15DOPE   C31 1837   8.078   2.212  12.748  0.2509 -0.5447  0.2533
   15DOPE   O32 1838   7.998   2.209  12.842  0.2803  0.0580  0.6846
   15DOPE   C32 1839   8.135   2.346  12.674 -0.4228  0.0969  0.3512
   15DOPE   H2X 1840   8.239   2.367  12.707 -0.0164 -0.3926 -0.5732
   15DOPE   H2Y 1841   8.143   2.321  12.566  1.5586  0.4308  0.3830
   15DOPE   C23 1842   7.855   2.160  12.281  0.9862  0.0654  0.4067
   15DOPE   H3R 1843   7.751   2.177  12.315  0.9982  1.1386 -0.0618
   15DOPE   H3S 1844   7.843   2.133  12.174  1.8820  0.6156  0.1499
   15DOPE   C24 1845   7.932   2.287  12.298  0.4893  0.8159  0.1077
   15DOPE   H4R 1846   8.040   2.272  12.275  0.4758  1.6582 -0.5787
   15DOPE   H4S 1847   7.919   2.328  12.400 -2.9321  0.4004 -0.0283
   15DOPE   C25 1848   7.886   2.401  12.200 -0.4386 -0.2783 -0.5942
   15DOPE   H5R 1849   7.781   2.421  12.229 -0.3797 -1.8606  0.8712
   15DOPE   H5S 1850   7.885   2.361  12.096 -1.9277  1.3811 -1.2804
   15DOPE   C26 1851   7.964   2.531  12.216 -0.2775  0.2237  0.3545
   15DOPE   H6R 1852   8.074   2.516  12.223 -0.0962  1.3089  0.0354
   15DOPE   H6S 1853   7.934   2.574  12.314  0.5511  1.0943  0.2405
   15DOPE   C27 1854   7.931   2.630  12.108  0.2314 -0.2368 -0.1634
   15DOPE   H7R 1855   7.821   2.627  12.093  0.4078  0.0762 -1.6298
   15DOPE   H7S 1856   7.972   2.596  12.011  1.1296 -0.4695  0.2838
   15DOPE   C28 1857   7.996   2.769  12.137 -0.3055 -0.9355  0.4617
   15DOPE   H8R 1858   7.987   2.808  12.240  0.5629  0.1055  0.1633
   15DOPE   H8S 1859   7.942   2.842  12.073 -0.3422 -0.8971  0.5363
   15DOPE   C29 1860   8.139   2.752  12.103 -0.0964  0.1634 -0.3916
   15DOPE   H9R 1861   8.183   2.652  12.121 -0.0769 -0.7854 -4.6026
   15DOPE  C210 1862   8.217   2.842  12.042  0.2222 -0.1568 -0.1487
   15DOPE  H10R 1863   8.321   2.808  12.026  1.0236  1.0532  2.0465
   15DOPE  C211 1864   8.175   2.982  12.003  0.3820 -0.5568 -0.0214
   15DOPE  H11R 1865   8.122   3.043  12.079 -1.4158 -1.4491 -0.5081
   15DOPE  H11S 1866   8.099   2.975  11.922  1.3024 -1.1789 -0.8614
   15DOPE  C212 1867   8.302   3.057  11.957 -0.4185 -0.3804  0.5828
   15DOPE  H12R 1868   8.342   3.001  11.869  0.2428 -0.1021  0.6932
   15DOPE  H12S 1869   8.378   3.074  12.037 -1.0293 -0.0807  1.1028
   15DOPE  C213 1870   8.266   3.188  11.889 -0.8091  0.4817  0.3045
   15DOPE  H13R 1871   8.180   3.234  11.941 -0.6397  0.5512  0.5259
   15DOPE  H13S 1872   8.240   3.172  11.782  2.8968  1.0051 -0.8268
   15DOPE  C214 1873   8.385   3.288  11.865 -1.1829 -0.5769  0.6618
   15DOPE  H14R 1874   8.475   3.238  11.824  0.1977  1.3793  1.1251
   15DOPE  H14S 1875   8.432   3.316  11.962  0.1557  2.6497 -0.7908
   15DOPE  C215 1876   8.341   3.409  11.784 -0.6091  0.1396 -0.2004
   15DOPE  H15R 1877   8.265   3.447  11.857 -0.4637  0.3007 -0.1319
   15DOPE  H15S 1878   8.297   3.386  11.685  0.8021  2.2143 -1.3975
   15DOPE  C216 1879   8.447   3.521  11.770 -0.1905 -0.2474  0.2662
   15DOPE  H16R 1880   8.500   3.535  11.866 -0.2334  0.1646  0.2278
   15DOPE  H16S 1881   8.399   3.619  11.748  0.4386 -0.0193 -0.1112
   15DOPE  C217 1882   8.537   3.494  11.649 -0.5343 -0.2460 -0.2323
   15DOPE  H17R 1883   8.477   3.495  11.556  1.5678 -0.6608 -1.6616
   15DOPE  H17S 1884   8.565   3.389  11.669  1.2317  0.3751  0.8054
   15DOPE  C218 1885   8.664   3.583  11.643 -0.2709 -0.2096 -0.4140
   15DOPE  H18R 1886   8.737   3.549  11.720 -1.7026  2.1729  2.1668
   15DOPE  H18S 1887   8.636   3.684  11.680 -2.8065 -0.9228 -0.2290
   15DOPE  H18T 1888   8.712   3.596  11.543 -0.3052  2.6027 -0.1471
   15DOPE   C33 1889   8.024   2.452  12.688  0.2199 -0.0112  0.5244
   15DOPE   H3X 1890   8.010   2.464  12.797  0.5575 -1.7162  0.7702
   15DOPE   H3Y 1891   7.928   2.424  12.638  0.0283  0.6027  0.5360
   15DOPE   C34 1892   8.076   2.576  12.618  0.1522  0.3548  0.7449
   15DOPE   H4X 1893   8.169   2.605  12.671  0.8732 -1.4362  0.5399
   15DOPE   H4Y 1894   8.092   2.554  12.510 -0.0345 -1.3804  1.0381
   15DOPE   C35 1895   7.982   2.691  12.628 -0.5533 -0.4285 -0.3626
   15DOPE   H5X 1896   7.966   2.712  12.736 -0.0363  1.6649 -0.6483
   15DOPE   H5Y 1897   7.882   2.670  12.585 -0.6536  2.5752 -1.8774
   15DOPE   C36 1898   8.028   2.821  12.562 -0.4226 -0.0737 -0.0270
   15DOPE   H6X 1899   8.032   2.808  12.451 -1.8412 -1.2633  0.0253
   15DOPE   H6Y 1900   8.133   2.834  12.597  0.1276  3.5278 -2.5161
   15DOPE   C37 1901   7.945   2.944  12.596  0.5080  0.1638 -0.5133
   15DOPE   H7X 1902   7.846   2.934  12.547 -0.3936 -1.1913  1.4483
   15DOPE   H7Y 1903   7.925   2.946  12.706 -2.8702  1.5773 -1.0404
   15DOPE   C38 1904   7.996   3.083  12.554  0.3446  0.5869 -1.0933
   15DOPE   H8X 1905   7.918   3.161  12.563 -1.2545 -1.0804  0.3389
   15DOPE   H8Y 1906   8.015   3.071  12.446 -0.5466 -2.2160 -1.0354
   15DOPE   C39 1907   8.119   3.112  12.636  0.0602 -0.5199  0.2390
   15DOPE   H9X 1908   8.109   3.105  12.745  1.5262 -0.7436  0.3810
   15DOPE  C310 1909   8.227   3.169  12.582  0.0662  0.0141 -0.2773
   15DOPE  H10X 1910   8.314   3.163  12.649 -0.6274  0.4533  0.6868
   15DOPE  C311 1911   8.265   3.196  12.435  0.2598 -0.5135  0.4635
   15DOPE  H11X 1912   8.289   3.102  12.381  1.3529 -0.3307  0.5922
   15DOPE  H11Y 1913   8.175   3.242  12.389 -0.7528 -1.3313  1.5639
   15DOPE  C312 1914   8.393   3.279  12.423 -0.4663  0.1729  0.2688
   15DOPE  H12X 1915   8.473   3.237  12.488  0.2138  1.4565  0.2992
   15DOPE  H12Y 1916   8.380   3.382  12.463  2.0552  1.3821 -1.7515
   15DOPE  C313 1917   8.432   3.284  12.274  0.3308 -0.3112  0.3541
   15DOPE  H13X 1918   8.400   3.192  12.221 -2.0504  1.1261 -0.9182
   15DOPE  H13Y 1919   8.358   3.359  12.239 -1.2929 -1.6535  0.8042
   15DOPE  C314 1920   8.565   3.332  12.225  0.1511  0.1833 -0.1499
   15DOPE  H14X 1921   8.563   3.346  12.114 -0.2948  0.5439 -0.1010
   15DOPE  H14Y 1922   8.642   3.257  12.252 -0.5609  0.1794  2.0731
   15DOPE  C315 1923   8.599   3.470  12.278  0.1819 -0.3196 -0.1470
   15DOPE  H15X 1924   8.599   3.479  12.389 -0.4620  0.9616 -0.2338
   15DOPE  H15Y 1925   8.524   3.535  12.229 -2.4956 -3.4253 -0.5500
   15DOPE  C316 1926   8.743   3.511  12.236  0.1880 -0.1674 -0.2492
   15DOPE  H16X 1927   8.751   3.621  12.250  0.9291 -0.3176  0.5794
   15DOPE  H16Y 1928   8.772   3.487  12.132  2.7164 -0.4867  0.4684
   15DOPE  C317 1929   8.845   3.436  12.313  0.1798  0.2971 -0.2150
   15DOPE  H17X 1930   8.835   3.452  12.422 -0.4962 -2.2125  0.1507
   15DOPE  H17Y 1931   8.835   3.327  12.294  0.6046  0.1080  0.5945
   15DOPE  C318 1932   8.996   3.470  12.283 -0.0210 -0.1587  0.1347
   15DOPE  H18X 1933   9.003   3.580  12.278 -2.8756  0.0764 -0.4446
   15DOPE  H18Y 1934   9.059   3.411  12.353 -0.5579 -2.5072 -1.2451
   15DOPE  H18Z 1935   9.021   3.431  12.182 -0.8593  1.6158 -0.8049
   16DOPE     N 1936   8.247   5.163  13.562 -0.3232  0.1050  0.2930
   16DOPE   HN1 1937   8.228   5.251  13.510 -0.7060 -0.1351  0.0250
   16DOPE   HN2 1938   8.198   5.084  13.516 -2.1120  1.0899  0.4313
   16DOPE   HN3 1939   8.204   5.186  13.654 -0.4302  1.1467 -0.0056
   16DOPE   C12 1940   8.394   5.150  13.563  0.1339 -0.1135 -0.1233
   16DOPE  H12A 1941   8.418   5.056  13.617  0.3550 -0.8119 -1.4048
   16DOPE  H12B 1942   8.436   5.230  13.629 -0.9089  0.0439  0.3621
   16DOPE   C11 1943   8.452   5.155  13.424 -0.8615 -0.7517 -0.1386
   16DOPE  H11A 1944   8.401   5.077  13.363  1.7866 -2.2868 -0.5590
   16DOPE  H11B 1945   8.561   5.132  13.424 -0.8277 -0.6362  0.8869
   16DOPE     P 1946   8.488   5.317  13.212  0.1327  0.2872 -0.3692
   16DOPE   O13 1947   8.632   5.285  13.198  0.2677 -0.0131 -0.0213
   16DOPE   O14 1948   8.456   5.455  13.172  0.3215  0.2080 -0.4359
   16DOPE   O11 1949   8.403   5.224  13.112 -0.1343 -0.2101  0.4579
   16DOPE   O12 1950   8.440   5.284  13.366 -0.0298 -0.1115 -0.0347
   16DOPE    C1 1951   8.267   5.251  13.092 -0.0240  0.1229 -0.5343
   16DOPE    HA 1952   8.235   5.356  13.106  0.8772  0.1948  1.2510
   16DOPE    HB 1953   8.212   5.186  13.163 -2.5915  2.9213  0.2273
   16DOPE    C2 1954   8.216   5.212  12.954  0.6863  0.2436  0.0376
   16DOPE    HS 1955   8.186   5.105  12.952  0.6647  0.1648  2.5208
   16DOPE   O21 1956   8.310   5.245  12.855  0.3251 -0.1103 -0.5559
   16DOPE   C21 1957   8.395   5.148  12.825  0.3625  0.1777  0.2695
   16DOPE   O22 1958   8.387   5.035  12.864 -0.1157  0.6632  0.3735
   16DOPE   C22 1959   8.497   5.190  12.728 -0.6302  0.5245 -0.1151
   16DOPE   H2R 1960   8.589   5.207  12.787 -1.1578  1.2911  0.5063
   16DOPE   H2S 1961   8.470   5.292  12.694  1.3479  0.6334 -1.5031
   16DOPE    C3 1962   8.096   5.304  12.931 -0.3276 -0.1882  0.1477
   16DOPE    HX 1963   8.126   5.410  12.944  2.9190 -0.5846 -2.5388
   16DOPE    HY 1964   8.019   5.287  13.010 -2.8079  0.9348 -1.8767
   16DOPE   O31 1965   8.031   5.301  12.803 -0.4980 -0.3004 -0.2318
   16DOPE   C31 1966   7.951   5.195  12.783 -0.7431 -0.0136 -0.0526
   16DOPE   O32 1967   7.942   5.097  12.857  0.6490  0.0105  0.4659
   16DOPE   C32 1968   7.898   5.202  12.645 -0.0605  0.1805 -0.5689
   16DOPE   H2X 1969   7.797   5.160  12.662  0.0805  0.2346  0.4261
   16DOPE   H2Y 1970   7.891   5.309  12.616  2.7039  1.3426  2.4473
   16DOPE   C23 1971   8.514   5.098  12.607 -0.2380  0.6037  0.6953
   16DOPE   H3R 1972   8.512   4.991  12.638  0.5661 -0.1308 -1.5400
   16DOPE   H3S 1973   8.616   5.113  12.564 -1.1636  0.5827 -1.6164
   16DOPE   C24 1974   8.418   5.117  12.489 -0.2023 -0.1518  0.1830
   16DOPE   H4R 1975   8.311   5.122  12.516 -0.6073  0.7067 -1.4133
   16DOPE   H4S 1976   8.439   5.037  12.415  3.2620  0.4649  0.3180
   16DOPE   C25 1977   8.444   5.250  12.419  1.0411 -0.1162  0.0732
   16DOPE   H5R 1978   8.537   5.241  12.359  1.2735  0.7609  0.2892
   16DOPE   H5S 1979   8.459   5.333  12.491  2.9208 -0.8551  0.6068
   16DOPE   C26 1980   8.329   5.298  12.325 -0.5711 -0.2064  0.1646
   16DOPE   H6R 1981   8.339   5.405  12.298  0.9008 -0.3022  0.2159
   16DOPE   H6S 1982   8.238   5.281  12.386  0.8229  1.9317  3.0930
   16DOPE   C27 1983   8.318   5.210  12.200  0.3867 -0.7616 -0.4021
   16DOPE   H7R 1984   8.215   5.213  12.159  0.3135 -1.3005 -0.2633
   16DOPE   H7S 1985   8.336   5.102  12.221  0.2461 -0.9203 -1.0602
   16DOPE   C28 1986   8.409   5.241  12.080  0.4107 -0.0228 -0.3801
   16DOPE   H8R 1987   8.513   5.215  12.109 -0.3306 -1.4222  1.1887
   16DOPE   H8S 1988   8.394   5.348  12.055 -0.8527 -0.2844 -0.8293
   16DOPE   C29 1989   8.373   5.149  11.966 -0.4377  0.2629  0.1847
   16DOPE   H9R 1990   8.374   5.040  11.978 -0.5108 -0.0704 -2.3839
   16DOPE  C210 1991   8.333   5.201  11.845 -0.2928  0.3472  0.1899
   16DOPE  H10R 1992   8.289   5.136  11.768 -1.2569  1.7692 -0.5004
   16DOPE  C211 1993   8.325   5.346  11.803  0.5462 -0.4947 -0.8339
   16DOPE  H11R 1994   8.426   5.387  11.780 -0.1578  1.5321 -0.5228
   16DOPE  H11S 1995   8.283   5.411  11.882  0.4688  0.7327 -1.8427
   16DOPE  C212 1996   8.235   5.359  11.676  0.1297  0.1181 -0.2579
   16DOPE  H12R 1997   8.142   5.300  11.689  0.3126 -0.4655 -1.4864
   16DOPE  H12S 1998   8.293   5.308  11.597 -0.0518  1.4681 -1.3013
   16DOPE  C213 1999   8.207   5.500  11.619  0.4928 -1.0980 -0.6071
   16DOPE  H13R 2000   8.233   5.576  11.695  1.3852  0.3477 -2.3004
   16DOPE  H13S 2001   8.100   5.513  11.593  0.3395  2.1138  1.1509
   16DOPE  C214 2002   8.284   5.537  11.489  0.1266  0.1987  0.7765
   16DOPE  H14R 2003   8.241   5.460  11.421  0.4805 -0.6455  1.4855
   16DOPE  H14S 2004   8.389   5.506  11.504  1.0986  1.5318 -2.4245
   16DOPE  C215 2005   8.271   5.681  11.440 -0.5949  0.0733  0.0266
   16DOPE  H15R 2006   8.308   5.752  11.517 -1.6961  3.0019 -1.9691
   16DOPE  H15S 2007   8.164   5.701  11.417 -1.3559 -2.1880  1.3402
   16DOPE  C216 2008   8.357   5.696  11.313 -0.4768 -0.1470 -0.3564
   16DOPE  H16R 2009   8.454   5.650  11.342  0.2568  1.5370 -0.0490
   16DOPE  H16S 2010   8.382   5.802  11.290 -1.7989  1.0982  3.2383
   16DOPE  C217 2011   8.305   5.637  11.184  0.5720 -0.3254  0.4157
   16DOPE  H17R 2012   8.241   5.549  11.208 -0.5667  0.3318 -0.1049
   16DOPE  H17S 2013   8.395   5.603  11.128  0.4762 -1.9278  1.1849
   16DOPE  C218 2014   8.226   5.733  11.096  0.2255 -0.6168 -0.1059
   16DOPE  H18R 2015   8.149   5.789  11.153  0.8580  1.8127 -1.5345
   16DOPE  H18S 2016   8.177   5.697  11.003 -1.7370 -0.2997  0.7557
   16DOPE  H18T 2017   8.301   5.810  11.069 -2.1239  1.5488 -0.7484
   16DOPE   C33 2018   7.983   5.108  12.557 -0.6365 -0.3484  0.2539
   16DOPE   H3X 2019   7.956   5.004  12.585  1.3944 -1.6860 -2.2924
   16DOPE   H3Y 2020   8.093   5.119  12.561 -0.6496  1.8137 -2.2451
   16DOPE   C34 2021   7.957   5.137  12.411  0.3805  0.6221  0.4445
   16DOPE   H4X 2022   7.965   5.246  12.392  2.6445  0.9960  2.9614
   16DOPE   H4Y 2023   8.030   5.087  12.344  0.5293 -1.0129  1.7721
   16DOPE   C35 2024   7.819   5.094  12.353 -0.1143 -0.5136  0.4460
   16DOPE   H5X 2025   7.744   5.113  12.433  0.9313  1.8399  0.9379
   16DOPE   H5Y 2026   7.808   4.984  12.345 -2.4423 -0.2246 -1.6784
   16DOPE   C36 2027   7.772   5.171  12.228  1.0631 -0.3716  0.0476
   16DOPE   H6X 2028   7.837   5.126  12.151 -0.5223 -1.5299 -0.6523
   16DOPE   H6Y 2029   7.781   5.277  12.260 -0.2297 -0.8745  2.2931
   16DOPE   C37 2030   7.623   5.145  12.185  0.7258 -0.5810  0.1032
   16DOPE   H7X 2031   7.604   5.036  12.191  1.4566 -0.8822 -2.1306
   16DOPE   H7Y 2032   7.546   5.193  12.249 -0.8777 -2.0007 -0.6626
   16DOPE   C38 2033   7.594   5.189  12.037 -0.6308 -0.2031  0.2085
   16DOPE   H8X 2034   7.673   5.135  11.980 -1.5088  0.1967 -1.4480
   16DOPE   H8Y 2035   7.614   5.298  12.025  0.1042 -0.2239  1.1115
   16DOPE   C39 2036   7.461   5.148  11.967  0.1321 -0.7696 -0.6982
   16DOPE   H9X 2037   7.369   5.158  12.027  1.0191  0.3180  0.5365
   16DOPE  C310 2038   7.447   5.102  11.842  0.5422 -0.3538  1.0514
   16DOPE  H10X 2039   7.353   5.058  11.806  0.4637 -0.9738  1.9828
   16DOPE  C311 2040   7.556   5.095  11.732  0.5475  0.0953  0.2496
   16DOPE  H11X 2041   7.638   5.168  11.749  1.1016 -0.7822  1.5416
   16DOPE  H11Y 2042   7.608   4.999  11.754 -0.0799 -0.3169 -0.0190
   16DOPE  C312 2043   7.506   5.088  11.590  0.2792  0.1797  0.8459
   16DOPE  H12X 2044   7.437   5.001  11.582 -1.6529  1.7321 -0.1581
   16DOPE  H12Y 2045   7.598   5.075  11.529 -1.6223  2.3033 -2.8223
   16DOPE  C313 2046   7.438   5.221  11.546 -0.2735  0.1144  0.3269
   16DOPE  H13X 2047   7.327   5.220  11.549 -0.2690 -0.9031  3.4442
   16DOPE  H13Y 2048   7.470   5.307  11.609  0.9634  0.9715 -1.3539
   16DOPE  C314 2049   7.467   5.261  11.400 -0.3439 -0.5603 -0.3844
   16DOPE  H14X 2050   7.574   5.289  11.388  0.2036 -1.9502  0.8935
   16DOPE  H14Y 2051   7.401   5.348  11.380  0.2370  0.0759  0.3784
   16DOPE  C315 2052   7.430   5.152  11.299  0.0042  0.7017  0.8727
   16DOPE  H15X 2053   7.321   5.138  11.317 -0.0134 -0.9322 -0.3304
   16DOPE  H15Y 2054   7.478   5.053  11.314  0.3792  0.7776  0.1990
   16DOPE  C316 2055   7.443   5.208  11.156  0.4380 -0.4570 -0.1396
   16DOPE  H16X 2056   7.542   5.258  11.152  0.9906 -1.6118 -1.4026
   16DOPE  H16Y 2057   7.356   5.277  11.162 -0.9346 -2.2434  2.8731
   16DOPE  C317 2058   7.425   5.109  11.045 -0.0487 -0.1592  0.0569
   16DOPE  H17X 2059   7.497   5.026  11.061  3.3537  2.4252 -0.5469
   16DOPE  H17Y 2060   7.321   5.070  11.047 -0.2724  0.1595 -2.4788
   16DOPE  C318 2061   7.447   5.154  10.896  0.3752  0.1866 -0.3283
   16DOPE  H18X 2062   7.365   5.225  10.871  2.1229  1.7828 -1.7936
   16DOPE  H18Y 2063   7.544   5.208  10.891  2.1346 -2.7874 -0.8540
   16DOPE  H18Z 2064   7.445   5.063  10.833 -0.0360 -1.1326  1.4994
   17DOPE     N 2065   1.200   0.721  12.943 -0.5468 -0.1684 -0.6005
   17DOPE   HN1 2066   1.127   0.764  13.005 -0.5404 -0.4409 -0.4015
   17DOPE   HN2 2067   1.283   0.689  12.997 -1.2098  0.1036  0.6205
   17DOPE   HN3 2068   1.226   0.802  12.883 -0.9732  0.4438  0.0173
   17DOPE   C12 2069   1.159   0.600  12.859 -0.3895 -0.3488  0.5409
   17DOPE  H12A 2070   1.238   0.575  12.785  1.6600  2.4005  1.6095
   17DOPE  H12B 2071   1.070   0.633  12.802 -0.7131 -2.2222 -0.1060
   17DOPE   C11 2072   1.153   0.469  12.944 -0.5978 -0.1913  0.5200
   17DOPE  H11A 2073   1.096   0.393  12.886 -0.6860  1.9004 -2.3729
   17DOPE  H11B 2074   1.099   0.481  13.040 -0.7416 -0.8521  0.5222
   17DOPE     P 2075   1.325   0.282  13.011  0.4351  0.4411  0.2236
   17DOPE   O13 2076   1.200   0.224  13.063 -0.1203  0.4063  0.0327
   17DOPE   O14 2077   1.442   0.295  13.104 -0.6171 -0.2135  0.1912
   17DOPE   O11 2078   1.373   0.209  12.869  0.3338 -0.2525 -0.2987
   17DOPE   O12 2079   1.286   0.427  12.965  0.2771 -0.5917  0.0108
   17DOPE    C1 2080   1.402   0.268  12.741 -0.0136  0.1366 -0.0407
   17DOPE    HA 2081   1.409   0.379  12.745  0.9346  0.0883  0.0839
   17DOPE    HB 2082   1.325   0.243  12.665 -0.5858  4.1515 -0.9910
   17DOPE    C2 2083   1.529   0.219  12.673  0.1843 -0.2440 -0.0868
   17DOPE    HS 2084   1.609   0.286  12.709  0.5745 -0.0755 -1.2541
   17DOPE   O21 2085   1.516   0.218  12.534 -0.6186 -0.3501  0.4450
   17DOPE   C21 2086   1.632   0.245  12.468  0.4439  0.5817  0.3360
   17DOPE   O22 2087   1.738   0.276  12.515 -0.4011 -0.3375 -0.4355
   17DOPE   C22 2088   1.595   0.242  12.319  0.6480  0.4925  0.1306
   17DOPE   H2R 2089   1.513   0.317  12.311  0.6847  0.5204  0.0252
   17DOPE   H2S 2090   1.557   0.140  12.299 -1.5817  1.2807  0.0512
   17DOPE    C3 2091   1.574   0.073  12.717  0.5261 -0.2201 -0.2643
   17DOPE    HX 2092   1.485   0.007  12.709  1.1340 -1.1038  0.0699
   17DOPE    HY 2093   1.597   0.080  12.826 -1.5112  2.1936  0.0876
   17DOPE   O31 2094   1.675   0.021  12.623  0.3027  0.3723  0.3743
   17DOPE   C31 2095   1.795   0.003  12.691  0.2916 -0.8223  0.4797
   17DOPE   O32 2096   1.826   0.046  12.797  0.1207 -0.4891 -0.2464
   17DOPE   C32 2097   1.877  -0.080  12.592 -0.0573 -0.5431 -0.0628
   17DOPE   H2X 2098   1.807  -0.137  12.527  0.8432  0.4663 -2.0292
   17DOPE   H2Y 2099   1.923  -0.003  12.526  2.1257 -0.1770  1.7467
   17DOPE   C23 2100   1.712   0.278  12.229  0.2428  0.4519 -0.2805
   17DOPE   H3R 2101   1.752   0.375  12.266 -0.6969  0.4838  0.6974
   17DOPE   H3S 2102   1.677   0.302  12.127  1.8790  0.0434 -0.9788
   17DOPE   C24 2103   1.828   0.172  12.220 -0.0247  0.0725  0.1848
   17DOPE   H4R 2104   1.861   0.141  12.322 -1.6657 -1.7598  0.2275
   17DOPE   H4S 2105   1.910   0.233  12.176 -0.2514  1.0722  1.1024
   17DOPE   C25 2106   1.794   0.061  12.128  0.0218  0.6853  0.4899
   17DOPE   H5R 2107   1.751   0.099  12.032  2.0716  1.8872 -0.0128
   17DOPE   H5S 2108   1.721  -0.008  12.176  0.2625 -1.3246 -1.8538
   17DOPE   C26 2109   1.922  -0.026  12.084 -0.7685  0.0200  0.0224
   17DOPE   H6R 2110   1.875  -0.121  12.049 -2.2566  0.9949 -0.7135
   17DOPE   H6S 2111   1.974  -0.050  12.180  1.2516  1.6244 -0.6083
   17DOPE   C27 2112   2.021   0.052  11.997 -0.0286  0.5478  0.0865
   17DOPE   H7R 2113   2.097   0.106  12.059 -0.7728  0.0390  1.4929
   17DOPE   H7S 2114   1.974   0.128  11.931 -0.6387 -1.2945 -1.6839
   17DOPE   C28 2115   2.106  -0.035  11.899  0.1643 -0.1012  0.4449
   17DOPE   H8R 2116   2.172  -0.103  11.958  1.6680  2.3889  1.8012
   17DOPE   H8S 2117   2.172   0.040  11.852 -2.1498  1.6766 -0.1333
   17DOPE   C29 2118   2.004  -0.111  11.803 -0.0623 -0.0182  0.3356
   17DOPE   H9R 2119   1.965  -0.211  11.827 -0.8738  0.5512  1.4720
   17DOPE  C210 2120   1.953  -0.068  11.688 -0.3953  0.0667 -0.4300
   17DOPE  H10R 2121   1.885  -0.137  11.636  0.1581 -0.6773 -0.1770
   17DOPE  C211 2122   1.967   0.067  11.618  0.2753  0.1727  0.4669
   17DOPE  H11R 2123   2.040   0.064  11.535 -1.4893  1.1044 -1.1996
   17DOPE  H11S 2124   2.007   0.142  11.689 -3.5214  1.7250  1.2332
   17DOPE  C212 2125   1.833   0.111  11.560 -0.4705 -0.3964  0.0567
   17DOPE  H12R 2126   1.755   0.114  11.640  0.4711 -1.3284  1.0409
   17DOPE  H12S 2127   1.801   0.035  11.485  0.2980 -0.1571 -0.5224
   17DOPE  C213 2128   1.845   0.247  11.494 -0.3958 -0.0806 -0.0185
   17DOPE  H13R 2129   1.753   0.258  11.433 -2.2059 -0.8000  2.3910
   17DOPE  H13S 2130   1.942   0.250  11.439  1.1537 -0.3584  2.5242
   17DOPE  C214 2131   1.864   0.372  11.578 -0.0368 -0.6254 -0.1212
   17DOPE  H14R 2132   1.870   0.457  11.508  1.3525 -0.9744 -0.4603
   17DOPE  H14S 2133   1.957   0.373  11.638  0.7593 -2.0968 -1.2732
   17DOPE  C215 2134   1.744   0.402  11.676  1.2102  0.1979  0.4667
   17DOPE  H15R 2135   1.725   0.310  11.736 -2.1925  1.2095  1.1787
   17DOPE  H15S 2136   1.652   0.434  11.621  1.3502 -0.1610  0.0183
   17DOPE  C216 2137   1.757   0.502  11.795  0.0507  0.4673  1.5542
   17DOPE  H16R 2138   1.661   0.515  11.849 -1.0838  0.3049 -0.3264
   17DOPE  H16S 2139   1.780   0.599  11.746 -1.5816 -0.6072 -1.6589
   17DOPE  C217 2140   1.874   0.454  11.885  0.1715  0.0545  0.2821
   17DOPE  H17R 2141   1.966   0.439  11.824  0.4756  1.9596  0.2128
   17DOPE  H17S 2142   1.858   0.351  11.923  1.0481 -0.1379  0.1533
   17DOPE  C218 2143   1.914   0.537  12.006 -0.3368  0.5332 -0.4215
   17DOPE  H18R 2144   1.967   0.630  11.977 -0.4693  1.1525  1.1979
   17DOPE  H18S 2145   1.972   0.479  12.081 -1.3197  2.5477  2.0725
   17DOPE  H18T 2146   1.823   0.575  12.058  0.9278  2.7076  0.3284
   17DOPE   C33 2147   1.989  -0.167  12.656  0.5012  0.3345  0.5893
   17DOPE   H3X 2148   1.933  -0.226  12.732 -0.7505  0.9670  0.1916
   17DOPE   H3Y 2149   2.069  -0.105  12.702  1.2388 -0.9314  1.0662
   17DOPE   C34 2150   2.048  -0.270  12.556 -1.0191 -0.3750  0.9669
   17DOPE   H4X 2151   2.109  -0.337  12.619 -0.6462  1.5321  2.7390
   17DOPE   H4Y 2152   1.960  -0.317  12.508 -1.1724 -0.6356  1.5019
   17DOPE   C35 2153   2.124  -0.198  12.441  0.8931  0.1708  0.0547
   17DOPE   H5X 2154   2.213  -0.154  12.489  0.9131  0.0618  0.1190
   17DOPE   H5Y 2155   2.067  -0.114  12.396  0.8628  0.1628  0.0782
   17DOPE   C36 2156   2.177  -0.289  12.326 -0.1168  0.3186 -0.6035
   17DOPE   H6X 2157   2.243  -0.371  12.359 -2.0693 -1.7415 -1.5852
   17DOPE   H6Y 2158   2.234  -0.223  12.256  1.2518  0.0670  0.2329
   17DOPE   C37 2159   2.064  -0.345  12.240  0.3674 -0.4701 -0.3393
   17DOPE   H7X 2160   1.981  -0.386  12.301  0.6439  0.1689  0.4806
   17DOPE   H7Y 2161   2.023  -0.264  12.177  2.3751 -0.3115 -1.5254
   17DOPE   C38 2162   2.122  -0.457  12.158  0.1591 -0.4655  0.0053
   17DOPE   H8X 2163   2.164  -0.530  12.231 -0.7271 -1.5139 -0.4952
   17DOPE   H8Y 2164   2.207  -0.420  12.097  0.5290 -1.7299 -0.2728
   17DOPE   C39 2165   2.015  -0.520  12.073 -0.1181  0.3715 -0.4696
   17DOPE   H9X 2166   1.929  -0.556  12.131 -0.1533  0.4558 -0.4697
   17DOPE  C310 2167   2.021  -0.539  11.939 -0.0757 -0.4592 -0.3317
   17DOPE  H10X 2168   1.927  -0.580  11.897 -1.0539 -1.0119  2.2088
   17DOPE  C311 2169   2.125  -0.493  11.843 -0.3014 -0.5687  0.2494
   17DOPE  H11X 2170   2.078  -0.439  11.758  0.2373 -0.7568 -0.1713
   17DOPE  H11Y 2171   2.203  -0.422  11.877  1.7664 -2.0885 -1.0904
   17DOPE  C312 2172   2.209  -0.618  11.807 -0.2453 -0.3402 -0.0334
   17DOPE  H12X 2173   2.140  -0.693  11.763  2.0734 -2.5192 -0.1730
   17DOPE  H12Y 2174   2.259  -0.657  11.898  3.1394  0.9361 -1.1865
   17DOPE  C313 2175   2.310  -0.581  11.709  0.2975 -0.1950 -0.5919
   17DOPE  H13X 2176   2.271  -0.525  11.621  1.0674 -0.2326 -0.9638
   17DOPE  H13Y 2177   2.386  -0.516  11.758  0.0677 -1.4806  1.6349
   17DOPE  C314 2178   2.391  -0.700  11.654  0.1290 -0.0892 -0.1343
   17DOPE  H14X 2179   2.318  -0.759  11.594  0.2466 -0.8729  0.4865
   17DOPE  H14Y 2180   2.435  -0.769  11.729 -1.4791 -1.1564 -0.1306
   17DOPE  C315 2181   2.513  -0.660  11.567 -0.5378 -0.3046  0.4615
   17DOPE  H15X 2182   2.470  -0.601  11.483 -0.5063  0.8582  1.2397
   17DOPE  H15Y 2183   2.561  -0.752  11.528 -2.0047 -0.4638 -1.0794
   17DOPE  C316 2184   2.623  -0.583  11.638  0.7555 -1.0764 -0.0969
   17DOPE  H16X 2185   2.656  -0.641  11.726 -1.1303 -1.3262  0.4832
   17DOPE  H16Y 2186   2.585  -0.486  11.678  1.0495 -1.2792  0.6910
   17DOPE  C317 2187   2.737  -0.541  11.542  0.0705  0.4868  0.1319
   17DOPE  H17X 2188   2.820  -0.497  11.602 -0.0008  1.5328 -0.5137
   17DOPE  H17Y 2189   2.778  -0.638  11.507  0.4203  0.5916  0.2420
   17DOPE  C318 2190   2.694  -0.448  11.431  0.7687 -0.2850  0.1451
   17DOPE  H18X 2191   2.678  -0.348  11.478  2.0877  0.1156 -0.2109
   17DOPE  H18Y 2192   2.775  -0.428  11.357 -2.1904  0.7592 -3.0572
   17DOPE  H18Z 2193   2.608  -0.469  11.364  0.6961 -0.0906  0.1760
   18DOPE     N 2194   6.763   3.939  12.725 -0.3581 -0.0219  0.1085
   18DOPE   HN1 2195   6.692   3.867  12.699 -0.6896  0.5808 -0.7108
   18DOPE   HN2 2196   6.835   3.944  12.651 -0.5057 -0.0552 -0.0392
   18DOPE   HN3 2197   6.814   3.902  12.808 -0.6508 -0.5863  0.0377
   18DOPE   C12 2198   6.699   4.062  12.774  0.6084 -0.7265  0.8645
   18DOPE  H12A 2199   6.616   4.040  12.844  0.4013 -1.2504  0.4654
   18DOPE  H12B 2200   6.659   4.112  12.683  2.3305 -0.6388  0.1167
   18DOPE   C11 2201   6.798   4.162  12.841 -0.0798  0.0504 -0.0471
   18DOPE  H11A 2202   6.830   4.112  12.935 -1.8505  0.1092  0.6217
   18DOPE  H11B 2203   6.754   4.258  12.874  0.5314  1.0761 -2.0781
   18DOPE     P 2204   6.945   4.304  12.672  0.1082 -0.4351 -0.0255
   18DOPE   O13 2205   7.068   4.293  12.589  0.2201  0.1483 -0.1794
   18DOPE   O14 2206   6.932   4.423  12.755 -0.4605  0.1774  0.2853
   18DOPE   O11 2207   6.807   4.308  12.582  0.4457 -0.0632  0.1620
   18DOPE   O12 2208   6.917   4.178  12.763 -0.6690  0.1951 -0.2360
   18DOPE    C1 2209   6.798   4.250  12.455  0.2065 -0.4584  0.0073
   18DOPE    HA 2210   6.723   4.168  12.454 -0.0551 -0.2257  0.0229
   18DOPE    HB 2211   6.892   4.204  12.418 -0.2939 -2.0133  0.5800
   18DOPE    C2 2212   6.739   4.362  12.356  0.2220  0.9010  0.3957
   18DOPE    HS 2213   6.731   4.309  12.259 -2.5397  2.0267 -0.1077
   18DOPE   O21 2214   6.822   4.476  12.345  0.5118  0.4321 -0.5407
   18DOPE   C21 2215   6.944   4.457  12.301 -0.5711  0.0610 -0.2407
   18DOPE   O22 2216   6.988   4.362  12.239 -0.1177 -0.5198 -0.2697
   18DOPE   C22 2217   7.022   4.591  12.329  0.3988  0.1902  0.2034
   18DOPE   H2R 2218   7.044   4.593  12.438  2.1569  2.1540 -0.1406
   18DOPE   H2S 2219   6.948   4.673  12.315 -0.9034 -1.2484 -1.9247
   18DOPE    C3 2220   6.602   4.404  12.398 -0.1363 -0.5015 -0.7277
   18DOPE    HX 2221   6.568   4.480  12.324 -2.7177  0.5137  1.3330
   18DOPE    HY 2222   6.603   4.449  12.500  1.2122  0.7427 -1.2573
   18DOPE   O31 2223   6.506   4.297  12.385 -0.5004  0.5881  0.1674
   18DOPE   C31 2224   6.436   4.254  12.489 -0.3477 -0.0420 -0.5765
   18DOPE   O32 2225   6.446   4.292  12.603  0.2177  0.7553 -0.7914
   18DOPE   C32 2226   6.353   4.124  12.455 -0.3669 -0.1238 -0.4794
   18DOPE   H2X 2227   6.423   4.040  12.435 -0.9407 -0.3626 -1.5773
   18DOPE   H2Y 2228   6.274   4.105  12.530 -1.4424 -0.8442 -1.7397
   18DOPE   C23 2229   7.150   4.614  12.237 -0.1207 -0.2067  0.5882
   18DOPE   H3R 2230   7.125   4.656  12.137  1.6761 -1.3389 -0.3883
   18DOPE   H3S 2231   7.199   4.515  12.218 -2.1830 -1.2577  0.4980
   18DOPE   C24 2232   7.240   4.726  12.298  0.2463 -0.3317  0.4175
   18DOPE   H4R 2233   7.274   4.716  12.403  2.0890  1.2779  0.0415
   18DOPE   H4S 2234   7.177   4.817  12.309 -0.8793 -1.1536  0.9599
   18DOPE   C25 2235   7.370   4.741  12.212  0.1154 -0.5399 -0.7873
   18DOPE   H5R 2236   7.437   4.662  12.253  1.6365 -0.0101 -2.1440
   18DOPE   H5S 2237   7.415   4.835  12.251 -0.1097 -0.4789 -0.6714
   18DOPE   C26 2238   7.360   4.755  12.066  0.7826  0.5055  0.3810
   18DOPE   H6R 2239   7.301   4.846  12.044 -0.1436 -0.4671 -1.4076
   18DOPE   H6S 2240   7.310   4.667  12.020 -0.9565  1.3683  0.5486
   18DOPE   C27 2241   7.493   4.762  11.987 -0.8170 -0.4495  0.0704
   18DOPE   H7R 2242   7.546   4.859  12.001  0.1349 -1.2240  2.2623
   18DOPE   H7S 2243   7.460   4.758  11.881 -1.8988  0.9644  0.3269
   18DOPE   C28 2244   7.580   4.638  12.005  0.4401 -0.7689  0.1917
   18DOPE   H8R 2245   7.530   4.546  11.969  3.1466 -3.2710  2.3237
   18DOPE   H8S 2246   7.602   4.622  12.113  0.3618 -0.4860  0.2509
   18DOPE   C29 2247   7.702   4.651  11.918 -0.3918  0.4936  0.1267
   18DOPE   H9R 2248   7.753   4.748  11.930  0.7476  0.1332 -1.5746
   18DOPE  C210 2249   7.760   4.552  11.840  0.3175  0.0693  0.0316
   18DOPE  H10R 2250   7.857   4.566  11.791  0.0893  2.1500  0.0855
   18DOPE  C211 2251   7.716   4.408  11.831  0.1553  0.2040  0.2389
   18DOPE  H11R 2252   7.661   4.367  11.919  1.6569 -0.1672  1.0420
   18DOPE  H11S 2253   7.809   4.348  11.837 -0.0337 -0.5388 -2.8115
   18DOPE  C212 2254   7.660   4.376  11.692  0.0520  0.1950 -0.0818
   18DOPE  H12R 2255   7.592   4.451  11.647  0.5835 -0.4753 -2.0760
   18DOPE  H12S 2256   7.600   4.283  11.699  1.3357 -0.7465 -1.1106
   18DOPE  C213 2257   7.767   4.352  11.593 -0.3121 -0.2188 -0.5783
   18DOPE  H13R 2258   7.853   4.286  11.622 -0.1566 -0.3134 -1.2477
   18DOPE  H13S 2259   7.811   4.448  11.559  0.8433 -0.1206  1.0635
   18DOPE  C214 2260   7.695   4.296  11.468  0.0113  0.2693 -0.3076
   18DOPE  H14R 2261   7.597   4.348  11.466  0.0991  0.4313 -0.4035
   18DOPE  H14S 2262   7.661   4.191  11.477 -0.5561  0.3475 -1.3649
   18DOPE  C215 2263   7.768   4.325  11.340  0.2065 -0.6606 -0.3167
   18DOPE  H15R 2264   7.862   4.267  11.341  1.5602  1.3399  2.6619
   18DOPE  H15S 2265   7.790   4.433  11.324  0.6119 -0.8870 -1.3737
   18DOPE  C216 2266   7.672   4.285  11.224 -0.5286 -0.1482  0.0112
   18DOPE  H16R 2267   7.584   4.354  11.228 -0.5530 -0.2162  0.7220
   18DOPE  H16S 2268   7.632   4.188  11.260  1.5764 -0.5935  1.3287
   18DOPE  C217 2269   7.733   4.294  11.082  0.5554 -0.3956  0.1351
   18DOPE  H17R 2270   7.784   4.392  11.070  2.5417 -1.4881 -0.9303
   18DOPE  H17S 2271   7.648   4.305  11.012  1.0863  1.5052 -0.2585
   18DOPE  C218 2272   7.831   4.180  11.053 -0.3575 -0.8947 -0.1584
   18DOPE  H18R 2273   7.780   4.081  11.055  1.4917 -1.8790  0.1773
   18DOPE  H18S 2274   7.897   4.171  11.142 -0.6771  1.7646  0.4310
   18DOPE  H18T 2275   7.899   4.187  10.966 -0.9809  1.3071 -0.5382
   18DOPE   C33 2276   6.273   4.156  12.316 -0.0507  0.4792 -0.0994
   18DOPE   H3X 2277   6.263   4.265  12.296 -0.5359  0.5634  0.5807
   18DOPE   H3Y 2278   6.170   4.115  12.325 -0.5241  1.0351 -2.3016
   18DOPE   C34 2279   6.346   4.104  12.188 -0.5037  0.2116 -0.1619
   18DOPE   H4X 2280   6.450   4.142  12.197  0.2225 -1.5884 -0.5631
   18DOPE   H4Y 2281   6.336   3.994  12.180 -0.8808  0.3266 -1.4416
   18DOPE   C35 2282   6.288   4.158  12.055 -0.1832 -0.2262  0.0304
   18DOPE   H5X 2283   6.341   4.112  11.969 -0.0771  3.0029 -1.7621
   18DOPE   H5Y 2284   6.326   4.262  12.058  2.6109 -1.1933  0.6561
   18DOPE   C36 2285   6.129   4.146  12.051  0.4919 -0.2859 -0.1853
   18DOPE   H6X 2286   6.089   4.219  12.124 -0.0960  2.7454 -3.2778
   18DOPE   H6Y 2287   6.108   4.040  12.079 -1.2665  0.3087  0.8598
   18DOPE   C37 2288   6.077   4.192  11.917 -0.2091  0.1547  0.0200
   18DOPE   H7X 2289   6.106   4.110  11.848 -1.3082 -0.5603  0.3850
   18DOPE   H7Y 2290   5.967   4.189  11.903 -0.0200 -0.6832 -1.4685
   18DOPE   C38 2291   6.133   4.323  11.860 -0.6279  0.1334  0.0511
   18DOPE   H8X 2292   6.244   4.332  11.859 -0.7666  2.7709  1.2521
   18DOPE   H8Y 2293   6.108   4.413  11.918 -1.1351  1.0695 -1.5485
   18DOPE   C39 2294   6.088   4.339  11.716 -0.5436  0.2532  0.2761
   18DOPE   H9X 2295   6.138   4.277  11.639 -1.6275  1.1299 -1.1883
   18DOPE  C310 2296   5.981   4.403  11.672 -0.4113 -0.0191 -0.8240
   18DOPE  H10X 2297   5.968   4.406  11.563  0.7856  0.9326 -0.9635
   18DOPE  C311 2298   5.885   4.479  11.754  0.8059  0.3051 -0.1492
   18DOPE  H11X 2299   5.929   4.507  11.852  1.8101  0.2974 -0.5768
   18DOPE  H11Y 2300   5.866   4.579  11.711 -1.5531 -0.1273 -0.2284
   18DOPE  C312 2301   5.753   4.404  11.785  0.2029  0.5796  0.7684
   18DOPE  H12X 2302   5.692   4.468  11.852 -0.3802  0.7323  0.0942
   18DOPE  H12Y 2303   5.788   4.315  11.843  1.8254  0.7448  0.0920
   18DOPE  C313 2304   5.666   4.363  11.669  0.8404 -0.0820  0.2570
   18DOPE  H13X 2305   5.707   4.278  11.611  2.5490  0.5105  0.5223
   18DOPE  H13Y 2306   5.575   4.316  11.712 -0.8553  2.2515 -0.6201
   18DOPE  C314 2307   5.618   4.475  11.574 -0.4477  0.0665 -0.3772
   18DOPE  H14X 2308   5.699   4.551  11.571  0.1290 -0.5511 -2.0052
   18DOPE  H14Y 2309   5.529   4.528  11.613 -1.0333 -1.7026  0.8279
   18DOPE  C315 2310   5.618   4.441  11.422 -0.0357 -0.6588  0.6222
   18DOPE  H15X 2311   5.718   4.398  11.400  0.1202 -0.5453  1.0800
   18DOPE  H15Y 2312   5.600   4.525  11.353  2.9245 -1.4025 -1.2334
   18DOPE  C316 2313   5.512   4.331  11.393  0.0144 -0.1536 -0.5627
   18DOPE  H16X 2314   5.410   4.373  11.411 -0.7971 -1.7452 -1.2268
   18DOPE  H16Y 2315   5.530   4.243  11.458  3.1305  0.7791 -0.0222
   18DOPE  C317 2316   5.508   4.292  11.249  0.2009 -0.6591  0.1912
   18DOPE  H17X 2317   5.460   4.380  11.201 -0.2585 -0.4100  1.0844
   18DOPE  H17Y 2318   5.609   4.264  11.213  0.2338 -2.0233  1.2788
   18DOPE  C318 2319   5.415   4.175  11.212  0.1899  0.5895  0.3654
   18DOPE  H18X 2320   5.322   4.191  11.270 -0.2310 -1.4638  0.3418
   18DOPE  H18Y 2321   5.392   4.167  11.103  1.8379 -1.3025  0.0882
   18DOPE  H18Z 2322   5.464   4.082  11.247 -0.7779  0.5029  1.5369
   19DOPE     N 2323   5.998   5.125  13.315  0.0757  0.6135  0.5470
   19DOPE   HN1 2324   5.964   5.204  13.374 -0.2438  2.2934 -1.7504
   19DOPE   HN2 2325   5.974   5.149  13.217 -2.9704  2.0781  1.5163
   19DOPE   HN3 2326   5.949   5.041  13.351  0.7112  0.2131  0.4844
   19DOPE   C12 2327   6.143   5.102  13.338 -0.0848  0.3246 -0.6248
   19DOPE  H12A 2328   6.174   5.003  13.299 -0.4682  0.4944 -1.3625
   19DOPE  H12B 2329   6.155   5.099  13.449 -0.1949 -1.0923 -0.6340
   19DOPE   C11 2330   6.227   5.230  13.288  0.2053 -0.0213  0.0718
   19DOPE  H11A 2331   6.211   5.238  13.178 -0.2867  1.8892  0.2492
   19DOPE  H11B 2332   6.332   5.205  13.314 -0.0889  0.2989  1.6215
   19DOPE     P 2333   6.249   5.441  13.453 -0.5578  0.4704  0.5777
   19DOPE   O13 2334   6.339   5.359  13.542  0.0205 -0.8940 -0.3343
   19DOPE   O14 2335   6.150   5.525  13.521  1.0757  0.2432 -0.2919
   19DOPE   O11 2336   6.334   5.536  13.359 -0.1312  0.2222 -0.6113
   19DOPE   O12 2337   6.176   5.346  13.350 -0.0199 -0.3176  0.2830
   19DOPE    C1 2338   6.269   5.622  13.267  0.0501 -0.0160 -0.2893
   19DOPE    HA 2339   6.317   5.722  13.268 -0.5205  0.2657 -0.5166
   19DOPE    HB 2340   6.161   5.632  13.293  0.4856  1.4025  1.1723
   19DOPE    C2 2341   6.284   5.566  13.119 -0.3769 -0.6752 -0.0354
   19DOPE    HS 2342   6.224   5.473  13.119  0.5108 -1.2897  1.5035
   19DOPE   O21 2343   6.418   5.559  13.075  0.1247 -0.2485  0.2522
   19DOPE   C21 2344   6.440   5.449  13.002 -0.6161 -0.1733  0.3635
   19DOPE   O22 2345   6.360   5.371  12.964 -0.0852 -0.4093  0.2617
   19DOPE   C22 2346   6.593   5.435  12.984  0.3480  0.1128 -0.6504
   19DOPE   H2R 2347   6.630   5.368  13.064  0.2039  2.2728  1.3361
   19DOPE   H2S 2348   6.644   5.531  13.007 -1.3415  1.3361 -1.8055
   19DOPE    C3 2349   6.218   5.669  13.025  0.2416 -0.1200  0.4162
   19DOPE    HX 2350   6.284   5.759  13.026 -0.5936  0.5165  1.6108
   19DOPE    HY 2351   6.117   5.694  13.063 -0.4665 -1.0859 -0.7911
   19DOPE   O31 2352   6.201   5.610  12.899 -0.6956  0.3836  0.3720
   19DOPE   C31 2353   6.116   5.653  12.809 -0.3019 -0.1912 -0.6190
   19DOPE   O32 2354   6.055   5.759  12.823  0.0405 -0.2177 -0.2503
   19DOPE   C32 2355   6.094   5.547  12.706 -0.3630  0.3099  0.0473
   19DOPE   H2X 2356   6.146   5.459  12.748  1.5773  1.7936  0.9128
   19DOPE   H2Y 2357   5.983   5.535  12.699 -0.5589  2.2425 -0.8300
   19DOPE   C23 2358   6.625   5.384  12.838 -0.8676  0.1281  0.0256
   19DOPE   H3R 2359   6.554   5.299  12.830 -0.2712 -0.2302 -1.7660
   19DOPE   H3S 2360   6.728   5.345  12.828 -0.8421  0.7678 -3.4397
   19DOPE   C24 2361   6.589   5.485  12.739  0.0485 -0.0549  0.0749
   19DOPE   H4R 2362   6.643   5.581  12.754  4.5442 -2.1610 -0.8815
   19DOPE   H4S 2363   6.478   5.498  12.736  0.0752  0.0832 -1.5394
   19DOPE   C25 2364   6.616   5.449  12.590 -0.2452  0.0545  0.3930
   19DOPE   H5R 2365   6.550   5.366  12.556  0.1073  0.7046 -2.1378
   19DOPE   H5S 2366   6.713   5.397  12.574 -0.4687  0.3581 -2.6876
   19DOPE   C26 2367   6.594   5.569  12.497 -0.5057  0.0292 -1.0069
   19DOPE   H6R 2368   6.667   5.651  12.513 -0.2014 -0.1210 -1.6033
   19DOPE   H6S 2369   6.496   5.616  12.521  0.1250  0.1633  1.5399
   19DOPE   C27 2370   6.603   5.516  12.349  0.4514 -0.2377 -0.3536
   19DOPE   H7R 2371   6.528   5.574  12.293 -0.3210 -0.2342  0.6639
   19DOPE   H7S 2372   6.555   5.416  12.353 -1.3304  0.5835 -0.3231
   19DOPE   C28 2373   6.741   5.526  12.286  0.4360 -0.0189 -0.1969
   19DOPE   H8R 2374   6.816   5.489  12.359  0.9029  1.0634 -0.1022
   19DOPE   H8S 2375   6.769   5.633  12.273  1.4152 -0.3959 -1.3486
   19DOPE   C29 2376   6.747   5.457  12.150  0.4105 -0.2440 -0.3491
   19DOPE   H9R 2377   6.742   5.349  12.170 -1.7473 -0.0724  0.2450
   19DOPE  C210 2378   6.748   5.516  12.031 -0.5077  0.6996 -0.7850
   19DOPE  H10R 2379   6.756   5.461  11.936  1.9808  2.2155 -1.5714
   19DOPE  C211 2380   6.742   5.669  12.008 -0.2731  0.1092 -0.3563
   19DOPE  H11R 2381   6.829   5.722  12.052 -0.6863  1.8422 -1.5274
   19DOPE  H11S 2382   6.653   5.717  12.052 -0.1331  1.0700 -1.1013
   19DOPE  C212 2383   6.744   5.708  11.862 -0.0686  0.0475  0.1369
   19DOPE  H12R 2384   6.835   5.680  11.804 -0.0219 -0.9495  0.6724
   19DOPE  H12S 2385   6.744   5.817  11.843  0.8599  0.1951  0.9114
   19DOPE  C213 2386   6.621   5.652  11.787 -0.2802 -0.3289  0.1859
   19DOPE  H13R 2387   6.532   5.685  11.844  0.7488  0.7627  1.2278
   19DOPE  H13S 2388   6.619   5.541  11.797  0.5124 -0.8123 -3.5679
   19DOPE  C214 2389   6.635   5.693  11.640 -0.3984  0.0259  0.6908
   19DOPE  H14R 2390   6.742   5.705  11.615 -0.2607  0.2660  1.3617
   19DOPE  H14S 2391   6.588   5.794  11.629 -0.1698  0.1339  0.7109
   19DOPE  C215 2392   6.562   5.589  11.549  0.6205  0.1846  0.1591
   19DOPE  H15R 2393   6.458   5.587  11.588  0.0548  1.1766 -1.2032
   19DOPE  H15S 2394   6.603   5.487  11.559 -0.3787 -0.2851 -0.3941
   19DOPE  C216 2395   6.551   5.621  11.394 -0.0222  0.2336 -0.2805
   19DOPE  H16R 2396   6.488   5.545  11.343 -0.4516  0.1966  0.2964
   19DOPE  H16S 2397   6.657   5.613  11.362  1.0067  1.0848  2.6464
   19DOPE  C217 2398   6.493   5.772  11.361 -0.0708 -0.0159  0.0989
   19DOPE  H17R 2399   6.549   5.845  11.425  1.1124  0.2804 -1.2239
   19DOPE  H17S 2400   6.387   5.778  11.392 -0.2543  0.1711 -0.5551
   19DOPE  C218 2401   6.511   5.817  11.212  0.3222  0.3160 -0.2781
   19DOPE  H18R 2402   6.489   5.733  11.143 -0.2530  0.8814 -0.7846
   19DOPE  H18S 2403   6.614   5.854  11.194 -0.5299  2.2012 -1.5954
   19DOPE  H18T 2404   6.452   5.903  11.175  0.0114  1.2845  2.2680
   19DOPE   C33 2405   6.142   5.588  12.563  0.0002  0.2478 -0.3553
   19DOPE   H3X 2406   6.243   5.634  12.571 -0.6930  1.9752 -1.0545
   19DOPE   H3Y 2407   6.076   5.668  12.522 -0.3777 -0.7991 -1.8427
   19DOPE   C34 2408   6.151   5.480  12.455 -0.8316 -0.0860  0.3327
   19DOPE   H4X 2409   6.215   5.397  12.492 -0.2877  0.4100  0.5226
   19DOPE   H4Y 2410   6.046   5.445  12.447 -1.2050  1.4236 -3.7246
   19DOPE   C35 2411   6.200   5.544  12.324  0.8551  0.0520  0.3015
   19DOPE   H5X 2412   6.301   5.583  12.345 -0.1277  2.3856  1.0356
   19DOPE   H5Y 2413   6.135   5.627  12.289  0.1526 -0.3900  0.5350
   19DOPE   C36 2414   6.185   5.435  12.217  0.1275  0.2777  0.3546
   19DOPE   H6X 2415   6.082   5.399  12.237 -0.2694  1.7398  1.0889
   19DOPE   H6Y 2416   6.250   5.348  12.240  0.2113  0.6350  1.5258
   19DOPE   C37 2417   6.192   5.486  12.075  0.1354  0.4856 -0.0470
   19DOPE   H7X 2418   6.124   5.574  12.072 -2.1333 -1.1408  0.6954
   19DOPE   H7Y 2419   6.294   5.525  12.055 -1.0912  2.8063 -2.3732
   19DOPE   C38 2420   6.174   5.383  11.959 -0.1675 -0.0730 -0.3471
   19DOPE   H8X 2421   6.207   5.283  11.993 -0.9086 -0.3412 -0.3916
   19DOPE   H8Y 2422   6.246   5.395  11.876  0.9645 -2.5519  0.1988
   19DOPE   C39 2423   6.029   5.392  11.920  0.2537 -0.5453 -0.2246
   19DOPE   H9X 2424   5.957   5.367  11.999  0.7902 -0.8434  0.1719
   19DOPE  C310 2425   5.977   5.435  11.797  0.3282 -0.4120 -0.1024
   19DOPE  H10X 2426   5.869   5.455  11.787  0.0938 -1.0040  1.1124
   19DOPE  C311 2427   6.067   5.474  11.683 -0.9882  0.5294  0.2094
   19DOPE  H11X 2428   6.109   5.574  11.703 -0.4738  0.1283  1.2501
   19DOPE  H11Y 2429   6.156   5.409  11.673 -0.7868  0.7188  0.7424
   19DOPE  C312 2430   5.984   5.491  11.550  0.1558 -0.6202  0.4163
   19DOPE  H12X 2431   5.919   5.403  11.534 -1.3875  0.3946  0.8434
   19DOPE  H12Y 2432   6.055   5.496  11.464 -0.8666  4.6373 -0.4814
   19DOPE  C313 2433   5.915   5.624  11.540 -0.1799  0.1699  0.1008
   19DOPE  H13X 2434   5.834   5.610  11.616  0.2257 -1.3507  0.2742
   19DOPE  H13Y 2435   5.986   5.706  11.564  0.8655 -1.2399  2.0923
   19DOPE  C314 2436   5.851   5.649  11.399  0.0009  0.3978 -0.4583
   19DOPE  H14X 2437   5.933   5.652  11.324 -1.1661  0.1693 -1.7892
   19DOPE  H14Y 2438   5.798   5.746  11.388 -1.0018  0.1044  1.4559
   19DOPE  C315 2439   5.755   5.537  11.356  0.7728  0.0065  0.7769
   19DOPE  H15X 2440   5.697   5.500  11.443 -0.9771 -1.4909 -0.9414
   19DOPE  H15Y 2441   5.804   5.454  11.302  0.6588  1.9842 -2.6293
   19DOPE  C316 2442   5.647   5.589  11.258  1.0913  0.3575  0.1659
   19DOPE  H16X 2443   5.604   5.669  11.322  1.1504 -0.0511  0.7133
   19DOPE  H16Y 2444   5.571   5.509  11.261  0.1216  1.2820  1.8853
   19DOPE  C317 2445   5.691   5.633  11.116 -0.7663  0.8371 -0.5419
   19DOPE  H17X 2446   5.604   5.660  11.054 -0.5968 -1.3573 -1.8424
   19DOPE  H17Y 2447   5.751   5.726  11.117 -0.6501  0.7831 -1.6449
   19DOPE  C318 2448   5.772   5.519  11.056  0.2788 -0.4166 -0.3789
   19DOPE  H18X 2449   5.862   5.507  11.120  0.5979  0.3717 -0.6637
   19DOPE  H18Y 2450   5.703   5.433  11.062 -0.3631  0.2059  1.8240
   19DOPE  H18Z 2451   5.787   5.538  10.947 -1.9059 -0.3895 -0.7191
   20DOPE     N 2452   6.240   0.344  12.900  0.0286 -0.2022  0.3761
   20DOPE   HN1 2453   6.238   0.448  12.913  1.4106 -0.1914  0.6891
   20DOPE   HN2 2454   6.301   0.314  12.979 -1.5987  0.1179  1.8249
   20DOPE   HN3 2455   6.281   0.317  12.808  0.6842 -0.3057  0.6914
   20DOPE   C12 2456   6.104   0.277  12.913  0.4349 -0.2611 -0.2629
   20DOPE  H12A 2457   6.120   0.183  12.969  1.0667 -1.2005 -1.9488
   20DOPE  H12B 2458   6.071   0.254  12.810  1.3808 -0.1351 -0.6047
   20DOPE   C11 2459   6.012   0.383  12.973  0.6073 -0.4737 -0.0452
   20DOPE  H11A 2460   6.055   0.421  13.069 -1.0381  2.1967 -0.2745
   20DOPE  H11B 2461   5.915   0.340  13.005 -0.0234  0.8569 -0.0884
   20DOPE     P 2462   5.874   0.475  12.775 -0.1723  0.1739 -0.5159
   20DOPE   O13 2463   5.754   0.422  12.846 -0.8993  0.1623  0.4117
   20DOPE   O14 2464   5.913   0.401  12.651  0.3157 -0.0733 -0.7235
   20DOPE   O11 2465   5.852   0.627  12.741 -0.4746 -0.1424  0.2244
   20DOPE   O12 2466   5.998   0.488  12.875  0.0576  0.2243 -0.2401
   20DOPE    C1 2467   5.961   0.716  12.711  0.0534 -0.8411  0.7360
   20DOPE    HA 2468   6.059   0.673  12.741  0.6500 -0.2178 -0.2371
   20DOPE    HB 2469   5.950   0.805  12.776  0.0044 -1.0358  0.9943
   20DOPE    C2 2470   5.963   0.758  12.560  0.4197 -0.9593  0.3305
   20DOPE    HS 2471   6.054   0.819  12.542  0.7757 -1.3967  0.6293
   20DOPE   O21 2472   5.842   0.831  12.529  0.0916 -0.8459 -0.5215
   20DOPE   C21 2473   5.852   0.915  12.428  0.6184 -0.3247 -0.3824
   20DOPE   O22 2474   5.955   0.967  12.387 -0.3524  0.4544  0.2795
   20DOPE   C22 2475   5.709   0.943  12.379  0.3368  0.1778 -0.7833
   20DOPE   H2R 2476   5.694   1.051  12.403 -0.6954 -0.0198 -0.4814
   20DOPE   H2S 2477   5.634   0.876  12.425  2.1248 -0.1679  1.8961
   20DOPE    C3 2478   5.961   0.631  12.472 -0.1560 -0.0167  0.2234
   20DOPE    HX 2479   5.857   0.594  12.482 -0.2618 -0.0686 -1.0006
   20DOPE    HY 2480   6.017   0.551  12.524 -0.9334 -0.9616 -0.3619
   20DOPE   O31 2481   5.990   0.640  12.332 -0.4142  0.0268 -0.2360
   20DOPE   C31 2482   6.107   0.599  12.288  0.8306 -0.9985  0.0332
   20DOPE   O32 2483   6.182   0.526  12.351  0.0881 -0.1886 -0.0796
   20DOPE   C32 2484   6.105   0.629  12.139  0.0993 -0.4900  0.4824
   20DOPE   H2X 2485   6.079   0.733  12.110 -0.1924 -0.7296 -0.1411
   20DOPE   H2Y 2486   6.208   0.603  12.106 -0.9364 -1.4752 -2.2341
   20DOPE   C23 2487   5.694   0.932  12.229  0.4969  0.3991  0.1441
   20DOPE   H3R 2488   5.767   0.996  12.175  2.0538 -1.6714 -0.3465
   20DOPE   H3S 2489   5.588   0.953  12.202  0.2637 -0.5884  0.2201
   20DOPE   C24 2490   5.730   0.791  12.163  0.2239  0.6773  0.4975
   20DOPE   H4R 2491   5.832   0.765  12.199  0.7562  0.2287 -1.2395
   20DOPE   H4S 2492   5.725   0.810  12.053 -2.7387 -0.7302  0.2928
   20DOPE   C25 2493   5.627   0.684  12.203 -0.0024 -0.9208  0.1936
   20DOPE   H5R 2494   5.580   0.697  12.303 -1.4692  0.0945 -0.5736
   20DOPE   H5S 2495   5.681   0.588  12.209 -0.3110 -1.0270  1.5320
   20DOPE   C26 2496   5.511   0.683  12.095 -0.2855 -0.3525 -0.6265
   20DOPE   H6R 2497   5.558   0.712  11.999  0.5927  0.4013  0.0110
   20DOPE   H6S 2498   5.441   0.762  12.132 -0.3607 -0.9774  0.6359
   20DOPE   C27 2499   5.447   0.548  12.092 -0.0591  0.4097 -0.1265
   20DOPE   H7R 2500   5.348   0.549  12.040  0.0881  0.8984 -0.3983
   20DOPE   H7S 2501   5.426   0.512  12.195 -0.6823 -1.1295 -0.7519
   20DOPE   C28 2502   5.537   0.446  12.020 -0.3090 -0.1409 -0.2651
   20DOPE   H8R 2503   5.641   0.485  12.032 -0.4188  0.5243 -1.2792
   20DOPE   H8S 2504   5.522   0.456  11.910 -1.2530 -3.7229 -0.5916
   20DOPE   C29 2505   5.497   0.307  12.067 -0.2537  0.2113  0.6348
   20DOPE   H9R 2506   5.388   0.295  12.053 -0.3193  1.5005 -0.1260
   20DOPE  C210 2507   5.573   0.214  12.129 -0.0802 -0.3494 -0.1646
   20DOPE  H10R 2508   5.532   0.112  12.139  1.1828 -0.7200  1.9457
   20DOPE  C211 2509   5.720   0.215  12.154 -0.4222  0.1602 -0.4592
   20DOPE  H11R 2510   5.750   0.220  12.261 -0.2129 -2.6599 -0.3180
   20DOPE  H11S 2511   5.759   0.312  12.117 -0.7845  0.3131 -0.4445
   20DOPE  C212 2512   5.784   0.110  12.068  0.4645 -0.2054 -0.0066
   20DOPE  H12R 2513   5.894   0.128  12.071  0.6163  0.1016 -3.4731
   20DOPE  H12S 2514   5.762   0.115  11.960  1.2315 -2.1738 -0.2953
   20DOPE  C213 2515   5.769  -0.036  12.117 -0.1378 -0.4965  0.4575
   20DOPE  H13R 2516   5.664  -0.068  12.100  0.0831 -0.9680 -0.0450
   20DOPE  H13S 2517   5.796  -0.057  12.223 -0.3445  0.1801  0.6500
   20DOPE  C214 2518   5.860  -0.131  12.038  0.4971 -0.9457 -0.1193
   20DOPE  H14R 2519   5.953  -0.074  12.019 -0.3063  0.2133 -0.6455
   20DOPE  H14S 2520   5.808  -0.144  11.940  0.0144  3.6774 -0.6876
   20DOPE  C215 2521   5.896  -0.255  12.110 -1.1520  0.3123 -0.1360
   20DOPE  H15R 2522   5.824  -0.308  12.177  1.6036 -1.6740  1.4725
   20DOPE  H15S 2523   5.976  -0.230  12.183 -0.0684 -1.7813 -0.5229
   20DOPE  C216 2524   5.940  -0.364  12.018  1.0286 -0.5597  0.3624
   20DOPE  H16R 2525   6.011  -0.329  11.940  0.2774  0.0915 -0.0316
   20DOPE  H16S 2526   5.853  -0.403  11.962  0.2749  1.1553  0.2699
   20DOPE  C217 2527   6.009  -0.481  12.090 -0.1942  0.2191 -0.1625
   20DOPE  H17R 2528   6.094  -0.429  12.140 -0.2831  0.6339 -0.4399
   20DOPE  H17S 2529   6.055  -0.550  12.017 -0.7895 -0.8857  0.4648
   20DOPE  C218 2530   5.917  -0.562  12.182  0.4683 -0.0119 -0.1652
   20DOPE  H18R 2531   5.879  -0.507  12.271 -1.5281 -2.3693  0.5447
   20DOPE  H18S 2532   5.967  -0.645  12.236 -0.3438  0.9016  2.1580
   20DOPE  H18T 2533   5.832  -0.606  12.126  0.2120  2.0395 -1.4949
   20DOPE   C33 2534   6.004   0.552  12.054  0.5128  0.6195  0.3130
   20DOPE   H3X 2535   5.993   0.596  11.953  0.2951  0.5565  0.3093
   20DOPE   H3Y 2536   5.902   0.559  12.097 -0.1636  0.8315 -1.2536
   20DOPE   C34 2537   6.037   0.400  12.036  0.5743  0.1232  0.9456
   20DOPE   H4X 2538   6.081   0.357  12.129  0.4357  1.0586  1.4492
   20DOPE   H4Y 2539   5.952   0.341  11.996  0.9467 -0.5774  1.1648
   20DOPE   C35 2540   6.149   0.371  11.938  0.0536 -0.1651  0.8937
   20DOPE   H5X 2541   6.246   0.387  11.989 -0.7688 -1.3947  2.9411
   20DOPE   H5Y 2542   6.144   0.452  11.862 -1.1913  0.2099  1.3587
   20DOPE   C36 2543   6.156   0.237  11.862  0.1507 -0.2833 -0.3261
   20DOPE   H6X 2544   6.230   0.251  11.781  0.6221  0.8441  0.2756
   20DOPE   H6Y 2545   6.061   0.214  11.808  0.8439 -1.1640 -1.1955
   20DOPE   C37 2546   6.202   0.122  11.955 -0.5757  0.6771 -0.4942
   20DOPE   H7X 2547   6.304   0.138  11.996  0.3035  2.8984 -3.2491
   20DOPE   H7Y 2548   6.134   0.128  12.043  0.0720 -0.1448  0.0770
   20DOPE   C38 2549   6.196  -0.022  11.894  0.3937  0.2031 -0.1198
   20DOPE   H8X 2550   6.106  -0.033  11.830  1.0327 -0.9893 -0.8450
   20DOPE   H8Y 2551   6.182  -0.084  11.985 -0.9710  0.2231 -0.3066
   20DOPE   C39 2552   6.321  -0.053  11.817 -0.8424 -0.0649 -0.0635
   20DOPE   H9X 2553   6.415  -0.012  11.857 -0.0857 -1.5135 -0.2616
   20DOPE  C310 2554   6.336  -0.152  11.726 -0.2188  0.3622 -0.5025
   20DOPE  H10X 2555   6.435  -0.165  11.681 -0.2431 -1.7200 -0.0833
   20DOPE  C311 2556   6.228  -0.257  11.686  0.7611 -0.5733  0.3462
   20DOPE  H11X 2557   6.142  -0.242  11.755  0.5050  1.5639 -0.3564
   20DOPE  H11Y 2558   6.182  -0.238  11.587  0.3295 -0.3515  0.5856
   20DOPE  C312 2559   6.269  -0.401  11.694  0.0039 -0.2304  0.5288
   20DOPE  H12X 2560   6.185  -0.460  11.650  0.1276 -0.8853  1.1629
   20DOPE  H12Y 2561   6.288  -0.438  11.797 -1.7053 -0.8969  0.6428
   20DOPE  C313 2562   6.390  -0.437  11.603 -0.1784 -0.7821 -0.4444
   20DOPE  H13X 2563   6.370  -0.404  11.498 -0.3873  2.2521  0.4557
   20DOPE  H13Y 2564   6.478  -0.374  11.628 -1.8852  2.4875 -1.9579
   20DOPE  C314 2565   6.428  -0.582  11.607 -0.5246 -0.0754  0.7098
   20DOPE  H14X 2566   6.350  -0.637  11.550 -0.8823 -1.0411  2.0927
   20DOPE  H14Y 2567   6.417  -0.610  11.714  0.2615 -1.5965  0.4191
   20DOPE  C315 2568   6.565  -0.620  11.550 -0.0447  0.4000 -0.1781
   20DOPE  H15X 2569   6.648  -0.571  11.605  0.3027  0.0712 -0.4009
   20DOPE  H15Y 2570   6.562  -0.565  11.453 -1.0243 -0.7008 -0.7963
   20DOPE  C316 2571   6.571  -0.773  11.538  0.2373 -0.2527  0.3495
   20DOPE  H16X 2572   6.661  -0.798  11.478  0.4596  1.2084  0.0540
   20DOPE  H16Y 2573   6.482  -0.812  11.484 -0.5358  0.2127  1.2639
   20DOPE  C317 2574   6.566  -0.838  11.676 -0.4513  0.3317  0.3720
   20DOPE  H17X 2575   6.634  -0.783  11.743 -0.4077  2.0577 -1.0314
   20DOPE  H17Y 2576   6.463  -0.834  11.719  0.9623 -1.4411  4.4150
   20DOPE  C318 2577   6.610  -0.985  11.676  0.2668  0.2195  0.6794
   20DOPE  H18X 2578   6.585  -1.041  11.768 -0.8924  0.3272  0.4399
   20DOPE  H18Y 2579   6.573  -1.027  11.580  0.5146  1.3303  0.0726
   20DOPE  H18Z 2580   6.721  -0.987  11.677  0.2527 -0.7678  1.4778
   21DOPE     N 2581   1.848   0.056  13.080 -0.8726 -0.2992 -0.7763
   21DOPE   HN1 2582   1.795   0.132  13.127  0.7445 -0.9089  2.3183
   21DOPE   HN2 2583   1.833   0.056  12.977  0.3794  0.0237 -0.9765
   21DOPE   HN3 2584   1.801  -0.026  13.122 -1.4036  0.6772  0.6241
   21DOPE   C12 2585   1.992   0.049  13.124  0.0525  0.1105 -0.5019
   21DOPE  H12A 2586   2.052  -0.012  13.052  1.9135  1.3697 -0.0842
   21DOPE  H12B 2587   2.005   0.014  13.228  1.2516  0.6074 -0.4658
   21DOPE   C11 2588   2.046   0.190  13.127  0.0056 -0.1774 -0.2636
   21DOPE  H11A 2589   2.155   0.168  13.118  0.2774 -0.1838  2.1913
   21DOPE  H11B 2590   2.025   0.247  13.220  1.1692  0.1555 -0.1851
   21DOPE     P 2591   2.011   0.423  13.009  0.3758 -0.0252  0.1250
   21DOPE   O13 2592   2.121   0.477  13.093 -0.5349 -0.3194 -0.0433
   21DOPE   O14 2593   1.877   0.481  13.034 -0.2161 -0.4451 -0.1032
   21DOPE   O11 2594   2.065   0.451  12.868  0.3020 -0.6106  0.0393
   21DOPE   O12 2595   2.007   0.265  13.014 -0.0054  0.0755 -0.3570
   21DOPE    C1 2596   2.092   0.350  12.767 -0.4016  0.5335 -0.8463
   21DOPE    HA 2597   2.080   0.400  12.669  0.8192  1.8499 -0.3720
   21DOPE    HB 2598   2.025   0.262  12.775 -0.5281  0.5474 -1.6830
   21DOPE    C2 2599   2.234   0.293  12.768  0.0317 -0.0778  0.3838
   21DOPE    HS 2600   2.260   0.276  12.875  2.5974 -1.7968 -0.4177
   21DOPE   O21 2601   2.323   0.383  12.704  0.5989 -0.1355 -0.4382
   21DOPE   C21 2602   2.447   0.373  12.747 -0.8012 -0.4373  0.7643
   21DOPE   O22 2603   2.493   0.284  12.822  0.4197  0.0131 -0.4542
   21DOPE   C22 2604   2.524   0.494  12.696  0.3967 -1.2684  0.2995
   21DOPE   H2R 2605   2.626   0.497  12.740  0.1451  1.0050  0.8542
   21DOPE   H2S 2606   2.465   0.579  12.734  1.0391 -0.5750 -0.2204
   21DOPE    C3 2607   2.243   0.149  12.693  0.3028 -0.0246 -0.7270
   21DOPE    HX 2608   2.182   0.075  12.749  1.9657  0.0993  1.3906
   21DOPE    HY 2609   2.344   0.106  12.703  0.3196  0.5282  3.1561
   21DOPE   O31 2610   2.194   0.158  12.556 -0.2030  0.2636  0.0188
   21DOPE   C31 2611   2.273   0.126  12.464 -0.0735  1.3108 -0.2573
   21DOPE   O32 2612   2.380   0.069  12.477 -0.1277 -0.1375  0.4410
   21DOPE   C32 2613   2.215   0.175  12.320  0.2695  0.3707 -0.1232
   21DOPE   H2X 2614   2.178   0.078  12.280 -1.3634 -0.2816  2.6383
   21DOPE   H2Y 2615   2.130   0.245  12.339  2.1046  2.8518 -0.6225
   21DOPE   C23 2616   2.554   0.485  12.544  0.1905 -0.7137 -0.1275
   21DOPE   H3R 2617   2.524   0.393  12.490  0.8173 -0.8417 -0.2645
   21DOPE   H3S 2618   2.660   0.501  12.514 -0.1657  2.2688 -0.0643
   21DOPE   C24 2619   2.472   0.599  12.479 -0.6023  0.2844 -0.6501
   21DOPE   H4R 2620   2.530   0.691  12.502  2.7708 -1.8702  0.1779
   21DOPE   H4S 2621   2.376   0.609  12.533 -0.6115 -2.4158 -0.0474
   21DOPE   C25 2622   2.456   0.581  12.325  0.0973  0.9817 -0.1235
   21DOPE   H5R 2623   2.410   0.673  12.283  0.8671  1.4082 -0.0612
   21DOPE   H5S 2624   2.390   0.496  12.297  1.1318 -0.0924  0.5937
   21DOPE   C26 2625   2.587   0.563  12.254 -0.3772 -0.5898 -0.2275
   21DOPE   H6R 2626   2.645   0.475  12.288  1.3630  0.9177  0.8782
   21DOPE   H6S 2627   2.636   0.656  12.290 -0.8132 -0.7417  0.8120
   21DOPE   C27 2628   2.578   0.577  12.101  0.5304  0.6005  0.1990
   21DOPE   H7R 2629   2.476   0.540  12.079 -1.1155  2.9870  3.0005
   21DOPE   H7S 2630   2.642   0.508  12.042 -1.1543 -2.4381  1.7268
   21DOPE   C28 2631   2.586   0.715  12.041 -0.3164 -0.7681  0.1103
   21DOPE   H8R 2632   2.684   0.720  11.990  0.8702 -0.0120  2.3356
   21DOPE   H8S 2633   2.603   0.783  12.127  2.4630 -2.6411  1.1808
   21DOPE   C29 2634   2.466   0.752  11.954  0.0962 -0.9115  0.2920
   21DOPE   H9R 2635   2.386   0.676  11.954 -0.9829  0.1623  1.9096
   21DOPE  C210 2636   2.471   0.843  11.853  0.5273  0.5025  0.5259
   21DOPE  H10R 2637   2.382   0.854  11.790 -1.1834 -0.4916  2.6585
   21DOPE  C211 2638   2.579   0.933  11.813 -0.1972  0.0272 -0.6019
   21DOPE  H11R 2639   2.651   0.959  11.893  2.2746 -1.5537 -2.2113
   21DOPE  H11S 2640   2.532   1.031  11.789  0.2270  1.1391  2.5647
   21DOPE  C212 2641   2.663   0.885  11.694 -0.3103  0.4532 -0.4833
   21DOPE  H12R 2642   2.593   0.862  11.610 -1.6304 -0.0606  0.7240
   21DOPE  H12S 2643   2.703   0.791  11.737 -0.4029  1.5343  2.1426
   21DOPE  C213 2644   2.766   0.986  11.653  0.2042  0.5367 -0.4306
   21DOPE  H13R 2645   2.832   1.012  11.738  3.3165  2.1006 -3.1050
   21DOPE  H13S 2646   2.716   1.074  11.607  0.4357 -0.0721 -1.8992
   21DOPE  C214 2647   2.849   0.945  11.530 -0.5902 -0.5030  0.1559
   21DOPE  H14R 2648   2.767   0.927  11.458 -0.3483 -1.4635  0.0994
   21DOPE  H14S 2649   2.918   0.859  11.545  1.5674  0.8207 -1.4733
   21DOPE  C215 2650   2.932   1.073  11.487 -0.5646 -0.6205  0.0825
   21DOPE  H15R 2651   3.010   1.097  11.563 -0.2476  0.4033 -0.5603
   21DOPE  H15S 2652   2.864   1.160  11.491  1.1076  0.9271 -2.4729
   21DOPE  C216 2653   2.998   1.056  11.351  0.7367 -0.1188  0.2137
   21DOPE  H16R 2654   2.931   0.990  11.293  1.4356 -0.9591  0.3452
   21DOPE  H16S 2655   3.090   0.994  11.359  0.1491 -0.8181  1.9853
   21DOPE  C217 2656   3.008   1.192  11.281 -0.8188 -0.7517 -0.9231
   21DOPE  H17R 2657   3.095   1.252  11.314 -0.9070  0.0276 -2.0270
   21DOPE  H17S 2658   2.911   1.242  11.305  0.7944  2.6977 -1.0125
   21DOPE  C218 2659   3.030   1.174  11.126  0.1050 -0.0561 -0.4379
   21DOPE  H18R 2660   2.935   1.170  11.070 -1.1657  0.3805  1.5834
   21DOPE  H18S 2661   3.095   1.086  11.103  0.4438 -0.0686  0.4941
   21DOPE  H18T 2662   3.096   1.254  11.087  1.6415 -1.1774 -0.2512
   21DOPE   C33 2663   2.324   0.228  12.228  0.1445  0.1273  0.2517
   21DOPE   H3X 2664   2.404   0.275  12.289  1.3916 -1.2731 -0.2419
   21DOPE   H3Y 2665   2.264   0.305  12.175 -0.4971 -1.2352 -1.0773
   21DOPE   C34 2666   2.375   0.129  12.122 -0.1906 -0.1726 -0.1164
   21DOPE   H4X 2667   2.434   0.053  12.177 -0.0759 -0.2441 -0.3367
   21DOPE   H4Y 2668   2.288   0.082  12.071 -0.5643 -0.6932  0.9688
   21DOPE   C35 2669   2.468   0.190  12.014 -0.4679  0.1633  0.1959
   21DOPE   H5X 2670   2.535   0.111  11.974  0.3207 -0.3311  2.3606
   21DOPE   H5Y 2671   2.537   0.256  12.071  0.1206  1.9311 -2.3838
   21DOPE   C36 2672   2.401   0.275  11.902  0.3285  0.0802 -0.6915
   21DOPE   H6X 2673   2.333   0.352  11.944  1.8736  0.7737  0.6688
   21DOPE   H6Y 2674   2.357   0.203  11.831 -3.2157  2.0897 -0.7596
   21DOPE   C37 2675   2.507   0.361  11.830 -0.6988  0.1914  0.1293
   21DOPE   H7X 2676   2.516   0.463  11.874 -0.3138 -0.1516  0.8765
   21DOPE   H7Y 2677   2.605   0.310  11.844 -0.9918 -0.5828 -0.5151
   21DOPE   C38 2678   2.474   0.369  11.683 -0.6051  0.0304  1.0528
   21DOPE   H8X 2679   2.369   0.404  11.678 -0.7584 -0.5681 -0.8112
   21DOPE   H8Y 2680   2.470   0.265  11.644 -0.3008  0.4180 -0.0586
   21DOPE   C39 2681   2.574   0.460  11.614 -0.3927  0.8047 -0.3802
   21DOPE   H9X 2682   2.556   0.569  11.623  0.5181  0.7978  2.0684
   21DOPE  C310 2683   2.685   0.420  11.544  0.2760  0.3115 -0.3272
   21DOPE  H10X 2684   2.750   0.492  11.493 -0.1294  0.7045 -0.2937
   21DOPE  C311 2685   2.717   0.274  11.509 -0.3660 -0.1540 -0.3619
   21DOPE  H11X 2686   2.780   0.236  11.592 -0.9586  1.0305  0.6448
   21DOPE  H11Y 2687   2.628   0.209  11.526  0.3382 -0.4409  2.6408
   21DOPE  C312 2688   2.761   0.241  11.362 -0.1392 -0.1083  0.3022
   21DOPE  H12X 2689   2.862   0.280  11.336 -0.4075  0.7066  0.4579
   21DOPE  H12Y 2690   2.692   0.284  11.287  0.7003 -1.8638 -1.5655
   21DOPE  C313 2691   2.775   0.093  11.340  0.1136 -0.0306  0.2680
   21DOPE  H13X 2692   2.861   0.056  11.399 -0.4172  0.6400  1.4914
   21DOPE  H13Y 2693   2.679   0.049  11.374  1.1827 -3.6010 -0.8947
   21DOPE  C314 2694   2.774   0.058  11.197 -0.0599 -0.0745 -0.3320
   21DOPE  H14X 2695   2.865   0.097  11.147 -0.1363 -1.8241 -1.9760
   21DOPE  H14Y 2696   2.683   0.102  11.150 -0.2477 -0.5545 -0.4254
   21DOPE  C315 2697   2.772  -0.096  11.180  0.1758  0.7142 -0.0642
   21DOPE  H15X 2698   2.690  -0.141  11.240  0.1212 -0.1460 -0.7677
   21DOPE  H15Y 2699   2.867  -0.133  11.225 -1.8315  0.1079  4.1630
   21DOPE  C316 2700   2.760  -0.147  11.032 -0.0895 -0.2075  0.4379
   21DOPE  H16X 2701   2.861  -0.132  10.987 -0.1926 -1.7590 -0.4146
   21DOPE  H16Y 2702   2.682  -0.088  10.980  0.6607  1.2218  0.8907
   21DOPE  C317 2703   2.731  -0.297  11.014 -0.3667  0.5245  0.6965
   21DOPE  H17X 2704   2.821  -0.349  11.054  0.0556  1.0877  0.5048
   21DOPE  H17Y 2705   2.649  -0.327  11.082  0.3876 -1.4234  0.8211
   21DOPE  C318 2706   2.708  -0.349  10.869  0.5582  0.1949 -0.4024
   21DOPE  H18X 2707   2.634  -0.285  10.818  2.4424  1.6758 -1.4333
   21DOPE  H18Y 2708   2.801  -0.342  10.808  1.8643 -0.0039  1.4535
   21DOPE  H18Z 2709   2.678  -0.456  10.872  0.6176  0.2006  1.4532
   22DOPE     N 2710   6.998   6.870  13.587  0.6976  0.4049 -0.0920
   22DOPE   HN1 2711   7.018   6.961  13.539 -1.3908  0.4975 -0.9264
   22DOPE   HN2 2712   6.896   6.877  13.609  0.8021  1.1386  0.1737
   22DOPE   HN3 2713   7.062   6.871  13.668  1.0545 -0.3847 -0.3579
   22DOPE   C12 2714   7.008   6.771  13.475  0.4705  0.4006  0.9004
   22DOPE  H12A 2715   6.972   6.670  13.504  0.2301 -0.0160 -0.7363
   22DOPE  H12B 2716   7.114   6.760  13.441  0.0859  1.0080 -0.5719
   22DOPE   C11 2717   6.915   6.806  13.357 -0.3560 -0.2011 -0.0437
   22DOPE  H11A 2718   6.814   6.843  13.381 -0.0977  1.1751 -0.9390
   22DOPE  H11B 2719   6.911   6.715  13.294  0.5128 -0.6228  0.4891
   22DOPE     P 2720   7.069   6.924  13.169 -0.3460  0.0130  0.1061
   22DOPE   O13 2721   7.172   6.821  13.190  0.2399 -0.1502  0.8565
   22DOPE   O14 2722   7.114   7.063  13.150  0.1604 -0.3214 -0.0405
   22DOPE   O11 2723   6.980   6.885  13.049 -0.7250  0.3494 -0.2363
   22DOPE   O12 2724   6.970   6.924  13.287  0.0257  0.4918 -0.0081
   22DOPE    C1 2725   6.850   6.902  13.054  0.0649  0.2506 -0.3876
   22DOPE    HA 2726   6.818   7.003  13.085 -0.1934 -0.1689  0.7850
   22DOPE    HB 2727   6.803   6.828  13.122  1.1141 -0.4589 -0.4097
   22DOPE    C2 2728   6.792   6.865  12.912 -0.5068  0.1169  0.0540
   22DOPE    HS 2729   6.689   6.825  12.928 -0.1152 -0.9974 -0.1014
   22DOPE   O21 2730   6.879   6.767  12.840 -0.0233 -0.5575  0.2433
   22DOPE   C21 2731   6.862   6.641  12.881  0.4333  0.4533 -0.1187
   22DOPE   O22 2732   6.777   6.598  12.958 -0.0265  0.1692  0.0403
   22DOPE   C22 2733   6.982   6.553  12.825 -0.7669  0.3530 -0.3842
   22DOPE   H2R 2734   7.068   6.605  12.873 -1.0400  1.7753 -1.3700
   22DOPE   H2S 2735   6.990   6.562  12.714 -2.3725  2.2133 -0.4000
   22DOPE    C3 2736   6.786   6.990  12.821  0.4022 -0.3445  0.3163
   22DOPE    HX 2737   6.891   7.021  12.808  0.8088 -0.1683  3.4118
   22DOPE    HY 2738   6.735   7.074  12.872  0.4994 -0.8974  1.3567
   22DOPE   O31 2739   6.724   6.959  12.688  0.2845  0.0226  0.2561
   22DOPE   C31 2740   6.600   6.965  12.684 -0.2310 -0.7576 -0.2179
   22DOPE   O32 2741   6.519   6.971  12.776 -0.3834 -0.7835  0.6298
   22DOPE   C32 2742   6.560   6.945  12.537 -0.5486  0.3981  0.2387
   22DOPE   H2X 2743   6.486   7.021  12.504 -0.9003 -1.1572 -3.0456
   22DOPE   H2Y 2744   6.644   6.944  12.465 -0.8731  0.4442 -0.1482
   22DOPE   C23 2745   6.976   6.403  12.883 -0.1049  0.2243  0.6103
   22DOPE   H3R 2746   6.964   6.413  12.993 -0.3078  2.1709  0.4376
   22DOPE   H3S 2747   7.073   6.354  12.859 -1.1462 -1.7631  0.2599
   22DOPE   C24 2748   6.870   6.309  12.812  0.5574 -0.3188 -0.6697
   22DOPE   H4R 2749   6.903   6.304  12.706  1.3381 -0.7610 -0.4104
   22DOPE   H4S 2750   6.773   6.363  12.809  0.1740 -0.8620  1.1941
   22DOPE   C25 2751   6.842   6.173  12.885  0.0131  0.0146  0.1638
   22DOPE   H5R 2752   6.837   6.194  12.994 -0.3167 -1.6089  0.4814
   22DOPE   H5S 2753   6.926   6.101  12.869 -1.4461 -1.4837 -1.0731
   22DOPE   C26 2754   6.713   6.097  12.845  0.5926  0.3783  0.6926
   22DOPE   H6R 2755   6.717   6.087  12.734  3.3276 -2.5886  0.9079
   22DOPE   H6S 2756   6.633   6.171  12.870  0.1722  0.1133  0.1525
   22DOPE   C27 2757   6.693   5.965  12.916  0.3216 -0.3749 -0.0358
   22DOPE   H7R 2758   6.720   5.985  13.022 -0.5828 -0.5291  0.2382
   22DOPE   H7S 2759   6.771   5.904  12.867 -0.2910  0.4461 -2.1386
   22DOPE   C28 2760   6.547   5.901  12.917  0.4848 -0.3600  0.0412
   22DOPE   H8R 2761   6.481   5.982  12.955 -0.8934 -0.4540 -1.9898
   22DOPE   H8S 2762   6.531   5.819  12.989  0.6333  0.7591  1.3937
   22DOPE   C29 2763   6.515   5.860  12.772 -0.0521 -0.9176  0.0624
   22DOPE   H9R 2764   6.601   5.825  12.713  0.5086 -0.4171  0.5543
   22DOPE  C210 2765   6.417   5.901  12.701 -0.3853 -0.0412  0.4444
   22DOPE  H10R 2766   6.403   5.862  12.599 -2.4418 -0.2809  0.7587
   22DOPE  C211 2767   6.308   5.996  12.728  0.6544 -0.0189  0.3198
   22DOPE  H11R 2768   6.320   6.085  12.794  0.4267  0.4703 -0.2915
   22DOPE  H11S 2769   6.224   5.943  12.778  0.6805 -0.1149  0.2616
   22DOPE  C212 2770   6.259   6.052  12.592 -0.3265 -0.6023  0.6246
   22DOPE  H12R 2771   6.216   5.975  12.524 -0.8575  0.3552 -0.1630
   22DOPE  H12S 2772   6.357   6.090  12.555 -0.8201 -0.7574 -0.9054
   22DOPE  C213 2773   6.151   6.161  12.601 -0.3839  0.8163 -0.2607
   22DOPE  H13R 2774   6.173   6.224  12.690 -0.2145 -0.3858  0.5673
   22DOPE  H13S 2775   6.052   6.112  12.619 -0.0466 -0.6170 -2.0633
   22DOPE  C214 2776   6.135   6.245  12.475 -0.1501 -0.0708 -0.5090
   22DOPE  H14R 2777   6.221   6.313  12.458  0.4922  0.4198  3.6227
   22DOPE  H14S 2778   6.046   6.310  12.488 -0.2804 -0.5062  0.9006
   22DOPE  C215 2779   6.113   6.169  12.341  0.3504  0.4442 -0.3738
   22DOPE  H15R 2780   6.017   6.116  12.356  1.3513 -1.3325 -0.0442
   22DOPE  H15S 2781   6.190   6.091  12.329  1.0660  1.1101 -0.2186
   22DOPE  C216 2782   6.108   6.253  12.216 -0.0181  0.1841  0.4194
   22DOPE  H16R 2783   6.028   6.329  12.226  0.2629  0.2324  2.8590
   22DOPE  H16S 2784   6.079   6.190  12.130  1.6574 -0.7470  0.4981
   22DOPE  C217 2785   6.236   6.330  12.180 -0.0630  0.9313 -0.2511
   22DOPE  H17R 2786   6.324   6.266  12.156  0.0294 -0.0143  2.3072
   22DOPE  H17S 2787   6.271   6.394  12.263 -0.5363 -0.0231  0.7074
   22DOPE  C218 2788   6.215   6.419  12.055 -0.1748  0.8284 -0.4821
   22DOPE  H18R 2789   6.127   6.485  12.070 -0.7898  0.0776 -0.7166
   22DOPE  H18S 2790   6.186   6.351  11.972  0.1973  0.4610 -0.3141
   22DOPE  H18T 2791   6.296   6.491  12.032  1.3387 -0.5856  0.2898
   22DOPE   C33 2792   6.489   6.804  12.523  0.6059 -0.0481 -0.8830
   22DOPE   H3X 2793   6.434   6.808  12.427  1.2798  0.7050 -1.2442
   22DOPE   H3Y 2794   6.418   6.792  12.607 -0.6624 -1.2653 -2.0839
   22DOPE   C34 2795   6.588   6.688  12.528 -0.5139  0.6563  0.3216
   22DOPE   H4X 2796   6.647   6.691  12.433  0.4454 -0.5160  0.8438
   22DOPE   H4Y 2797   6.663   6.706  12.608  2.6571 -1.4601 -1.8898
   22DOPE   C35 2798   6.538   6.541  12.554 -0.4736 -0.1553 -0.3577
   22DOPE   H5X 2799   6.436   6.542  12.511  0.1145  1.8393 -1.8453
   22DOPE   H5Y 2800   6.528   6.526  12.664  3.5663 -0.9981  0.0513
   22DOPE   C36 2801   6.619   6.439  12.476 -0.3353 -0.1122  0.0135
   22DOPE   H6X 2802   6.724   6.473  12.490 -0.5470  0.4370  0.2974
   22DOPE   H6Y 2803   6.583   6.456  12.373 -0.0453 -1.5969 -0.3564
   22DOPE   C37 2804   6.598   6.290  12.515  0.3964 -0.2480 -0.7076
   22DOPE   H7X 2805   6.648   6.265  12.611 -0.0507  1.7418  0.0776
   22DOPE   H7Y 2806   6.490   6.275  12.537  0.2702 -0.8122 -1.6632
   22DOPE   C38 2807   6.652   6.199  12.404 -0.1152 -0.3347 -0.2191
   22DOPE   H8X 2808   6.751   6.239  12.376  0.0873 -0.2579  0.6040
   22DOPE   H8Y 2809   6.585   6.217  12.316 -1.2125 -2.6634  0.0353
   22DOPE   C39 2810   6.655   6.047  12.423  0.4629  0.4454 -0.4170
   22DOPE   H9X 2811   6.726   6.009  12.498 -0.1151 -0.3639 -0.2781
   22DOPE  C310 2812   6.592   5.947  12.362 -0.7273 -0.2016  0.3527
   22DOPE  H10X 2813   6.596   5.847  12.408  0.0367  0.5443  1.9714
   22DOPE  C311 2814   6.517   5.968  12.231  0.1205  0.1712 -0.3642
   22DOPE  H11X 2815   6.514   6.074  12.201  0.9508  0.5395  0.7861
   22DOPE  H11Y 2816   6.575   5.913  12.153 -2.4108 -1.8212 -0.9738
   22DOPE  C312 2817   6.386   5.889  12.220 -0.8201  0.5491  0.0348
   22DOPE  H12X 2818   6.322   5.923  12.304 -0.5155  0.4707  0.2986
   22DOPE  H12Y 2819   6.419   5.783  12.225 -0.4755  0.6273 -0.5316
   22DOPE  C313 2820   6.314   5.916  12.086 -0.4468  0.3347  0.4230
   22DOPE  H13X 2821   6.206   5.896  12.103 -1.0821  1.3326 -2.0465
   22DOPE  H13Y 2822   6.321   6.022  12.056  0.3316 -0.0759 -0.9312
   22DOPE  C314 2823   6.374   5.836  11.969 -0.1729  0.3881  0.4502
   22DOPE  H14X 2824   6.385   5.734  12.013 -0.2521  0.4785  0.6821
   22DOPE  H14Y 2825   6.474   5.879  11.945 -0.3180 -0.2095 -1.3158
   22DOPE  C315 2826   6.293   5.845  11.837  0.0683  0.3269  0.7147
   22DOPE  H15X 2827   6.196   5.792  11.852  0.1635 -0.2982 -0.7249
   22DOPE  H15Y 2828   6.352   5.796  11.757 -1.8055  2.6320 -2.2708
   22DOPE  C316 2829   6.262   5.982  11.781  0.1728 -0.2631  0.0372
   22DOPE  H16X 2830   6.241   6.058  11.859 -1.6387 -1.0859  0.4099
   22DOPE  H16Y 2831   6.172   5.975  11.716 -0.6161  1.7029  0.8492
   22DOPE  C317 2832   6.366   6.032  11.673 -0.3006  1.0053 -0.0562
   22DOPE  H17X 2833   6.386   5.964  11.588 -0.0132  0.4674  0.4311
   22DOPE  H17Y 2834   6.312   6.115  11.623  0.5195  1.6107  0.0383
   22DOPE  C318 2835   6.497   6.089  11.720  0.1744 -0.0854 -0.1626
   22DOPE  H18X 2836   6.558   6.014  11.775  0.9990  1.7667  1.6014
   22DOPE  H18Y 2837   6.564   6.129  11.641  1.8632 -1.1383  0.6704
   22DOPE  H18Z 2838   6.469   6.163  11.798  1.7061  0.5868 -0.1998
   23DOPE     N 2839   3.758   1.147  13.049 -0.1941 -0.3753 -0.2554
   23DOPE   HN1 2840   3.723   1.068  13.107  2.8544 -0.8505  1.1122
   23DOPE   HN2 2841   3.856   1.167  13.077 -0.7655  0.6602  1.1309
   23DOPE   HN3 2842   3.707   1.233  13.077  2.1629  0.8917  0.4362
   23DOPE   C12 2843   3.762   1.098  12.906 -0.2600  0.0571 -0.3406
   23DOPE  H12A 2844   3.795   1.190  12.853  0.3918  0.7868  1.2757
   23DOPE  H12B 2845   3.657   1.067  12.883 -0.5883  1.6262 -1.1016
   23DOPE   C11 2846   3.871   0.982  12.883  0.8424  0.2636 -0.5196
   23DOPE  H11A 2847   3.858   0.940  12.780 -1.6104  0.8217 -0.4810
   23DOPE  H11B 2848   3.851   0.908  12.963 -1.1691 -0.3063 -1.4825
   23DOPE     P 2849   4.107   1.034  12.987 -0.2049  0.1925  0.0624
   23DOPE   O13 2850   4.037   1.078  13.103 -0.1830 -0.2600  0.0671
   23DOPE   O14 2851   4.222   1.117  12.953 -0.2984 -0.2680 -0.5410
   23DOPE   O11 2852   4.145   0.877  12.993  0.3259  0.2006  0.3052
   23DOPE   O12 2853   4.003   1.039  12.877  0.0319  0.2326 -0.7666
   23DOPE    C1 2854   4.262   0.823  12.927  0.3279 -0.8634  0.2385
   23DOPE    HA 2855   4.285   0.723  12.970 -0.8253 -1.1917  0.1154
   23DOPE    HB 2856   4.345   0.897  12.927 -1.7681  1.6818 -1.3776
   23DOPE    C2 2857   4.217   0.789  12.780 -0.6419  0.1516 -0.2541
   23DOPE    HS 2858   4.168   0.880  12.738 -2.2675 -0.6180 -0.1021
   23DOPE   O21 2859   4.129   0.679  12.786  0.8554 -0.0992 -0.5795
   23DOPE   C21 2860   4.030   0.678  12.701  0.6090 -0.5659 -0.1511
   23DOPE   O22 2861   3.988   0.762  12.625  0.2075 -0.0603  0.4809
   23DOPE   C22 2862   3.958   0.542  12.738  0.0329  1.2324  0.6176
   23DOPE   H2R 2863   3.907   0.564  12.834  0.6950  1.2403  0.9673
   23DOPE   H2S 2864   4.044   0.475  12.757 -1.2221 -0.6248  0.1405
   23DOPE    C3 2865   4.342   0.764  12.686  0.1902 -0.1404  0.2917
   23DOPE    HX 2866   4.387   0.673  12.731 -1.9095 -0.3004  2.2252
   23DOPE    HY 2867   4.403   0.857  12.694 -1.0420  0.6003  1.4326
   23DOPE   O31 2868   4.317   0.743  12.549  0.0923  0.2343 -0.1360
   23DOPE   C31 2869   4.283   0.854  12.479 -1.0618  0.9841 -0.0420
   23DOPE   O32 2870   4.280   0.970  12.515  0.5953  0.2349 -0.3653
   23DOPE   C32 2871   4.216   0.806  12.345 -0.6718  0.1050 -0.8646
   23DOPE   H2X 2872   4.285   0.737  12.290 -0.0041  1.1507 -1.3673
   23DOPE   H2Y 2873   4.127   0.751  12.383 -0.7670  0.4233 -0.6323
   23DOPE   C23 2874   3.880   0.495  12.611 -0.7197  0.0336 -0.3899
   23DOPE   H3R 2875   3.949   0.464  12.529  0.5510 -0.5032  0.8449
   23DOPE   H3S 2876   3.817   0.579  12.573 -0.6393 -1.0012 -3.0554
   23DOPE   C24 2877   3.785   0.383  12.645 -0.7564  0.2856 -0.1455
   23DOPE   H4R 2878   3.708   0.377  12.566 -0.7515  2.3455 -0.3606
   23DOPE   H4S 2879   3.740   0.412  12.742 -0.5567 -0.8303  0.2923
   23DOPE   C25 2880   3.862   0.253  12.653 -0.0287 -0.1601  0.3605
   23DOPE   H5R 2881   3.943   0.263  12.728  0.1664  1.1910 -0.0019
   23DOPE   H5S 2882   3.923   0.234  12.562 -1.6196 -4.0440 -0.1069
   23DOPE   C26 2883   3.782   0.125  12.683  0.3106  0.4881 -0.2385
   23DOPE   H6R 2884   3.863   0.053  12.705 -0.5628 -0.0281  1.4468
   23DOPE   H6S 2885   3.741   0.086  12.587  0.8937 -0.5198 -0.0949
   23DOPE   C27 2886   3.670   0.134  12.783 -0.5732 -0.3803 -0.2829
   23DOPE   H7R 2887   3.586   0.200  12.752 -1.1995 -0.6648  0.7677
   23DOPE   H7S 2888   3.700   0.170  12.883 -0.1375 -2.0858  0.2313
   23DOPE   C28 2889   3.625  -0.010  12.816  0.4255  0.0570  0.0585
   23DOPE   H8R 2890   3.580  -0.024  12.917  0.5567  0.1409  0.1301
   23DOPE   H8S 2891   3.717  -0.072  12.818  2.4139  2.7486 -1.0721
   23DOPE   C29 2892   3.529  -0.060  12.710 -0.4582 -0.2093 -0.5248
   23DOPE   H9R 2893   3.429  -0.015  12.717  0.6677  2.2933  1.4404
   23DOPE  C210 2894   3.564  -0.135  12.603 -0.3413  0.2069 -0.3886
   23DOPE  H10R 2895   3.488  -0.135  12.524 -2.0469  2.6635  1.0961
   23DOPE  C211 2896   3.702  -0.190  12.562  0.8115  0.2657  0.4308
   23DOPE  H11R 2897   3.760  -0.238  12.643  1.1416  0.3276  0.2339
   23DOPE  H11S 2898   3.759  -0.112  12.506  0.3052 -0.9480 -1.8915
   23DOPE  C212 2899   3.682  -0.306  12.461 -0.1556  0.6561  0.5966
   23DOPE  H12R 2900   3.638  -0.255  12.372  0.3012 -0.6948 -0.4485
   23DOPE  H12S 2901   3.615  -0.381  12.508 -0.6848 -0.3857 -1.6855
   23DOPE  C213 2902   3.818  -0.367  12.411 -0.4409  0.4975  0.3198
   23DOPE  H13R 2903   3.886  -0.385  12.497 -0.2539 -0.2536  0.0212
   23DOPE  H13S 2904   3.874  -0.297  12.347  0.2080 -0.1666  0.1444
   23DOPE  C214 2905   3.794  -0.494  12.330  0.3289  0.5448 -0.0482
   23DOPE  H14R 2906   3.717  -0.468  12.253  0.4167 -1.5946 -0.9086
   23DOPE  H14S 2907   3.751  -0.581  12.383  1.5286 -2.1918 -3.1995
   23DOPE  C215 2908   3.920  -0.537  12.254 -0.5124 -0.6299 -0.4371
   23DOPE  H15R 2909   4.003  -0.559  12.325 -0.5295  0.8685  0.0775
   23DOPE  H15S 2910   3.959  -0.465  12.179  2.5195 -1.2647  0.4012
   23DOPE  C216 2911   3.896  -0.668  12.177 -0.6000 -0.4780  0.0910
   23DOPE  H16R 2912   3.822  -0.656  12.095 -0.4402 -0.9217 -0.1181
   23DOPE  H16S 2913   3.863  -0.739  12.255 -0.6440  0.0264  0.5414
   23DOPE  C217 2914   4.027  -0.732  12.126  0.0489  0.0920 -0.6314
   23DOPE  H17R 2915   4.098  -0.733  12.212 -0.3907  1.4084 -0.2218
   23DOPE  H17S 2916   4.066  -0.673  12.040 -0.0465 -1.0794 -1.5004
   23DOPE  C218 2917   4.009  -0.879  12.077 -0.3198 -0.1009  0.2367
   23DOPE  H18R 2918   3.962  -0.882  11.977 -3.0556 -2.3624  1.4413
   23DOPE  H18S 2919   3.945  -0.928  12.154  0.4289  1.5790  2.0324
   23DOPE  H18T 2920   4.103  -0.937  12.074  1.0538  1.9472  1.1862
   23DOPE   C33 2921   4.169   0.930  12.264  0.1174 -0.0716  0.2292
   23DOPE   H3X 2922   4.244   1.012  12.268 -0.6204  0.6231  0.0283
   23DOPE   H3Y 2923   4.077   0.976  12.306  0.6939  1.8087 -0.4571
   23DOPE   C34 2924   4.146   0.896  12.109 -0.3114  0.3779 -0.4713
   23DOPE   H4X 2925   4.243   0.869  12.061 -0.8829  0.2926 -1.5990
   23DOPE   H4Y 2926   4.078   0.809  12.119  0.3463  0.0959  2.4094
   23DOPE   C35 2927   4.087   1.010  12.031 -0.3448  0.4770  0.6550
   23DOPE   H5X 2928   4.143   1.101  12.060 -1.3247  1.2420  0.2058
   23DOPE   H5Y 2929   3.986   1.021  12.076 -0.5596  2.0378 -0.1273
   23DOPE   C36 2930   4.074   0.991  11.884 -0.0193 -0.2201  0.0103
   23DOPE   H6X 2931   3.997   1.064  11.852 -0.3305 -0.6992 -0.3570
   23DOPE   H6Y 2932   4.035   0.889  11.862 -0.8181 -0.0663  0.6414
   23DOPE   C37 2933   4.211   1.005  11.813  0.1499  0.0768 -0.0296
   23DOPE   H7X 2934   4.269   1.092  11.849 -0.1636  0.2179  0.1324
   23DOPE   H7Y 2935   4.272   0.915  11.836  0.3022  0.5997  1.7286
   23DOPE   C38 2936   4.214   1.007  11.652  1.0939 -0.6138 -0.9981
   23DOPE   H8X 2937   4.320   0.997  11.621  1.7119  0.7778  0.5245
   23DOPE   H8Y 2938   4.183   1.111  11.631 -2.8276 -1.4298 -0.0948
   23DOPE   C39 2939   4.118   0.914  11.572 -0.8000  0.0907 -0.1631
   23DOPE   H9X 2940   4.172   0.826  11.534  0.6600  1.4488 -1.3591
   23DOPE  C310 2941   3.992   0.925  11.544  0.0408 -0.7054  0.0818
   23DOPE  H10X 2942   3.937   0.854  11.481  1.1759 -0.9899 -0.6271
   23DOPE  C311 2943   3.911   1.043  11.576  0.2285  0.2108  0.1255
   23DOPE  H11X 2944   3.814   1.007  11.616  0.7713 -0.9573  0.4339
   23DOPE  H11Y 2945   3.963   1.107  11.651  0.3245 -1.0511  1.1757
   23DOPE  C312 2946   3.880   1.118  11.448 -0.5936  0.2030 -0.6809
   23DOPE  H12X 2947   3.843   1.055  11.365 -3.4425  0.8880 -0.0327
   23DOPE  H12Y 2948   3.970   1.162  11.399 -0.8150 -0.3378 -1.6014
   23DOPE  C313 2949   3.784   1.242  11.477 -0.9039  0.0815  0.3245
   23DOPE  H13X 2950   3.686   1.205  11.513  0.6675 -2.3139  2.5490
   23DOPE  H13Y 2951   3.831   1.308  11.554 -2.2974  1.8175 -0.2636
   23DOPE  C314 2952   3.779   1.330  11.349  0.5044  0.4712 -0.1671
   23DOPE  H14X 2953   3.758   1.255  11.269 -0.8804  0.7138 -0.0514
   23DOPE  H14Y 2954   3.873   1.383  11.320  0.4196 -0.9828 -3.5858
   23DOPE  C315 2955   3.667   1.434  11.344 -0.6579 -0.1899  0.0983
   23DOPE  H15X 2956   3.696   1.518  11.411  0.4343 -0.0179 -0.5441
   23DOPE  H15Y 2957   3.570   1.386  11.365  0.2980 -3.0927 -1.4721
   23DOPE  C316 2958   3.649   1.480  11.201  0.3028 -0.3173  0.5129
   23DOPE  H16X 2959   3.633   1.393  11.133 -0.8441 -0.6131  1.1218
   23DOPE  H16Y 2960   3.744   1.520  11.160  0.6533 -0.4516  1.1813
   23DOPE  C317 2961   3.539   1.582  11.166  0.0997  0.1126 -0.0348
   23DOPE  H17X 2962   3.536   1.594  11.055 -0.2431 -1.8827 -0.2699
   23DOPE  H17Y 2963   3.439   1.534  11.178  0.5870 -1.2471 -1.1004
   23DOPE  C318 2964   3.548   1.708  11.255 -0.1445 -0.6979  0.2380
   23DOPE  H18X 2965   3.482   1.785  11.209  0.5047 -0.4420 -0.2829
   23DOPE  H18Y 2966   3.514   1.677  11.357 -0.7500  2.3777  1.0883
   23DOPE  H18Z 2967   3.648   1.753  11.270 -0.9188  1.0539  0.4111
   24DOPE     N 2968   5.580   0.446  13.048 -0.0559 -0.2672  0.4024
   24DOPE   HN1 2969   5.486   0.450  13.004  0.9132  1.5697 -1.7002
   24DOPE   HN2 2970   5.602   0.543  13.080  0.0039 -1.4194  4.4032
   24DOPE   HN3 2971   5.643   0.428  12.967 -0.7510  1.1989 -0.5117
   24DOPE   C12 2972   5.624   0.343  13.150  1.1739 -0.1332 -0.6906
   24DOPE  H12A 2973   5.564   0.365  13.242  1.1043  2.4791 -1.2715
   24DOPE  H12B 2974   5.732   0.360  13.168  0.9703 -0.2407  0.7776
   24DOPE   C11 2975   5.597   0.205  13.093  0.0430 -0.2005 -0.3443
   24DOPE  H11A 2976   5.489   0.210  13.066  0.0380  0.4966 -0.2120
   24DOPE  H11B 2977   5.609   0.134  13.178  1.4291 -0.1797 -0.5097
   24DOPE     P 2978   5.780   0.058  12.978 -0.0342  0.0670  0.4387
   24DOPE   O13 2979   5.868   0.057  13.101  0.4303 -0.6318  0.6947
   24DOPE   O14 2980   5.858   0.066  12.851  0.1154  0.0386 -0.0123
   24DOPE   O11 2981   5.687  -0.072  12.975  0.2627  0.0428  0.3706
   24DOPE   O12 2982   5.673   0.175  12.983 -0.8920 -0.0413 -0.4235
   24DOPE    C1 2983   5.733  -0.204  12.991 -0.3443  0.4812  0.0517
   24DOPE    HA 2984   5.651  -0.268  13.030 -0.6812  1.1157  0.4182
   24DOPE    HB 2985   5.818  -0.206  13.063 -1.1413  2.5187  1.1434
   24DOPE    C2 2986   5.781  -0.279  12.862 -0.6036  0.2271 -0.4185
   24DOPE    HS 2987   5.890  -0.259  12.866 -0.6002  0.6407 -1.9693
   24DOPE   O21 2988   5.712  -0.214  12.753 -0.2500  0.0177  0.2782
   24DOPE   C21 2989   5.776  -0.195  12.641 -0.1635  0.2531  0.2175
   24DOPE   O22 2990   5.898  -0.222  12.627 -0.2554  0.0781  0.2082
   24DOPE   C22 2991   5.677  -0.141  12.538  0.7753  0.1800 -0.3063
   24DOPE   H2R 2992   5.740  -0.101  12.456 -1.0510  0.3467 -1.6804
   24DOPE   H2S 2993   5.611  -0.066  12.586  1.7224  0.8545 -0.0146
   24DOPE    C3 2994   5.756  -0.427  12.857 -0.1396 -0.1640  0.4451
   24DOPE    HX 2995   5.646  -0.445  12.861  0.1652 -2.3794  0.3673
   24DOPE    HY 2996   5.792  -0.474  12.951  3.2671 -0.2474 -0.7584
   24DOPE   O31 2997   5.818  -0.484  12.739 -0.7462  0.0322 -0.2874
   24DOPE   C31 2998   5.924  -0.555  12.756 -0.5680 -0.4461 -0.1614
   24DOPE   O32 2999   5.976  -0.583  12.863 -0.3063 -0.3323 -0.0102
   24DOPE   C32 3000   5.951  -0.633  12.629 -0.5430  0.6728 -0.4125
   24DOPE   H2X 3001   5.941  -0.741  12.656  1.2456  0.5335 -0.1821
   24DOPE   H2Y 3002   5.877  -0.607  12.551 -0.6641  0.6568 -0.3034
   24DOPE   C23 3003   5.605  -0.257  12.473  0.0327  0.4819 -0.0457
   24DOPE   H3R 3004   5.534  -0.304  12.544 -1.3837  1.8833 -0.4812
   24DOPE   H3S 3005   5.671  -0.345  12.461  1.1440  1.0264  1.5957
   24DOPE   C24 3006   5.535  -0.223  12.334 -0.0173 -0.2777 -0.5309
   24DOPE   H4R 3007   5.609  -0.183  12.262 -2.0898  2.0435 -1.5060
   24DOPE   H4S 3008   5.473  -0.133  12.352  1.1311  0.4524 -0.1522
   24DOPE   C25 3009   5.456  -0.333  12.269 -0.8748  0.6191  0.7593
   24DOPE   H5R 3010   5.352  -0.332  12.309 -0.8958 -0.1104  0.7421
   24DOPE   H5S 3011   5.496  -0.430  12.306  2.1737  2.1707  1.8778
   24DOPE   C26 3012   5.451  -0.330  12.120 -0.7871 -0.2863 -0.7534
   24DOPE   H6R 3013   5.555  -0.327  12.080 -1.1250 -0.1488 -1.6446
   24DOPE   H6S 3014   5.400  -0.235  12.092 -2.2881 -0.7492  0.3352
   24DOPE   C27 3015   5.383  -0.445  12.042 -0.5825 -0.1951  0.8904
   24DOPE   H7R 3016   5.279  -0.456  12.081 -0.4495 -1.3846  0.9339
   24DOPE   H7S 3017   5.442  -0.536  12.065 -0.4192 -0.3801 -0.2087
   24DOPE   C28 3018   5.379  -0.418  11.896  0.1954  0.2343  0.2450
   24DOPE   H8R 3019   5.485  -0.420  11.862  0.2829 -0.1233  0.5310
   24DOPE   H8S 3020   5.337  -0.316  11.881  0.2014  0.1603 -0.3084
   24DOPE   C29 3021   5.298  -0.520  11.822  0.4945 -0.7828 -0.2344
   24DOPE   H9R 3022   5.192  -0.492  11.830  1.0374  1.3469  0.0635
   24DOPE  C210 3023   5.320  -0.649  11.788 -0.4345  0.0917 -0.1886
   24DOPE  H10R 3024   5.242  -0.701  11.731 -0.1784  1.6584 -2.0863
   24DOPE  C211 3025   5.449  -0.722  11.809 -0.1446 -0.0816 -0.2366
   24DOPE  H11R 3026   5.440  -0.822  11.858  1.2951  0.4341  1.1623
   24DOPE  H11S 3027   5.512  -0.671  11.885 -0.0121  0.1668 -0.5147
   24DOPE  C212 3028   5.539  -0.719  11.687 -0.8614 -0.2916 -0.0321
   24DOPE  H12R 3029   5.631  -0.769  11.724 -1.0329 -0.4796  0.1400
   24DOPE  H12S 3030   5.572  -0.615  11.663  1.2667 -1.1670 -1.1938
   24DOPE  C213 3031   5.475  -0.789  11.567 -0.4435 -0.8431  0.1682
   24DOPE  H13R 3032   5.380  -0.736  11.548  0.9190  1.3192 -0.9396
   24DOPE  H13S 3033   5.436  -0.889  11.599  3.1867 -2.1949  0.9069
   24DOPE  C214 3034   5.566  -0.821  11.448  0.1758 -0.2439 -0.3206
   24DOPE  H14R 3035   5.654  -0.879  11.484  1.2056  0.1909 -2.0255
   24DOPE  H14S 3036   5.603  -0.736  11.388  0.9816 -0.9122 -0.7786
   24DOPE  C215 3037   5.482  -0.908  11.350 -0.3231  0.2945 -1.4295
   24DOPE  H15R 3038   5.441  -0.999  11.399 -0.4472  0.1356 -1.8285
   24DOPE  H15S 3039   5.560  -0.940  11.278  2.5689  1.9565  0.7510
   24DOPE  C216 3040   5.374  -0.827  11.263 -0.1161  0.2340 -0.5283
   24DOPE  H16R 3041   5.412  -0.725  11.237 -3.5981  1.5622 -0.8903
   24DOPE  H16S 3042   5.289  -0.809  11.333  2.2610  3.1719  1.9258
   24DOPE  C217 3043   5.330  -0.915  11.139 -0.8595 -0.5132  0.2236
   24DOPE  H17R 3044   5.294  -1.011  11.182 -1.3438 -0.9298 -1.0696
   24DOPE  H17S 3045   5.421  -0.936  11.078 -1.2984 -0.9398 -0.2839
   24DOPE  C218 3046   5.230  -0.853  11.052  0.2219 -0.5444  0.7844
   24DOPE  H18R 3047   5.143  -0.828  11.117  0.7553  2.4878  0.4383
   24DOPE  H18S 3048   5.208  -0.914  10.961 -1.4971  1.8948 -0.5221
   24DOPE  H18T 3049   5.263  -0.754  11.015  2.0513 -1.4471 -0.1179
   24DOPE   C33 3050   6.088  -0.611  12.568 -0.4968 -0.3464 -0.0630
   24DOPE   H3X 3051   6.098  -0.671  12.475 -0.5529  0.5305 -0.6422
   24DOPE   H3Y 3052   6.173  -0.648  12.628  0.2700  2.7330  0.9266
   24DOPE   C34 3053   6.114  -0.460  12.554  0.2213 -0.6365  0.5175
   24DOPE   H4X 3054   6.029  -0.405  12.508  0.7228  1.2192  1.7268
   24DOPE   H4Y 3055   6.115  -0.410  12.653 -0.6405  0.1778  0.1319
   24DOPE   C35 3056   6.246  -0.429  12.483  0.1824 -0.4055 -0.2678
   24DOPE   H5X 3057   6.236  -0.320  12.464 -1.4250 -0.5847 -0.6068
   24DOPE   H5Y 3058   6.256  -0.475  12.382 -2.2888  1.4379 -1.4492
   24DOPE   C36 3059   6.372  -0.456  12.558 -0.0219 -0.6197 -0.0714
   24DOPE   H6X 3060   6.375  -0.558  12.602 -1.7832 -0.4351  0.5247
   24DOPE   H6Y 3061   6.367  -0.398  12.652 -2.7291 -1.1369  0.1633
   24DOPE   C37 3062   6.492  -0.437  12.472 -0.1336 -1.2310 -0.0840
   24DOPE   H7X 3063   6.492  -0.510  12.388 -1.5738 -0.5627 -0.6892
   24DOPE   H7Y 3064   6.487  -0.335  12.429 -0.2172 -1.4310 -0.5572
   24DOPE   C38 3065   6.632  -0.459  12.544  0.7516 -0.5511  0.8394
   24DOPE   H8X 3066   6.705  -0.457  12.460 -1.7670  1.2560 -1.4631
   24DOPE   H8Y 3067   6.635  -0.559  12.592 -0.8843 -0.0265  2.1255
   24DOPE   C39 3068   6.673  -0.356  12.647  0.5024 -0.1923 -0.3413
   24DOPE   H9X 3069   6.610  -0.364  12.737 -1.9061 -0.1699 -1.9309
   24DOPE  C310 3070   6.761  -0.255  12.638  0.1557 -0.2070 -0.5054
   24DOPE  H10X 3071   6.768  -0.179  12.717 -5.1960  0.2293 -0.0841
   24DOPE  C311 3072   6.848  -0.227  12.520  0.2234 -0.4264  0.3865
   24DOPE  H11X 3073   6.957  -0.238  12.542  0.3363  0.0297  0.0892
   24DOPE  H11Y 3074   6.832  -0.290  12.431 -1.5021 -0.4621  0.6862
   24DOPE  C312 3075   6.832  -0.080  12.485 -0.2612  0.0784  0.3323
   24DOPE  H12X 3076   6.933  -0.045  12.453 -0.3728 -0.2137 -0.3515
   24DOPE  H12Y 3077   6.812  -0.022  12.578  0.9045 -0.7776  1.1515
   24DOPE  C313 3078   6.735  -0.054  12.364 -0.7824  0.0560 -0.0437
   24DOPE  H13X 3079   6.767  -0.121  12.282  1.2197 -0.6947  1.2638
   24DOPE  H13Y 3080   6.640  -0.105  12.392 -1.1854  0.9673  0.2741
   24DOPE  C314 3081   6.725   0.094  12.330  0.5658  0.7993 -0.1352
   24DOPE  H14X 3082   6.721   0.152  12.424 -1.3445 -2.6663  2.1654
   24DOPE  H14Y 3083   6.636   0.120  12.269  0.6560 -0.0270 -0.6417
   24DOPE  C315 3084   6.845   0.150  12.246 -0.2243  0.0386  0.1798
   24DOPE  H15X 3085   6.841   0.107  12.144  1.6657 -0.7266  0.3973
   24DOPE  H15Y 3086   6.931   0.113  12.305  0.8557  0.7536 -0.8851
   24DOPE  C316 3087   6.848   0.301  12.251 -0.8956  0.2210  0.1668
   24DOPE  H16X 3088   6.842   0.337  12.356 -2.4019  0.9757 -0.1381
   24DOPE  H16Y 3089   6.759   0.334  12.193 -1.4305 -0.7450  0.4321
   24DOPE  C317 3090   6.964   0.356  12.166 -0.7859  0.1262 -0.1311
   24DOPE  H17X 3091   6.968   0.325  12.060  0.0822  1.1338 -0.4042
   24DOPE  H17Y 3092   6.944   0.465  12.171  0.3744  0.3718 -0.4828
   24DOPE  C318 3093   7.097   0.319  12.243  0.5968 -0.2614 -0.5014
   24DOPE  H18X 3094   7.083   0.342  12.351  2.7304 -1.6402  0.1304
   24DOPE  H18Y 3095   7.117   0.211  12.233 -2.8379 -1.4336  2.8380
   24DOPE  H18Z 3096   7.181   0.376  12.198  0.5889  0.3763  0.2577
   25DOPE     N 3097   6.053   6.760  13.596  0.0652  0.4960  0.7555
   25DOPE   HN1 3098   6.116   6.801  13.524  1.5158 -1.5646  0.7713
   25DOPE   HN2 3099   6.109   6.758  13.684  2.4471  2.0613 -0.6164
   25DOPE   HN3 3100   6.035   6.667  13.552  0.9881  1.0560 -0.9071
   25DOPE   C12 3101   5.930   6.841  13.609  0.2859  0.6094  0.5094
   25DOPE  H12A 3102   5.960   6.934  13.660  1.7042  0.2176  0.4183
   25DOPE  H12B 3103   5.873   6.779  13.682  0.5483  0.7593  0.8366
   25DOPE   C11 3104   5.846   6.847  13.477 -0.2341 -0.5996  0.4809
   25DOPE  H11A 3105   5.750   6.898  13.497  0.5060  1.2602 -0.4767
   25DOPE  H11B 3106   5.818   6.744  13.449  0.0676 -0.3971 -0.6330
   25DOPE     P 3107   5.894   7.066  13.342  0.1061  0.0376  0.2011
   25DOPE   O13 3108   6.011   7.128  13.273  0.1351  0.2822  0.3242
   25DOPE   O14 3109   5.844   7.128  13.469 -0.6919 -0.4151  0.0950
   25DOPE   O11 3110   5.775   7.075  13.236  0.3737  0.4217  0.7168
   25DOPE   O12 3111   5.918   6.910  13.367  0.0263 -0.4129  0.2102
   25DOPE    C1 3112   5.689   6.964  13.209  0.5706  0.5468 -0.4561
   25DOPE    HA 3113   5.633   6.930  13.298 -0.2950  3.3513  0.1859
   25DOPE    HB 3114   5.738   6.870  13.178 -0.7224 -0.9350  1.7427
   25DOPE    C2 3115   5.584   7.007  13.103  1.2336 -0.4301 -1.4760
   25DOPE    HS 3116   5.513   6.924  13.083  1.0333 -1.6884  3.2730
   25DOPE   O21 3117   5.644   7.045  12.980  0.3578 -0.3137 -0.0651
   25DOPE   C21 3118   5.706   6.967  12.901 -0.1568  0.7868  0.0404
   25DOPE   O22 3119   5.704   6.846  12.897  0.3411  0.1762 -0.0013
   25DOPE   C22 3120   5.783   7.051  12.795 -0.0125  0.2645 -0.6546
   25DOPE   H2R 3121   5.761   7.158  12.817 -1.9242 -0.6390  2.4426
   25DOPE   H2S 3122   5.730   7.031  12.699 -0.4704 -1.3044 -0.0980
   25DOPE    C3 3123   5.489   7.111  13.160 -0.7806  0.0758 -0.2061
   25DOPE    HX 3124   5.554   7.194  13.195 -0.0906 -0.9933  1.2135
   25DOPE    HY 3125   5.453   7.079  13.260  4.3443 -1.7828  1.4034
   25DOPE   O31 3126   5.391   7.151  13.067  0.2039 -0.4589  0.9728
   25DOPE   C31 3127   5.414   7.279  13.013 -0.5077 -0.0381  0.4525
   25DOPE   O32 3128   5.513   7.349  13.032 -0.2903  0.0291  0.3723
   25DOPE   C32 3129   5.309   7.302  12.913  0.0739 -0.0787 -0.1554
   25DOPE   H2X 3130   5.250   7.212  12.885  1.3518 -0.2476 -2.5286
   25DOPE   H2Y 3131   5.231   7.364  12.964  0.3192  1.1455 -1.2182
   25DOPE   C23 3132   5.936   7.015  12.796  0.6105 -0.1684 -0.8334
   25DOPE   H3R 3133   5.945   6.910  12.760 -0.8727 -0.9469  0.9125
   25DOPE   H3S 3134   5.982   7.024  12.897 -3.2900 -1.0948  1.2542
   25DOPE   C24 3135   6.007   7.111  12.700 -0.7253 -0.1700 -0.0918
   25DOPE   H4R 3136   6.009   7.216  12.737 -1.4614 -0.0712 -0.3086
   25DOPE   H4S 3137   5.957   7.117  12.601 -0.3519 -0.7079 -0.3222
   25DOPE   C25 3138   6.155   7.072  12.683 -0.2688  0.5777  0.6669
   25DOPE   H5R 3139   6.166   6.976  12.628 -0.7761  1.9770 -2.0704
   25DOPE   H5S 3140   6.186   7.049  12.787  0.3690 -1.5894  0.0472
   25DOPE   C26 3141   6.249   7.180  12.618  0.3403 -0.5015  0.7760
   25DOPE   H6R 3142   6.354   7.155  12.646  0.9856  1.8168  0.6366
   25DOPE   H6S 3143   6.229   7.285  12.649  0.8677 -0.4181  0.8485
   25DOPE   C27 3144   6.249   7.173  12.466 -0.1920 -0.0918 -0.0111
   25DOPE   H7R 3145   6.147   7.179  12.422 -0.3398  1.7190  0.5010
   25DOPE   H7S 3146   6.287   7.073  12.433 -1.7078 -0.5136 -0.5909
   25DOPE   C28 3147   6.330   7.282  12.383  0.0347 -0.9494 -0.2803
   25DOPE   H8R 3148   6.345   7.241  12.281  1.1380  2.2970 -1.5296
   25DOPE   H8S 3149   6.426   7.292  12.438 -0.2619  2.9981 -0.2012
   25DOPE   C29 3150   6.270   7.419  12.389  0.0894 -0.8372  0.2880
   25DOPE   H9R 3151   6.215   7.442  12.481 -2.1131  1.0647 -1.3926
   25DOPE  C210 3152   6.253   7.503  12.288  0.1090  0.3733  0.5100
   25DOPE  H10R 3153   6.191   7.592  12.307  2.1121  2.1759 -0.9078
   25DOPE  C211 3154   6.322   7.479  12.152  0.3708 -0.0833  0.4967
   25DOPE  H11R 3155   6.264   7.407  12.090 -2.9433  2.7333 -0.0149
   25DOPE  H11S 3156   6.430   7.458  12.161  0.2613 -0.3582  1.2672
   25DOPE  C212 3157   6.317   7.610  12.063  0.6552 -0.0490  0.0116
   25DOPE  H12R 3158   6.209   7.616  12.037  0.5349  0.0503  0.5295
   25DOPE  H12S 3159   6.372   7.598  11.967 -2.6420  0.3902 -2.0958
   25DOPE  C213 3160   6.373   7.736  12.130  0.2960  0.1664  0.9176
   25DOPE  H13R 3161   6.472   7.704  12.167  0.5329  0.6414  0.6974
   25DOPE  H13S 3162   6.316   7.775  12.217  0.2894  1.4410  0.3638
   25DOPE  C214 3163   6.385   7.853  12.030  0.3609 -0.0421  0.2160
   25DOPE  H14R 3164   6.283   7.876  11.993 -0.9824 -0.2100  3.4350
   25DOPE  H14S 3165   6.439   7.807  11.945  1.1805  1.3375 -0.0333
   25DOPE  C215 3166   6.456   7.967  12.092  0.0838  0.0186  0.1021
   25DOPE  H15R 3167   6.553   7.927  12.129  0.2851  0.7111  0.3360
   25DOPE  H15S 3168   6.407   8.010  12.182 -1.5166 -0.4903 -0.4979
   25DOPE  C216 3169   6.494   8.087  12.001  0.6048 -0.7345  0.9617
   25DOPE  H16R 3170   6.411   8.160  11.988  0.8627 -0.7253 -0.7751
   25DOPE  H16S 3171   6.524   8.061  11.898 -1.9263 -2.1282  0.4906
   25DOPE  C217 3172   6.624   8.154  12.049 -0.2722 -0.2137  0.0668
   25DOPE  H17R 3173   6.710   8.086  12.032 -1.1111 -0.4306 -5.2536
   25DOPE  H17S 3174   6.629   8.185  12.155  1.8972  2.2616 -0.6841
   25DOPE  C218 3175   6.645   8.285  11.976 -0.0510 -0.1338 -0.0972
   25DOPE  H18R 3176   6.731   8.346  12.011 -1.7641  0.6962  3.0759
   25DOPE  H18S 3177   6.555   8.347  11.992  1.0716  0.8635  3.3276
   25DOPE  H18T 3178   6.656   8.263  11.868  0.3552  0.4773 -0.1809
   25DOPE   C33 3179   5.358   7.375  12.788 -0.7624  0.1466 -0.3449
   25DOPE   H3X 3180   5.400   7.472  12.825  0.4719 -0.3529 -0.3716
   25DOPE   H3Y 3181   5.271   7.398  12.724 -1.6837 -1.7228  0.1830
   25DOPE   C34 3182   5.447   7.290  12.695 -0.5511 -0.2184  0.1617
   25DOPE   H4X 3183   5.457   7.343  12.598  0.0708 -1.3370 -0.4102
   25DOPE   H4Y 3184   5.548   7.279  12.741 -1.6298 -1.9880  2.2954
   25DOPE   C35 3185   5.385   7.154  12.659 -0.2206  0.1770 -0.2600
   25DOPE   H5X 3186   5.275   7.153  12.643 -0.1463  1.5120 -1.0145
   25DOPE   H5Y 3187   5.403   7.079  12.739 -0.4686  0.7716  0.3665
   25DOPE   C36 3188   5.449   7.116  12.521  0.4279  0.0918  0.1985
   25DOPE   H6X 3189   5.556   7.148  12.522  0.3021  0.5019  1.1647
   25DOPE   H6Y 3190   5.392   7.180  12.450 -1.2264 -0.4651  1.0004
   25DOPE   C37 3191   5.443   6.967  12.475  0.0970  0.0315 -0.3677
   25DOPE   H7X 3192   5.454   6.896  12.560 -0.3558  0.9001  0.4358
   25DOPE   H7Y 3193   5.339   6.955  12.437  0.6224  0.3845 -2.0174
   25DOPE   C38 3194   5.541   6.939  12.363  0.7997 -0.4403 -0.4713
   25DOPE   H8X 3195   5.524   6.999  12.271  2.0994 -0.4034 -0.7067
   25DOPE   H8Y 3196   5.518   6.839  12.320  1.7106 -0.9376  0.1709
   25DOPE   C39 3197   5.680   6.918  12.406 -0.7702 -1.1347 -0.3357
   25DOPE   H9X 3198   5.697   6.833  12.474  1.1891  0.6430  1.5610
   25DOPE  C310 3199   5.784   6.998  12.364 -0.0408 -0.0657  0.4593
   25DOPE  H10X 3200   5.888   6.972  12.390 -0.0325 -1.4085 -0.7410
   25DOPE  C311 3201   5.774   7.123  12.280 -0.1175  1.1604  0.1037
   25DOPE  H11X 3202   5.821   7.090  12.185  2.3301  1.1045  1.2566
   25DOPE  H11Y 3203   5.667   7.153  12.269 -0.8454 -0.8503  0.9774
   25DOPE  C312 3204   5.861   7.235  12.324  0.3181  0.4787 -0.4437
   25DOPE  H12X 3205   5.964   7.192  12.324 -0.0244 -0.3837  0.6238
   25DOPE  H12Y 3206   5.838   7.258  12.430  1.8694 -0.8993  0.2482
   25DOPE  C313 3207   5.850   7.361  12.238 -0.0277  0.5034 -0.1702
   25DOPE  H13X 3208   5.763   7.418  12.278 -1.0736 -2.0885  1.5534
   25DOPE  H13Y 3209   5.935   7.432  12.238 -1.9339  3.0532  2.8324
   25DOPE  C314 3210   5.816   7.330  12.094  0.0078  0.1146  0.6549
   25DOPE  H14X 3211   5.713   7.290  12.087 -0.4032  0.9375  1.6549
   25DOPE  H14Y 3212   5.889   7.257  12.054  0.3657  0.9746 -0.2794
   25DOPE  C315 3213   5.828   7.447  11.999  0.2629  0.0380  0.2088
   25DOPE  H15X 3214   5.929   7.489  12.020 -0.3223  1.1831  0.8695
   25DOPE  H15Y 3215   5.747   7.518  12.030  1.6755  1.0359  1.7795
   25DOPE  C316 3216   5.825   7.401  11.857  0.0838  0.2006  1.1947
   25DOPE  H16X 3217   5.894   7.315  11.845 -0.9026 -0.4864  0.2313
   25DOPE  H16Y 3218   5.848   7.483  11.786  0.4935  0.1271  1.2382
   25DOPE  C317 3219   5.686   7.361  11.803 -0.1810 -0.1720 -0.7161
   25DOPE  H17X 3220   5.637   7.289  11.872 -1.7075  1.0985 -0.4308
   25DOPE  H17Y 3221   5.626   7.454  11.808  0.1098 -0.0492  1.9269
   25DOPE  C318 3222   5.667   7.305  11.665 -0.5129  0.3772  0.0891
   25DOPE  H18X 3223   5.704   7.375  11.587  2.8355 -1.6158 -0.3067
   25DOPE  H18Y 3224   5.729   7.213  11.657  0.3116  1.0491 -1.8122
   25DOPE  H18Z 3225   5.559   7.282  11.651 -1.1811  2.1557  1.8018
   26DOPE     N 3226   7.240   7.593  13.453 -0.4735  0.4611 -0.5270
   26DOPE   HN1 3227   7.252   7.627  13.551 -2.0494  0.1378 -0.2070
   26DOPE   HN2 3228   7.142   7.564  13.438  0.2792 -2.7321 -0.0988
   26DOPE   HN3 3229   7.289   7.505  13.427 -0.2507 -0.0695  1.5063
   26DOPE   C12 3230   7.279   7.709  13.371  0.0124  0.1529 -0.2309
   26DOPE  H12A 3231   7.237   7.693  13.269 -1.8773  1.0689  0.3547
   26DOPE  H12B 3232   7.389   7.710  13.363  0.0451  0.5694  0.2555
   26DOPE   C11 3233   7.227   7.833  13.437  0.3046 -0.1397 -0.0140
   26DOPE  H11A 3234   7.282   7.920  13.394 -0.3262  0.4894  0.4280
   26DOPE  H11B 3235   7.250   7.825  13.545 -0.4214 -2.8879 -0.0004
   26DOPE     P 3236   7.010   7.971  13.388  0.1150 -0.1686 -0.3978
   26DOPE   O13 3237   7.099   8.088  13.410 -0.4354  0.2257  0.3037
   26DOPE   O14 3238   6.878   7.980  13.455 -0.0444 -0.3729  0.2508
   26DOPE   O11 3239   6.979   7.956  13.234 -0.1753 -0.3615 -0.1808
   26DOPE   O12 3240   7.086   7.835  13.423  0.5984 -0.4780 -0.0971
   26DOPE    C1 3241   6.927   7.834  13.185 -0.0606 -0.0728  0.4115
   26DOPE    HA 3242   6.821   7.850  13.159 -0.4372  0.7512  2.2372
   26DOPE    HB 3243   6.929   7.738  13.241 -1.1551 -1.2138 -1.4453
   26DOPE    C2 3244   7.002   7.783  13.058 -0.3686  0.3468 -0.6701
   26DOPE    HS 3245   7.104   7.775  13.101 -0.3869 -0.8209 -0.7922
   26DOPE   O21 3246   6.989   7.873  12.944 -0.3031  0.0646  0.0941
   26DOPE   C21 3247   7.088   7.868  12.860 -0.1665  0.3872 -0.9074
   26DOPE   O22 3248   7.191   7.801  12.879  0.5254  0.1376 -0.2782
   26DOPE   C22 3249   7.057   7.954  12.733  0.1668 -0.3905  0.1681
   26DOPE   H2R 3250   7.024   8.056  12.762  0.1426 -0.1985 -0.5077
   26DOPE   H2S 3251   6.970   7.903  12.684  0.2897  0.2981 -0.7819
   26DOPE    C3 3252   6.973   7.634  13.005  0.6890  0.4865 -0.0740
   26DOPE    HX 3253   6.998   7.556  13.080  0.2186  0.4557  0.0537
   26DOPE    HY 3254   7.040   7.614  12.919  0.1984 -2.9512  0.2158
   26DOPE   O31 3255   6.833   7.629  12.958  0.2454 -0.2986  0.1166
   26DOPE   C31 3256   6.794   7.510  12.928  0.3132  0.9412  0.1002
   26DOPE   O32 3257   6.854   7.406  12.946 -0.5290 -0.1651  0.4001
   26DOPE   C32 3258   6.648   7.512  12.886 -0.5168 -0.3086  0.2921
   26DOPE   H2X 3259   6.583   7.467  12.965 -1.3369 -2.9769 -1.7536
   26DOPE   H2Y 3260   6.610   7.612  12.858 -0.5421 -0.0984  1.0398
   26DOPE   C23 3261   7.175   7.953  12.631  0.0787  0.1352 -0.7752
   26DOPE   H3R 3262   7.116   7.975  12.540  0.1895  1.7358 -0.4797
   26DOPE   H3S 3263   7.208   7.847  12.627 -1.0715 -0.2431 -0.5951
   26DOPE   C24 3264   7.285   8.059  12.652  0.4630  0.2493  0.3289
   26DOPE   H4R 3265   7.369   8.012  12.708 -0.6016 -2.3544 -0.1065
   26DOPE   H4S 3266   7.242   8.147  12.705  2.1649  0.9393  0.6417
   26DOPE   C25 3267   7.350   8.114  12.523  0.2285  0.0774 -0.0242
   26DOPE   H5R 3268   7.439   8.172  12.557  0.1053 -0.6498  1.6203
   26DOPE   H5S 3269   7.271   8.179  12.478  0.9387 -0.0255 -1.4785
   26DOPE   C26 3270   7.400   8.005  12.424 -0.2012 -0.3919 -0.1427
   26DOPE   H6R 3271   7.311   7.949  12.389  1.1902 -1.1876 -2.5727
   26DOPE   H6S 3272   7.475   7.933  12.464  1.1093  0.6172 -0.7399
   26DOPE   C27 3273   7.453   8.063  12.292  0.0778 -0.6728  0.8561
   26DOPE   H7R 3274   7.532   8.134  12.326 -0.2027 -0.6532  1.4875
   26DOPE   H7S 3275   7.367   8.119  12.250 -0.1629 -1.5723  0.1443
   26DOPE   C28 3276   7.508   7.965  12.181 -0.0775 -0.7836 -0.3278
   26DOPE   H8R 3277   7.586   7.906  12.234 -1.0840 -2.0666 -0.2404
   26DOPE   H8S 3278   7.540   8.039  12.105 -0.8891  1.9537  1.8132
   26DOPE   C29 3279   7.405   7.871  12.126 -0.6048  0.5183 -0.1631
   26DOPE   H9R 3280   7.333   7.827  12.196  0.2639  0.5829  0.7958
   26DOPE  C210 3281   7.390   7.843  11.995 -0.3438 -0.0488  0.7137
   26DOPE  H10R 3282   7.319   7.772  11.950 -0.6141  0.1554  0.8137
   26DOPE  C211 3283   7.479   7.918  11.892  0.4315  0.3714 -0.4934
   26DOPE  H11R 3284   7.476   7.860  11.798 -1.3382 -1.6970  0.7483
   26DOPE  H11S 3285   7.581   7.910  11.935 -0.5197  1.0939  2.0695
   26DOPE  C212 3286   7.444   8.060  11.853  0.6665 -0.2707  0.3737
   26DOPE  H12R 3287   7.423   8.118  11.946 -0.4410 -0.0946  0.0257
   26DOPE  H12S 3288   7.354   8.050  11.789  1.6870 -2.5263 -0.8054
   26DOPE  C213 3289   7.558   8.126  11.764 -0.1770  0.3091  0.2221
   26DOPE  H13R 3290   7.649   8.122  11.828 -0.7706  0.9048  1.1225
   26DOPE  H13S 3291   7.544   8.236  11.767 -2.1369  0.1406 -0.9046
   26DOPE  C214 3292   7.581   8.053  11.622  0.1782 -0.1647 -0.4938
   26DOPE  H14R 3293   7.590   7.943  11.638 -1.0756  0.0588  2.5156
   26DOPE  H14S 3294   7.679   8.089  11.584 -0.4023 -0.5203 -2.4229
   26DOPE  C215 3295   7.460   8.101  11.536 -0.0742 -0.2382 -0.4064
   26DOPE  H15R 3296   7.459   8.212  11.531 -0.0321 -0.2449 -0.5897
   26DOPE  H15S 3297   7.358   8.083  11.578 -0.0575 -1.2351 -0.7605
   26DOPE  C216 3298   7.463   8.046  11.394 -0.3196  0.8071  0.1453
   26DOPE  H16R 3299   7.564   8.061  11.349  0.5902 -2.6081  0.7373
   26DOPE  H16S 3300   7.399   8.107  11.329  0.1473  1.0428 -0.0966
   26DOPE  C217 3301   7.431   7.897  11.375  0.1018 -0.2267 -0.1666
   26DOPE  H17R 3302   7.445   7.828  11.461 -0.7388 -0.4243 -0.1828
   26DOPE  H17S 3303   7.493   7.861  11.290  1.8005  0.3525  0.7719
   26DOPE  C218 3304   7.282   7.889  11.334  0.1242 -0.8422 -0.4803
   26DOPE  H18R 3305   7.215   7.947  11.402 -0.1379  0.2806 -1.6392
   26DOPE  H18S 3306   7.244   7.786  11.346 -1.4774 -0.1563  0.7277
   26DOPE  H18T 3307   7.264   7.934  11.233  1.3063  1.3910  0.2260
   26DOPE   C33 3308   6.631   7.412  12.758  0.1255 -0.0636  0.3641
   26DOPE   H3X 3309   6.524   7.384  12.757  0.5141 -1.8670  2.0035
   26DOPE   H3Y 3310   6.683   7.320  12.794  0.7139  0.1702  0.1351
   26DOPE   C34 3311   6.685   7.468  12.626  0.0942  0.7159 -0.0060
   26DOPE   H4X 3312   6.788   7.505  12.644  0.9623 -0.1381 -2.7030
   26DOPE   H4Y 3313   6.698   7.386  12.552  0.2299 -0.4440  1.2564
   26DOPE   C35 3314   6.603   7.588  12.565 -0.3860 -0.2511  0.0349
   26DOPE   H5X 3315   6.611   7.673  12.636  1.8797 -0.7642  0.4568
   26DOPE   H5Y 3316   6.495   7.562  12.575 -0.6838  0.1544 -1.8617
   26DOPE   C36 3317   6.632   7.627  12.425 -0.2278  0.2982 -0.3851
   26DOPE   H6X 3318   6.593   7.731  12.429 -1.2924 -0.1099  1.1062
   26DOPE   H6Y 3319   6.570   7.577  12.347 -0.5343  2.6360 -1.7221
   26DOPE   C37 3320   6.784   7.634  12.382  0.9283 -0.2232  0.0305
   26DOPE   H7X 3321   6.847   7.674  12.464 -0.0809  0.1040  0.6730
   26DOPE   H7Y 3322   6.811   7.531  12.351  0.3493 -0.3562 -0.0482
   26DOPE   C38 3323   6.797   7.730  12.260 -0.1878 -0.1163  1.1997
   26DOPE   H8X 3324   6.742   7.825  12.265 -0.4282 -0.0522 -1.3134
   26DOPE   H8Y 3325   6.751   7.671  12.177  1.1518 -1.4481  1.3522
   26DOPE   C39 3326   6.940   7.753  12.209  0.0047 -0.4920 -0.6405
   26DOPE   H9X 3327   6.999   7.660  12.205 -1.5612 -1.4881 -2.7179
   26DOPE  C310 3328   7.005   7.875  12.199  0.2789 -0.1450  0.1216
   26DOPE  H10X 3329   7.106   7.884  12.157 -0.4758  2.9398 -1.3814
   26DOPE  C311 3330   6.938   8.011  12.233 -0.3750  0.6135  0.1906
   26DOPE  H11X 3331   6.828   7.998  12.238 -0.7693  2.9780 -1.1137
   26DOPE  H11Y 3332   6.981   8.031  12.334  1.3184 -0.0760 -0.3571
   26DOPE  C312 3333   6.967   8.128  12.136 -0.7636 -0.5604 -0.3097
   26DOPE  H12X 3334   6.939   8.217  12.197  0.2971 -0.6526  0.3422
   26DOPE  H12Y 3335   6.913   8.147  12.041 -0.4431 -0.1917 -0.4198
   26DOPE  C313 3336   7.115   8.151  12.102 -0.7414  0.7634 -0.3498
   26DOPE  H13X 3337   7.167   8.178  12.196  0.0849 -0.6872 -0.3611
   26DOPE  H13Y 3338   7.173   8.061  12.073  2.4677  2.4212  0.4426
   26DOPE  C314 3339   7.136   8.265  12.000  0.1508  0.5045  0.0173
   26DOPE  H14X 3340   7.093   8.242  11.900  1.5584 -2.8723  0.0367
   26DOPE  H14Y 3341   7.246   8.256  11.986  0.1928  1.6879 -0.5183
   26DOPE  C315 3342   7.105   8.409  12.046 -0.4093 -0.4926  0.0487
   26DOPE  H15X 3343   7.156   8.436  12.141 -2.2198  1.1781  0.6304
   26DOPE  H15Y 3344   6.996   8.410  12.071 -0.4599 -0.2578 -0.1720
   26DOPE  C316 3345   7.137   8.510  11.942  0.4597  0.0702 -0.1089
   26DOPE  H16X 3346   7.246   8.525  11.927  0.4751  1.2660  1.0335
   26DOPE  H16Y 3347   7.099   8.609  11.976  0.7525  0.6611 -1.4144
   26DOPE  C317 3348   7.084   8.488  11.799  0.0348 -0.2258 -0.1346
   26DOPE  H17X 3349   7.116   8.386  11.766  2.5551  0.1665  0.8704
   26DOPE  H17Y 3350   6.974   8.501  11.805  0.2039  0.7816  4.4904
   26DOPE  C318 3351   7.135   8.583  11.690 -0.0625  0.0982  0.9788
   26DOPE  H18X 3352   7.104   8.685  11.722 -0.8628  0.5319 -1.0297
   26DOPE  H18Y 3353   7.244   8.574  11.670 -0.5885 -1.8975 -1.4785
   26DOPE  H18Z 3354   7.084   8.561  11.594  1.8187  1.5136 -0.4166
   27DOPE     N 3355   3.732   3.898  12.793  0.4578 -0.3970  0.8819
   27DOPE   HN1 3356   3.717   3.958  12.877 -0.6281  1.8585 -0.8290
   27DOPE   HN2 3357   3.835   3.896  12.775  0.1981  0.8001 -0.9516
   27DOPE   HN3 3358   3.685   3.958  12.722 -2.6852 -1.6114  1.7774
   27DOPE   C12 3359   3.656   3.767  12.808 -0.5813  0.8393  0.1577
   27DOPE  H12A 3360   3.556   3.772  12.759 -0.6550 -1.8254 -0.0786
   27DOPE  H12B 3361   3.634   3.751  12.916 -1.5375 -0.7606 -0.2432
   27DOPE   C11 3362   3.736   3.656  12.739 -0.3938 -0.3050  0.1284
   27DOPE  H11A 3363   3.763   3.686  12.635  3.6898  0.7279  1.2610
   27DOPE  H11B 3364   3.677   3.563  12.732 -1.9960  0.7752 -1.3295
   27DOPE     P 3365   3.903   3.544  12.915 -0.1656 -0.0490  0.1987
   27DOPE   O13 3366   3.811   3.560  13.033  0.1889  0.4814  0.1335
   27DOPE   O14 3367   4.043   3.572  12.948 -0.1227 -0.4229  0.3556
   27DOPE   O11 3368   3.877   3.398  12.854  0.1114 -0.1547 -0.4304
   27DOPE   O12 3369   3.863   3.638  12.797 -0.7086  0.6051 -0.2271
   27DOPE    C1 3370   3.976   3.355  12.759 -0.3941 -0.3029 -0.2590
   27DOPE    HA 3371   4.012   3.255  12.790  1.4142  0.3358 -0.1654
   27DOPE    HB 3372   4.075   3.407  12.757  1.5183 -3.6747  0.0796
   27DOPE    C2 3373   3.916   3.353  12.617 -0.5263 -0.3451  0.4257
   27DOPE    HS 3374   3.814   3.390  12.642 -0.7476  0.2598 -1.2554
   27DOPE   O21 3375   3.919   3.220  12.567 -0.8324  0.3076 -0.3713
   27DOPE   C21 3376   3.803   3.168  12.547 -0.5266 -0.0099 -0.5672
   27DOPE   O22 3377   3.692   3.210  12.571  0.3486  0.5389  0.3988
   27DOPE   C22 3378   3.831   3.030  12.480  0.1646 -0.0592  0.1544
   27DOPE   H2R 3379   3.909   2.986  12.546  0.5021  1.1214  0.5652
   27DOPE   H2S 3380   3.870   3.052  12.379 -0.2862  1.0737  0.2098
   27DOPE    C3 3381   3.980   3.445  12.511  0.8053 -0.1219  0.2046
   27DOPE    HX 3382   4.087   3.415  12.516  2.1457  3.9696  0.1355
   27DOPE    HY 3383   3.976   3.545  12.559 -0.8796  0.0704 -0.2753
   27DOPE   O31 3384   3.942   3.428  12.369  0.2721  0.2458 -0.3850
   27DOPE   C31 3385   3.828   3.485  12.339  0.1885 -0.0917  0.6118
   27DOPE   O32 3386   3.758   3.560  12.405  0.1605  0.4588  0.0303
   27DOPE   C32 3387   3.784   3.433  12.203 -0.0860  0.8451  0.1485
   27DOPE   H2X 3388   3.811   3.510  12.128 -2.8722  0.3731 -1.4690
   27DOPE   H2Y 3389   3.838   3.340  12.173 -1.7327 -0.3682  0.8037
   27DOPE   C23 3390   3.712   2.936  12.494 -0.3195 -0.5521 -0.5087
   27DOPE   H3R 3391   3.627   2.984  12.442  0.8060  2.0550 -0.1197
   27DOPE   H3S 3392   3.685   2.910  12.599  0.7500 -1.4355 -0.4319
   27DOPE   C24 3393   3.740   2.811  12.417  0.1167  0.0684  0.1286
   27DOPE   H4R 3394   3.743   2.825  12.307 -3.0209 -0.9219 -0.1856
   27DOPE   H4S 3395   3.658   2.737  12.432 -1.2541  1.1111 -1.8457
   27DOPE   C25 3396   3.865   2.726  12.468  0.3120 -0.3450 -0.3331
   27DOPE   H5R 3397   3.957   2.781  12.443  1.5261 -0.7830  2.7418
   27DOPE   H5S 3398   3.861   2.632  12.409 -0.5125 -1.9039  2.0217
   27DOPE   C26 3399   3.871   2.698  12.620  0.6081  0.2199 -0.3637
   27DOPE   H6R 3400   3.766   2.701  12.658  1.3955  3.3542  1.9633
   27DOPE   H6S 3401   3.914   2.787  12.671  0.7337 -1.1556  2.0696
   27DOPE   C27 3402   3.930   2.566  12.671  0.5606 -0.3996  0.5028
   27DOPE   H7R 3403   3.856   2.484  12.662 -0.8554  0.9719 -1.0157
   27DOPE   H7S 3404   3.955   2.580  12.779  1.2892 -1.2911  0.4580
   27DOPE   C28 3405   4.059   2.523  12.592 -0.0584  0.0089  0.2787
   27DOPE   H8R 3406   4.039   2.509  12.484  0.3371 -0.4041  0.2527
   27DOPE   H8S 3407   4.067   2.417  12.625  2.5177 -0.2387 -0.8577
   27DOPE   C29 3408   4.187   2.606  12.613  0.2147 -0.3322  0.1191
   27DOPE   H9R 3409   4.230   2.611  12.714 -0.0269  1.0788  0.1731
   27DOPE  C210 3410   4.254   2.680  12.518  1.0952  1.1123 -0.1876
   27DOPE  H10R 3411   4.348   2.728  12.548  1.4327 -0.2012  0.9819
   27DOPE  C211 3412   4.239   2.672  12.369  0.1724  0.2426  0.6649
   27DOPE  H11R 3413   4.258   2.776  12.336  2.6837 -0.3790 -0.1347
   27DOPE  H11S 3414   4.132   2.658  12.343  0.3908  2.3702 -1.7740
   27DOPE  C212 3415   4.334   2.575  12.301 -0.2571  0.1245  0.1751
   27DOPE  H12R 3416   4.305   2.479  12.349 -0.3045 -0.0284 -0.1529
   27DOPE  H12S 3417   4.437   2.606  12.327 -0.4239  2.2966 -1.4532
   27DOPE  C213 3418   4.321   2.579  12.152  0.1233 -0.2461  0.2391
   27DOPE  H13R 3419   4.356   2.677  12.113 -1.1539 -0.0310 -0.4003
   27DOPE  H13S 3420   4.212   2.565  12.134 -0.0180  1.2048 -0.1311
   27DOPE  C214 3421   4.392   2.462  12.082  0.5939  0.1873 -0.2769
   27DOPE  H14R 3422   4.341   2.366  12.107 -1.7268  1.3081 -0.4471
   27DOPE  H14S 3423   4.497   2.455  12.119  0.8120 -0.2775 -0.9632
   27DOPE  C215 3424   4.385   2.479  11.930 -0.1425 -0.4796  0.3482
   27DOPE  H15R 3425   4.462   2.412  11.887 -0.5707  0.0017 -1.2337
   27DOPE  H15S 3426   4.418   2.582  11.902  2.7994 -1.1406  1.0216
   27DOPE  C216 3427   4.249   2.444  11.861 -0.9136 -0.3913  0.0163
   27DOPE  H16R 3428   4.172   2.523  11.872 -0.6690  0.0133 -1.1210
   27DOPE  H16S 3429   4.205   2.352  11.906 -3.5887  0.3945 -0.8160
   27DOPE  C217 3430   4.259   2.415  11.708  0.1550  0.0602 -0.3817
   27DOPE  H17R 3431   4.276   2.306  11.709 -4.1806 -0.8205  1.9715
   27DOPE  H17S 3432   4.343   2.466  11.655  1.3414 -0.2079  1.1652
   27DOPE  C218 3433   4.133   2.442  11.634 -0.1276  0.2183  0.1185
   27DOPE  H18R 3434   4.060   2.377  11.687 -0.2490 -2.5174 -3.0129
   27DOPE  H18S 3435   4.132   2.404  11.529  0.2174  0.7465 -0.0824
   27DOPE  H18T 3436   4.109   2.550  11.629  0.6341  0.3766 -0.2264
   27DOPE   C33 3437   3.629   3.415  12.188  0.2816  0.1995 -0.5832
   27DOPE   H3X 3438   3.604   3.419  12.079 -1.4586  0.6469 -0.1972
   27DOPE   H3Y 3439   3.575   3.500  12.234  1.7376  1.7525 -1.6223
   27DOPE   C34 3440   3.587   3.279  12.240 -0.3904 -0.0920 -0.1995
   27DOPE   H4X 3441   3.626   3.270  12.343  1.2744  0.7803 -0.7097
   27DOPE   H4Y 3442   3.477   3.269  12.228 -0.5802  0.5349  0.9646
   27DOPE   C35 3443   3.628   3.163  12.141 -0.1092 -0.6736  0.7983
   27DOPE   H5X 3444   3.731   3.126  12.160  0.1458  0.5489  1.9741
   27DOPE   H5Y 3445   3.628   3.210  12.040 -0.5848 -1.2976  0.5010
   27DOPE   C36 3446   3.531   3.044  12.154  0.0850  0.3638 -0.1015
   27DOPE   H6X 3447   3.427   3.066  12.119  0.4775 -2.1916 -3.2900
   27DOPE   H6Y 3448   3.520   3.027  12.263  1.2279  1.9341  0.2939
   27DOPE   C37 3449   3.578   2.907  12.088  0.6951 -0.8028 -1.2568
   27DOPE   H7X 3450   3.688   2.904  12.079  0.7498 -0.9573 -0.6089
   27DOPE   H7Y 3451   3.548   2.820  12.152 -2.7897  0.7043 -0.5863
   27DOPE   C38 3452   3.519   2.886  11.946  0.0525 -0.3747  0.3341
   27DOPE   H8X 3453   3.410   2.873  11.966  0.3079  0.4336  2.5575
   27DOPE   H8Y 3454   3.553   2.788  11.909 -1.1913  0.2480 -2.8221
   27DOPE   C39 3455   3.556   2.998  11.851 -0.2785  0.0431  0.1633
   27DOPE   H9X 3456   3.518   3.099  11.872  0.1269  0.2562 -0.1134
   27DOPE  C310 3457   3.639   2.983  11.749 -0.0086  0.3742 -0.6035
   27DOPE  H10X 3458   3.673   3.075  11.700 -0.3595  0.6894 -0.2574
   27DOPE  C311 3459   3.698   2.851  11.705 -0.4879 -0.3184  0.3241
   27DOPE  H11X 3460   3.806   2.848  11.732 -0.4874  0.8280  0.5199
   27DOPE  H11Y 3461   3.659   2.753  11.739  1.2422 -0.4189  2.1914
   27DOPE  C312 3462   3.697   2.841  11.549 -0.3628 -0.7058  0.0008
   27DOPE  H12X 3463   3.729   2.936  11.502 -0.8200 -1.1376 -1.2056
   27DOPE  H12Y 3464   3.593   2.825  11.514 -0.7397  2.9745 -0.9237
   27DOPE  C313 3465   3.796   2.736  11.501  0.0993  0.2287  0.7128
   27DOPE  H13X 3466   3.803   2.648  11.569 -1.7868 -0.8707 -0.4324
   27DOPE  H13Y 3467   3.753   2.691  11.408  3.0669 -0.1679 -0.6113
   27DOPE  C314 3468   3.939   2.776  11.472 -0.0427  0.4482  0.0250
   27DOPE  H14X 3469   3.993   2.774  11.569  0.7569  0.6233 -0.4066
   27DOPE  H14Y 3470   3.954   2.878  11.431  0.5014  0.9593  1.4475
   27DOPE  C315 3471   4.002   2.679  11.375  0.4837  0.3344  0.0916
   27DOPE  H15X 3472   3.939   2.677  11.284  1.2932  0.3999 -0.4715
   27DOPE  H15Y 3473   3.992   2.573  11.410  1.1015  0.2658  0.0616
   27DOPE  C316 3474   4.149   2.685  11.346 -1.0133 -0.3509 -0.1549
   27DOPE  H16X 3475   4.205   2.674  11.441  1.7807  1.6699 -1.4354
   27DOPE  H16Y 3476   4.168   2.789  11.310  1.9886 -1.0466 -0.8122
   27DOPE  C317 3477   4.192   2.595  11.237 -0.5928 -0.6326 -0.6500
   27DOPE  H17X 3478   4.299   2.572  11.250 -0.7880 -0.3318  1.9013
   27DOPE  H17Y 3479   4.154   2.490  11.228  3.1867 -2.2442  0.3713
   27DOPE  C318 3480   4.174   2.651  11.099 -0.0570 -0.1999 -0.4916
   27DOPE  H18X 3481   4.256   2.726  11.090  0.0446 -0.2174  0.2287
   27DOPE  H18Y 3482   4.185   2.574  11.020 -2.3792 -1.7835  0.6168
   27DOPE  H18Z 3483   4.077   2.705  11.086  0.2234  0.1684 -1.1052
   28DOPE     N 3484   7.806   1.125  13.029 -0.0802 -0.1091  0.1085
   28DOPE   HN1 3485   7.855   1.041  12.991 -1.7659  0.2012 -3.0665
   28DOPE   HN2 3486   7.792   1.099  13.128  4.4580  0.3638  1.0835
   28DOPE   HN3 3487   7.714   1.123  12.981 -1.2938 -1.3968  2.3598
   28DOPE   C12 3488   7.877   1.249  13.002 -0.6722  0.1202 -0.7723
   28DOPE  H12A 3489   7.839   1.331  13.066 -2.2027 -0.2381 -1.1818
   28DOPE  H12B 3490   7.859   1.283  12.898  2.0156  0.8721 -1.0793
   28DOPE   C11 3491   8.031   1.227  13.031 -0.3543  0.3425  0.3702
   28DOPE  H11A 3492   8.038   1.203  13.139 -0.9184 -3.0938 -0.2623
   28DOPE  H11B 3493   8.075   1.327  13.008 -0.2102 -0.2509 -2.3259
   28DOPE     P 3494   8.231   1.095  12.945  0.6804 -0.0271  0.0133
   28DOPE   O13 3495   8.257   1.011  13.067  0.4394  0.3230 -0.5517
   28DOPE   O14 3496   8.296   1.224  12.937  0.1937  0.1415  0.0237
   28DOPE   O11 3497   8.244   1.005  12.813  0.1414  0.0868  0.0491
   28DOPE   O12 3498   8.074   1.121  12.951 -0.6212 -0.4681 -0.2079
   28DOPE    C1 3499   8.140   0.911  12.785  0.1856 -0.3122 -0.0368
   28DOPE    HA 3500   8.077   0.887  12.873  0.1843 -0.8211 -0.1726
   28DOPE    HB 3501   8.193   0.819  12.752 -1.3354 -1.3345  0.2901
   28DOPE    C2 3502   8.058   0.979  12.671 -0.5325 -0.5605  0.5209
   28DOPE    HS 3503   8.019   1.076  12.707 -1.1469  0.6270 -2.9577
   28DOPE   O21 3504   7.956   0.887  12.630  0.2889 -0.0814 -0.1286
   28DOPE   C21 3505   7.839   0.901  12.689 -0.2724  0.4196  0.3027
   28DOPE   O22 3506   7.811   0.985  12.774  0.0585  0.1537  0.1983
   28DOPE   C22 3507   7.742   0.805  12.619 -0.0475 -0.0574  0.2003
   28DOPE   H2R 3508   7.715   0.736  12.701 -0.8702 -0.9059 -0.7643
   28DOPE   H2S 3509   7.793   0.744  12.541 -0.8161 -0.7618  0.2436
   28DOPE    C3 3510   8.153   1.003  12.548  1.1252  0.2671  0.4011
   28DOPE    HX 3511   8.208   0.912  12.517  2.1559  1.0422 -0.1094
   28DOPE    HY 3512   8.232   1.070  12.588 -0.2440  1.0932  1.8478
   28DOPE   O31 3513   8.081   1.052  12.431 -0.5004 -0.5362 -0.2136
   28DOPE   C31 3514   8.149   1.140  12.364 -0.4739 -0.2694 -0.1518
   28DOPE   O32 3515   8.258   1.183  12.397 -0.1623 -0.0840  0.5463
   28DOPE   C32 3516   8.083   1.172  12.231  0.1977  0.4517  0.1550
   28DOPE   H2X 3517   8.110   1.274  12.196  2.6302 -0.4621 -0.7910
   28DOPE   H2Y 3518   8.132   1.096  12.167 -2.8047 -2.1362  0.6777
   28DOPE   C23 3519   7.627   0.876  12.552  0.5170 -0.3891 -0.1133
   28DOPE   H3R 3520   7.560   0.937  12.616 -1.0438 -0.2136 -1.8349
   28DOPE   H3S 3521   7.553   0.805  12.508 -0.7029  0.0090  1.2393
   28DOPE   C24 3522   7.669   0.968  12.436 -0.5859 -0.1906 -0.7320
   28DOPE   H4R 3523   7.707   0.907  12.351  0.8190  0.6821 -0.7599
   28DOPE   H4S 3524   7.754   1.027  12.475 -0.7770  0.0690 -0.7072
   28DOPE   C25 3525   7.562   1.063  12.393  0.3360  0.1403  0.0611
   28DOPE   H5R 3526   7.605   1.142  12.329  0.8694  0.6268  1.0077
   28DOPE   H5S 3527   7.533   1.115  12.487  1.3121 -3.0874  2.3283
   28DOPE   C26 3528   7.435   1.010  12.316 -0.3507  0.1721  0.1534
   28DOPE   H6R 3529   7.392   0.926  12.375 -1.6232  0.8867  0.2799
   28DOPE   H6S 3530   7.486   0.977  12.223  2.5655  0.4677  1.5228
   28DOPE   C27 3531   7.333   1.119  12.321 -0.3337 -0.4197 -0.6347
   28DOPE   H7R 3532   7.377   1.217  12.293 -1.5990 -0.7282 -4.2932
   28DOPE   H7S 3533   7.289   1.122  12.423  0.6209 -0.2384 -0.2122
   28DOPE   C28 3534   7.223   1.099  12.216  0.4943 -0.4140 -0.1880
   28DOPE   H8R 3535   7.259   1.085  12.112  0.0391 -0.2986 -0.3612
   28DOPE   H8S 3536   7.151   1.183  12.218 -1.4513 -2.0115  1.0241
   28DOPE   C29 3537   7.140   0.977  12.241  0.0637  0.3060  0.0335
   28DOPE   H9R 3538   7.130   0.945  12.346  0.9567 -0.2723 -0.0407
   28DOPE  C210 3539   7.080   0.890  12.155 -0.1902  0.1098  0.0463
   28DOPE  H10R 3540   7.040   0.795  12.195 -0.0297  0.0413  0.0441
   28DOPE  C211 3541   7.071   0.911  12.006 -0.7782 -0.4422 -0.0532
   28DOPE  H11R 3542   7.170   0.895  11.960 -1.1300 -0.2877 -0.8787
   28DOPE  H11S 3543   7.046   1.019  11.993  2.8737  0.7648  1.6133
   28DOPE  C212 3544   6.963   0.816  11.959  0.5810  0.1971  0.8495
   28DOPE  H12R 3545   6.867   0.833  12.013  0.1640  1.1608 -0.1670
   28DOPE  H12S 3546   6.986   0.709  11.979  0.3930 -0.1394 -0.6417
   28DOPE  C213 3547   6.946   0.816  11.806  0.3407  0.2287 -0.1009
   28DOPE  H13R 3548   7.044   0.786  11.762  0.5766  1.6150 -0.5697
   28DOPE  H13S 3549   6.932   0.924  11.783  1.6718  0.5549  0.4775
   28DOPE  C214 3550   6.827   0.738  11.746  0.1285 -0.3792 -0.3594
   28DOPE  H14R 3551   6.734   0.796  11.765  0.6222  0.3482 -0.1187
   28DOPE  H14S 3552   6.814   0.648  11.810 -1.2297 -0.0179 -0.0822
   28DOPE  C215 3553   6.846   0.689  11.599  0.4013  0.2806 -0.2312
   28DOPE  H15R 3554   6.938   0.627  11.609  0.8329  0.8990 -0.2836
   28DOPE  H15S 3555   6.862   0.779  11.535  0.0083  0.5775  0.0843
   28DOPE  C216 3556   6.733   0.608  11.538 -0.5745  0.9011  0.3497
   28DOPE  H16R 3557   6.652   0.679  11.514 -0.5611  0.6880 -0.3645
   28DOPE  H16S 3558   6.707   0.534  11.616  3.5596 -0.6547  0.5085
   28DOPE  C217 3559   6.780   0.530  11.414  0.2605  0.6388 -0.1249
   28DOPE  H17R 3560   6.838   0.441  11.446 -0.7097  1.1283  3.3106
   28DOPE  H17S 3561   6.851   0.590  11.353  1.3943  0.7322  1.2407
   28DOPE  C218 3562   6.665   0.483  11.320  0.1615  1.1647 -0.3518
   28DOPE  H18R 3563   6.606   0.568  11.280 -3.7800 -1.0730  0.2222
   28DOPE  H18S 3564   6.589   0.424  11.375  2.2621 -2.1075 -0.6686
   28DOPE  H18T 3565   6.693   0.424  11.230  0.0223 -1.4594  1.2298
   28DOPE   C33 3566   7.932   1.134  12.217 -0.6300 -0.2491 -0.3388
   28DOPE   H3X 3567   7.876   1.183  12.299 -2.5844 -3.2696  0.3111
   28DOPE   H3Y 3568   7.912   1.029  12.247  0.0408 -0.8725 -1.9872
   28DOPE   C34 3569   7.871   1.164  12.077 -0.0717  0.4892  0.0341
   28DOPE   H4X 3570   7.895   1.268  12.049 -0.0874  0.4998  0.0594
   28DOPE   H4Y 3571   7.931   1.105  12.005  0.4137  0.4342  0.4811
   28DOPE   C35 3572   7.721   1.122  12.058  0.1528  0.4765 -1.3886
   28DOPE   H5X 3573   7.652   1.177  12.126 -0.0881 -1.5788  0.1392
   28DOPE   H5Y 3574   7.721   1.014  12.084  1.1727  1.0374  1.2499
   28DOPE   C36 3575   7.658   1.132  11.913  0.5642  0.4318 -0.4324
   28DOPE   H6X 3576   7.553   1.098  11.921 -0.1310  2.5156  0.0993
   28DOPE   H6Y 3577   7.716   1.059  11.853  0.0922 -1.0207  0.8105
   28DOPE   C37 3578   7.671   1.275  11.848  0.0685  0.7263  0.7752
   28DOPE   H7X 3579   7.669   1.349  11.930  2.0110 -0.2405  1.7491
   28DOPE   H7Y 3580   7.764   1.274  11.787 -2.2171  0.5701 -3.0895
   28DOPE   C38 3581   7.558   1.308  11.747  0.5529  0.4151  0.0068
   28DOPE   H8X 3582   7.566   1.417  11.728 -0.9358  0.7441  0.9880
   28DOPE   H8Y 3583   7.461   1.288  11.799 -0.0389  0.0754 -1.2030
   28DOPE   C39 3584   7.562   1.224  11.624 -0.9446  0.4359 -0.0032
   28DOPE   H9X 3585   7.570   1.115  11.638  0.7736  0.4821 -0.3915
   28DOPE  C310 3586   7.561   1.269  11.495 -0.2852 -0.1809  0.0207
   28DOPE  H10X 3587   7.530   1.204  11.412 -1.2120 -0.2239  0.3861
   28DOPE  C311 3588   7.542   1.412  11.454  0.0122 -0.7268  0.0702
   28DOPE  H11X 3589   7.610   1.473  11.516  0.1992 -0.1327 -0.7018
   28DOPE  H11Y 3590   7.577   1.425  11.349  0.6798 -1.7119  0.1561
   28DOPE  C312 3591   7.398   1.470  11.468  0.0608 -0.2371  0.0403
   28DOPE  H12X 3592   7.398   1.561  11.404  3.4649  0.4790  0.8845
   28DOPE  H12Y 3593   7.380   1.496  11.575  0.3330  0.1199  0.0010
   28DOPE  C313 3594   7.283   1.378  11.428  0.7598 -0.1910  0.5588
   28DOPE  H13X 3595   7.272   1.288  11.491  1.9175 -0.7203  0.0318
   28DOPE  H13Y 3596   7.186   1.432  11.438  0.9090 -0.0727  1.4244
   28DOPE  C314 3597   7.302   1.340  11.284  0.5492 -0.0195  0.4334
   28DOPE  H14X 3598   7.399   1.288  11.272  0.3559 -0.2829 -0.0346
   28DOPE  H14Y 3599   7.314   1.431  11.221 -0.5920  0.6677  1.1681
   28DOPE  C315 3600   7.175   1.266  11.222 -0.1826  0.2846  0.1210
   28DOPE  H15X 3601   7.082   1.327  11.217 -0.5995 -0.4241 -1.6708
   28DOPE  H15Y 3602   7.148   1.188  11.296 -2.0490 -1.3423 -2.1226
   28DOPE  C316 3603   7.201   1.192  11.092 -0.1056 -0.0804 -0.0678
   28DOPE  H16X 3604   7.101   1.149  11.070  0.7355 -1.6664 -1.0256
   28DOPE  H16Y 3605   7.267   1.103  11.102  0.6459  0.5102  0.3649
   28DOPE  C317 3606   7.244   1.273  10.965 -0.1312 -0.2248  0.4626
   28DOPE  H17X 3607   7.184   1.366  10.952  0.5445  0.3416  1.2436
   28DOPE  H17Y 3608   7.344   1.321  10.979 -0.8477  1.3359  0.5077
   28DOPE  C318 3609   7.243   1.185  10.843 -0.0738 -0.6070 -0.6869
   28DOPE  H18X 3610   7.321   1.107  10.831 -0.5375 -0.9036 -1.9594
   28DOPE  H18Y 3611   7.138   1.149  10.841 -0.9331  1.6980 -0.0141
   28DOPE  H18Z 3612   7.250   1.251  10.754 -0.2977 -0.7033 -0.7751
   29DOPE     N 3613   6.253   3.333  13.225 -0.7033  0.3074 -0.2775
   29DOPE   HN1 3614   6.150   3.321  13.220 -0.6873 -3.2068  2.8226
   29DOPE   HN2 3615   6.287   3.304  13.319  0.6881  0.7553 -0.6171
   29DOPE   HN3 3616   6.278   3.434  13.223 -0.9933  0.3838 -0.0558
   29DOPE   C12 3617   6.308   3.265  13.108 -0.0896  0.0647  0.1561
   29DOPE  H12A 3618   6.417   3.257  13.126 -0.0060 -1.8341 -0.9403
   29DOPE  H12B 3619   6.287   3.322  13.015  0.3462 -0.3006 -0.1729
   29DOPE   C11 3620   6.262   3.120  13.105 -0.3645 -0.1025 -0.0369
   29DOPE  H11A 3621   6.290   3.057  13.192 -1.5615 -1.4151 -0.5628
   29DOPE  H11B 3622   6.311   3.067  13.021 -0.2996  0.1913 -0.1878
   29DOPE     P 3623   6.048   3.101  12.959  0.4779 -0.4415 -0.4181
   29DOPE   O13 3624   5.901   3.114  12.987 -0.2168  0.0097  0.3781
   29DOPE   O14 3625   6.100   2.990  12.884 -0.1722  0.0881  0.1764
   29DOPE   O11 3626   6.103   3.228  12.877 -0.1185 -0.0021  0.0177
   29DOPE   O12 3627   6.122   3.105  13.101  0.1352  0.0709 -0.1114
   29DOPE    C1 3628   6.035   3.352  12.880 -0.1076 -0.2842 -0.4451
   29DOPE    HA 3629   6.101   3.427  12.832  1.4058 -1.2189  0.0999
   29DOPE    HB 3630   6.015   3.372  12.987 -1.2814 -0.3598 -0.6381
   29DOPE    C2 3631   5.909   3.355  12.792  0.4582  0.0560  0.7008
   29DOPE    HS 3632   5.836   3.281  12.830  1.0646 -1.3795 -0.8537
   29DOPE   O21 3633   5.956   3.331  12.658  0.2906  0.1214 -0.1234
   29DOPE   C21 3634   5.862   3.275  12.579  0.2358  0.0619  0.0065
   29DOPE   O22 3635   5.754   3.229  12.618 -0.5562  0.1894 -0.1985
   29DOPE   C22 3636   5.919   3.265  12.441 -0.4362 -0.1449 -0.3208
   29DOPE   H2R 3637   5.984   3.174  12.445  1.2004  0.9985  0.5319
   29DOPE   H2S 3638   5.992   3.347  12.423 -1.0376  0.4119 -0.2442
   29DOPE    C3 3639   5.836   3.490  12.792  0.3806  0.1718  0.1602
   29DOPE    HX 3640   5.902   3.568  12.747  2.2255 -1.5120 -0.2140
   29DOPE    HY 3641   5.823   3.516  12.899  2.6623  1.9190  0.0982
   29DOPE   O31 3642   5.709   3.491  12.733  0.3551 -0.2217  0.1852
   29DOPE   C31 3643   5.607   3.439  12.804  0.2059  0.3586  0.5315
   29DOPE   O32 3644   5.624   3.375  12.910  0.1602 -0.1119  0.1616
   29DOPE   C32 3645   5.473   3.485  12.749 -0.1720  1.1144 -0.1591
   29DOPE   H2X 3646   5.434   3.565  12.815 -1.3481  0.5297 -0.1141
   29DOPE   H2Y 3647   5.486   3.528  12.648  0.0901  3.7532  0.9141
   29DOPE   C23 3648   5.806   3.257  12.335  1.0178  0.1151  0.4701
   29DOPE   H3R 3649   5.715   3.211  12.378  0.2072  1.6193  0.4492
   29DOPE   H3S 3650   5.844   3.190  12.255 -0.3850  2.5319 -2.4246
   29DOPE   C24 3651   5.761   3.397  12.280 -0.1935 -0.5065  0.2759
   29DOPE   H4R 3652   5.783   3.481  12.349  0.6355  0.4907 -1.1329
   29DOPE   H4S 3653   5.650   3.399  12.274 -0.2255 -0.0981  1.0012
   29DOPE   C25 3654   5.830   3.426  12.146  0.6982  0.3811  0.6636
   29DOPE   H5R 3655   5.939   3.433  12.162  0.5782  1.3355  1.1193
   29DOPE   H5S 3656   5.789   3.526  12.119 -0.4759 -0.6672 -1.7769
   29DOPE   C26 3657   5.825   3.317  12.026 -0.1957 -0.1172 -0.1086
   29DOPE   H6R 3658   5.739   3.249  12.045  0.9612 -1.6700 -0.2766
   29DOPE   H6S 3659   5.923   3.265  12.024 -0.2798 -0.2604 -1.5616
   29DOPE   C27 3660   5.807   3.383  11.892  0.6988 -0.0288  0.1036
   29DOPE   H7R 3661   5.709   3.431  11.869 -0.1644 -0.7276  2.1013
   29DOPE   H7S 3662   5.811   3.299  11.820  2.0994 -1.1050  1.3620
   29DOPE   C28 3663   5.927   3.475  11.859  0.5003  0.0488 -0.2312
   29DOPE   H8R 3664   6.017   3.418  11.828  0.2834  0.1446 -1.0459
   29DOPE   H8S 3665   5.963   3.528  11.950 -1.0616 -0.9679  1.0241
   29DOPE   C29 3666   5.899   3.571  11.749  0.0971  0.6157 -0.0903
   29DOPE   H9R 3667   5.810   3.634  11.765  0.4759  1.1790 -0.1688
   29DOPE  C210 3668   5.968   3.591  11.637 -0.5959 -0.1340  0.6260
   29DOPE  H10R 3669   5.925   3.650  11.554  1.8358 -0.5413 -1.0438
   29DOPE  C211 3670   6.098   3.522  11.593 -1.0376  0.2689  0.2830
   29DOPE  H11R 3671   6.166   3.497  11.677 -0.1879  0.0193 -0.4680
   29DOPE  H11S 3672   6.154   3.580  11.518 -0.5294 -2.3215 -1.4660
   29DOPE  C212 3673   6.058   3.392  11.520 -0.0737  0.3033  0.3479
   29DOPE  H12R 3674   5.983   3.417  11.441 -0.2300 -0.0204  0.3958
   29DOPE  H12S 3675   6.014   3.331  11.601 -0.2886 -0.8915 -0.6448
   29DOPE  C213 3676   6.180   3.328  11.453  0.6353 -0.6753  0.1570
   29DOPE  H13R 3677   6.262   3.304  11.524  1.1494  0.2317 -0.1180
   29DOPE  H13S 3678   6.216   3.397  11.374 -0.5716  1.6721  1.5741
   29DOPE  C214 3679   6.159   3.189  11.389 -0.2499 -0.0631  0.8533
   29DOPE  H14R 3680   6.110   3.129  11.469  0.9934  1.4822  2.8822
   29DOPE  H14S 3681   6.248   3.139  11.345 -0.4012  0.9753 -0.6978
   29DOPE  C215 3682   6.060   3.196  11.273  0.0654 -0.4646  0.3389
   29DOPE  H15R 3683   6.073   3.283  11.205  1.4286 -2.0168 -1.4709
   29DOPE  H15S 3684   5.963   3.205  11.328  1.4633  0.9130  2.7424
   29DOPE  C216 3685   6.060   3.064  11.196  0.4576 -0.0633 -0.6923
   29DOPE  H16R 3686   5.959   3.052  11.151 -0.2301 -1.0285  0.9836
   29DOPE  H16S 3687   6.070   2.980  11.269  0.0071 -1.4557 -2.1605
   29DOPE  C217 3688   6.155   3.059  11.080  0.5402  0.6012  0.4366
   29DOPE  H17R 3689   6.261   3.056  11.111  0.3446 -1.9394  1.0468
   29DOPE  H17S 3690   6.139   3.145  11.011 -1.6137  0.2072  0.3828
   29DOPE  C218 3691   6.132   2.931  10.992  0.0261 -0.1563 -0.1723
   29DOPE  H18R 3692   6.026   2.916  10.963 -0.3613 -1.2190  1.6656
   29DOPE  H18S 3693   6.174   2.838  11.037 -0.7213  0.2302  1.3943
   29DOPE  H18T 3694   6.183   2.950  10.895 -1.3427  0.7449 -0.7498
   29DOPE   C33 3695   5.357   3.379  12.751 -0.1722  0.3928 -0.4027
   29DOPE   H3X 3696   5.257   3.426  12.738 -0.5926  0.5268  2.5956
   29DOPE   H3Y 3697   5.341   3.331  12.850 -2.1836 -0.8938 -1.2913
   29DOPE   C34 3698   5.390   3.261  12.648 -0.0310  0.0548  0.0646
   29DOPE   H4X 3699   5.488   3.221  12.681  0.1725  0.7984  0.3828
   29DOPE   H4Y 3700   5.302   3.194  12.660 -0.8001  0.8386 -0.9407
   29DOPE   C35 3701   5.386   3.311  12.498  0.4900 -0.0189  0.1545
   29DOPE   H5X 3702   5.472   3.376  12.468 -0.5796  0.3416 -2.3204
   29DOPE   H5Y 3703   5.289   3.361  12.475 -0.5884 -2.5488 -1.1215
   29DOPE   C36 3704   5.380   3.179  12.408 -0.3668 -0.5331  0.0881
   29DOPE   H6X 3705   5.305   3.102  12.436 -0.1320 -1.2662 -1.2026
   29DOPE   H6Y 3706   5.477   3.129  12.426 -0.5852 -1.8849 -2.1435
   29DOPE   C37 3707   5.363   3.220  12.263  0.7604 -0.2857  0.1909
   29DOPE   H7X 3708   5.262   3.264  12.244  2.0519  2.8598 -0.1464
   29DOPE   H7Y 3709   5.435   3.302  12.242  0.0830  0.0771 -0.8220
   29DOPE   C38 3710   5.402   3.110  12.164  0.1505  0.2086  0.4217
   29DOPE   H8X 3711   5.336   3.027  12.198  0.3080  0.1145  0.4964
   29DOPE   H8Y 3712   5.507   3.084  12.189  0.5282  2.9233  2.0714
   29DOPE   C39 3713   5.376   3.143  12.018 -0.1969 -0.1053 -0.1878
   29DOPE   H9X 3714   5.457   3.200  11.971  1.1073 -1.8153 -0.1353
   29DOPE  C310 3715   5.276   3.103  11.940 -0.4728  0.4800  0.1535
   29DOPE  H10X 3716   5.277   3.131  11.833 -0.1938  0.4001  0.1349
   29DOPE  C311 3717   5.148   3.038  11.981  0.1110  0.1365  0.3269
   29DOPE  H11X 3718   5.151   2.938  11.935 -0.9157  0.6287 -0.8606
   29DOPE  H11Y 3719   5.139   3.030  12.092  0.6266  0.1365  0.3716
   29DOPE  C312 3720   5.015   3.100  11.925 -0.5685 -0.3808 -0.0239
   29DOPE  H12X 3721   5.012   3.084  11.815  0.7929  1.1707 -0.3252
   29DOPE  H12Y 3722   5.014   3.209  11.942 -0.3998  0.0772 -2.5637
   29DOPE  C313 3723   4.904   3.041  12.011  0.6853 -0.1454  0.7042
   29DOPE  H13X 3724   4.806   3.053  11.959  1.2845  0.4971 -0.3161
   29DOPE  H13Y 3725   4.921   2.931  12.021 -0.4904 -0.6288 -1.7307
   29DOPE  C314 3726   4.892   3.114  12.146  0.7445  0.5616  0.0157
   29DOPE  H14X 3727   4.881   3.224  12.136  1.5381  0.7301  0.8358
   29DOPE  H14Y 3728   4.992   3.109  12.194 -0.0242 -0.2179  1.6290
   29DOPE  C315 3729   4.790   3.054  12.248  0.2784  0.2083 -0.4950
   29DOPE  H15X 3730   4.793   2.944  12.267 -2.3311  0.1103 -0.2487
   29DOPE  H15Y 3731   4.685   3.073  12.218 -0.6960 -0.5367  2.1892
   29DOPE  C316 3732   4.803   3.122  12.392 -0.3536  0.2258  0.3208
   29DOPE  H16X 3733   4.784   3.231  12.376  1.9341  0.6876  0.2845
   29DOPE  H16Y 3734   4.905   3.121  12.437 -1.6423  0.7973  3.4992
   29DOPE  C317 3735   4.692   3.078  12.485  0.0723 -0.1316 -0.1396
   29DOPE  H17X 3736   4.601   3.068  12.422 -1.1876  1.3200  1.3592
   29DOPE  H17Y 3737   4.724   2.976  12.516 -0.2877 -1.0078 -2.4459
   29DOPE  C318 3738   4.660   3.177  12.595 -0.3046 -0.0316  0.1561
   29DOPE  H18X 3739   4.747   3.189  12.663  0.0746  0.7567 -0.4357
   29DOPE  H18Y 3740   4.633   3.280  12.563  0.9317  0.1199 -0.4847
   29DOPE  H18Z 3741   4.574   3.131  12.648 -0.3636 -0.1275 -0.0232
   30DOPE     N 3742   5.513   2.973  13.183 -0.0916 -0.5869  0.3916
   30DOPE   HN1 3743   5.500   2.930  13.089 -0.9609  1.1058 -0.3096
   30DOPE   HN2 3744   5.512   3.076  13.165 -0.9461 -0.6362  0.0984
   30DOPE   HN3 3745   5.610   2.950  13.212 -0.4879 -0.1369  2.1670
   30DOPE   C12 3746   5.402   2.955  13.277  0.4824  0.5635 -0.4738
   30DOPE  H12A 3747   5.391   3.048  13.338  0.8447 -0.6483  1.5192
   30DOPE  H12B 3748   5.417   2.867  13.343  1.0250  0.6104 -0.5335
   30DOPE   C11 3749   5.264   2.950  13.199 -0.0397 -0.0458 -0.1520
   30DOPE  H11A 3750   5.258   3.007  13.104 -2.2604 -0.6029 -0.4118
   30DOPE  H11B 3751   5.190   2.995  13.269 -0.2284 -0.1548 -0.2834
   30DOPE     P 3752   5.139   2.714  13.257 -0.0803  0.0456 -0.4561
   30DOPE   O13 3753   5.066   2.784  13.366  0.5649  0.1783  0.3103
   30DOPE   O14 3754   5.234   2.613  13.304  0.1459 -0.3150  0.5526
   30DOPE   O11 3755   5.033   2.649  13.159 -0.1943  0.0684 -0.7692
   30DOPE   O12 3756   5.225   2.816  13.163 -0.5475  0.0501 -0.6585
   30DOPE    C1 3757   5.090   2.576  13.048  0.8217 -0.4543 -0.1012
   30DOPE    HA 3758   5.005   2.538  12.987  0.0650 -0.9847  1.2460
   30DOPE    HB 3759   5.151   2.490  13.084  0.5824  0.6223  3.1714
   30DOPE    C2 3760   5.177   2.650  12.940 -0.1586  0.2713  0.0567
   30DOPE    HS 3761   5.270   2.690  12.986 -0.4357  3.0278 -1.5562
   30DOPE   O21 3762   5.095   2.761  12.891  0.5212 -0.3973 -0.2904
   30DOPE   C21 3763   5.153   2.868  12.854  0.1163 -0.7599  0.8283
   30DOPE   O22 3764   5.275   2.890  12.858  0.4232 -0.2414  0.2992
   30DOPE   C22 3765   5.054   2.970  12.789  0.3121 -0.2422 -0.0550
   30DOPE   H2R 3766   5.059   3.066  12.843 -1.4964  0.8091 -1.6043
   30DOPE   H2S 3767   4.946   2.942  12.784 -0.2546  1.9226 -1.9992
   30DOPE    C3 3768   5.216   2.553  12.818 -0.6016  0.4351  0.3727
   30DOPE    HX 3769   5.122   2.501  12.789 -0.3788  0.3502 -0.2101
   30DOPE    HY 3770   5.273   2.468  12.863 -0.4915 -0.0146 -0.5983
   30DOPE   O31 3771   5.280   2.630  12.710  0.2004  0.1992  1.0053
   30DOPE   C31 3772   5.411   2.611  12.695  0.3525  0.0533 -0.1719
   30DOPE   O32 3773   5.479   2.547  12.770  0.1036 -0.2635  0.3143
   30DOPE   C32 3774   5.460   2.704  12.586  1.1962 -1.0408 -0.1576
   30DOPE   H2X 3775   5.368   2.743  12.538  0.1380 -0.7323  1.9802
   30DOPE   H2Y 3776   5.525   2.776  12.640  1.3042 -1.6753  0.5698
   30DOPE   C23 3777   5.097   2.991  12.642 -0.1696  0.9582  0.0023
   30DOPE   H3R 3778   5.208   2.987  12.638 -0.1733  0.8684  0.0118
   30DOPE   H3S 3779   5.065   3.090  12.603  2.3285  1.5105 -0.8555
   30DOPE   C24 3780   5.035   2.887  12.557  0.3895  0.5366 -0.1359
   30DOPE   H4R 3781   4.931   2.918  12.531  0.0553 -0.3944  0.0282
   30DOPE   H4S 3782   5.046   2.788  12.606  0.1309  0.0386 -1.0756
   30DOPE   C25 3783   5.095   2.868  12.412 -0.0061 -0.2372 -0.7847
   30DOPE   H5R 3784   5.200   2.838  12.433  0.0138  0.9964  1.0217
   30DOPE   H5S 3785   5.107   2.967  12.362  0.1582  0.9405  1.4932
   30DOPE   C26 3786   5.035   2.756  12.329  0.5426 -0.1221 -0.1667
   30DOPE   H6R 3787   4.924   2.758  12.318  0.4645 -1.2552  0.3181
   30DOPE   H6S 3788   5.051   2.667  12.393  1.3584 -0.4254 -0.7828
   30DOPE   C27 3789   5.104   2.737  12.187 -0.0787  0.1449 -0.2459
   30DOPE   H7R 3790   5.135   2.839  12.155 -1.8112  0.7510 -0.1044
   30DOPE   H7S 3791   5.026   2.697  12.119  1.0132  0.5477 -1.7900
   30DOPE   C28 3792   5.223   2.636  12.193  1.3782 -0.8881 -0.0741
   30DOPE   H8R 3793   5.196   2.559  12.268 -1.5980 -1.0003 -1.1082
   30DOPE   H8S 3794   5.305   2.698  12.236 -1.3238  1.8121  1.6106
   30DOPE   C29 3795   5.247   2.577  12.053 -0.4430 -0.4387 -1.0439
   30DOPE   H9R 3796   5.230   2.647  11.970  0.1161 -1.1597 -1.7955
   30DOPE  C210 3797   5.301   2.453  12.034  0.3949  0.2556  0.0427
   30DOPE  H10R 3798   5.303   2.418  11.930  0.5966 -1.0412  0.4648
   30DOPE  C211 3799   5.363   2.360  12.131  0.3124  0.0367 -0.1682
   30DOPE  H11R 3800   5.287   2.285  12.161 -0.3648  0.8417  0.1607
   30DOPE  H11S 3801   5.391   2.409  12.226 -0.0435  0.7262 -0.4119
   30DOPE  C212 3802   5.485   2.290  12.076 -0.4916 -0.4120  0.1756
   30DOPE  H12R 3803   5.466   2.243  11.977  0.7488  2.3516 -1.4965
   30DOPE  H12S 3804   5.500   2.197  12.135 -0.4704 -0.3258  0.3078
   30DOPE  C213 3805   5.608   2.380  12.065  0.3724 -0.2216  0.4022
   30DOPE  H13R 3806   5.618   2.430  12.164 -0.0377  1.5026 -0.3822
   30DOPE  H13S 3807   5.605   2.470  12.000 -1.8438  0.5587  1.4700
   30DOPE  C214 3808   5.737   2.306  12.031  0.1528  0.1375  0.4007
   30DOPE  H14R 3809   5.720   2.265  11.929  2.5321 -2.8874  1.0702
   30DOPE  H14S 3810   5.754   2.221  12.100  1.2056  0.5812  0.7051
   30DOPE  C215 3811   5.854   2.405  12.029 -0.5979 -0.2611  0.2023
   30DOPE  H15R 3812   5.868   2.457  12.126 -0.9039 -1.0396  0.6640
   30DOPE  H15S 3813   5.824   2.488  11.960 -0.4733 -1.2418 -1.0698
   30DOPE  C216 3814   5.975   2.355  11.966  0.1327  0.5734  1.1625
   30DOPE  H16R 3815   5.940   2.314  11.869 -0.3800 -0.8161  1.8927
   30DOPE  H16S 3816   6.014   2.266  12.022  0.3501  0.5181  0.9254
   30DOPE  C217 3817   6.073   2.469  11.928 -0.1305  0.4355 -0.0841
   30DOPE  H17R 3818   6.014   2.551  11.882 -0.0645  0.3225 -0.3710
   30DOPE  H17S 3819   6.134   2.423  11.847 -0.8456 -0.2529 -0.2483
   30DOPE  C218 3820   6.148   2.506  12.057  0.3076 -0.2812  0.4396
   30DOPE  H18R 3821   6.079   2.544  12.136 -1.9116 -2.3260 -0.3931
   30DOPE  H18S 3822   6.216   2.590  12.031 -2.3253  1.9778  0.3366
   30DOPE  H18T 3823   6.196   2.411  12.089 -1.3443 -0.9900  0.9450
   30DOPE   C33 3824   5.568   2.642  12.498  0.5700  0.2141  0.3196
   30DOPE   H3X 3825   5.522   2.555  12.446  0.8845 -0.5441  1.2665
   30DOPE   H3Y 3826   5.645   2.606  12.569  2.3423  2.0639 -0.5786
   30DOPE   C34 3827   5.637   2.746  12.411 -0.4453 -0.3038  0.6723
   30DOPE   H4X 3828   5.620   2.723  12.303 -1.9649 -1.1721  1.0626
   30DOPE   H4Y 3829   5.589   2.842  12.441  1.4326 -0.2549  3.9643
   30DOPE   C35 3830   5.790   2.753  12.443  0.3109 -0.5168  0.6303
   30DOPE   H5X 3831   5.791   2.791  12.548  1.1357  0.7697  0.1812
   30DOPE   H5Y 3832   5.839   2.831  12.381  2.8896 -2.4142  0.0973
   30DOPE   C36 3833   5.874   2.628  12.432 -0.2388 -0.0880  0.3763
   30DOPE   H6X 3834   5.868   2.575  12.334  2.1828 -0.9739  0.6305
   30DOPE   H6Y 3835   5.829   2.556  12.504  0.4287 -0.0748  0.8113
   30DOPE   C37 3836   6.016   2.654  12.471 -0.6396  0.4502 -1.1011
   30DOPE   H7X 3837   6.067   2.740  12.422 -0.8732  0.6578 -0.9791
   30DOPE   H7Y 3838   6.021   2.685  12.578 -0.9865 -1.2303 -0.5605
   30DOPE   C38 3839   6.117   2.536  12.444 -0.0567  0.4047 -0.0904
   30DOPE   H8X 3840   6.219   2.580  12.441  1.3094 -2.5365  0.0691
   30DOPE   H8Y 3841   6.096   2.496  12.343  0.1162  2.9083 -1.1833
   30DOPE   C39 3842   6.117   2.427  12.550  0.0395  0.3368  0.4883
   30DOPE   H9X 3843   6.184   2.444  12.636 -0.9840 -0.0668  1.3729
   30DOPE  C310 3844   6.047   2.311  12.544 -0.7037  0.9529 -0.0476
   30DOPE  H10X 3845   6.060   2.255  12.638  2.1829 -0.6116 -1.2153
   30DOPE  C311 3846   5.957   2.251  12.438 -0.0451  0.2056  0.0067
   30DOPE  H11X 3847   5.954   2.323  12.353  0.8970 -1.5018 -1.5211
   30DOPE  H11Y 3848   6.005   2.155  12.412 -0.5498 -0.1775  0.4689
   30DOPE  C312 3849   5.820   2.230  12.503  0.6958 -0.6681  0.2826
   30DOPE  H12X 3850   5.771   2.318  12.550 -1.1147 -0.3367 -1.9885
   30DOPE  H12Y 3851   5.829   2.147  12.577  1.5387  0.7752  1.8615
   30DOPE  C313 3852   5.722   2.191  12.398  0.6784 -0.0489  0.2892
   30DOPE  H13X 3853   5.690   2.286  12.350 -0.4509 -1.3584 -1.6910
   30DOPE  H13Y 3854   5.761   2.124  12.319 -0.8364  0.9287 -1.3491
   30DOPE  C314 3855   5.599   2.119  12.450 -0.0146 -0.3654  0.6385
   30DOPE  H14X 3856   5.633   2.026  12.500  0.1129 -1.0189 -0.6064
   30DOPE  H14Y 3857   5.533   2.090  12.365  1.0838  1.3697 -0.9014
   30DOPE  C315 3858   5.506   2.198  12.543  0.0520  0.4459  0.3299
   30DOPE  H15X 3859   5.476   2.293  12.494 -1.0480  2.6521  4.7555
   30DOPE  H15Y 3860   5.564   2.225  12.634  1.0188 -1.0119  0.1716
   30DOPE  C316 3861   5.377   2.129  12.568  0.0749  0.2228 -0.1580
   30DOPE  H16X 3862   5.396   2.044  12.637 -1.4855  1.1475  1.5261
   30DOPE  H16Y 3863   5.333   2.092  12.473 -0.1500 -1.0757  0.4264
   30DOPE  C317 3864   5.261   2.214  12.640 -0.5184 -0.0213  0.2309
   30DOPE  H17X 3865   5.175   2.151  12.671 -0.8973  0.7408  0.7414
   30DOPE  H17Y 3866   5.309   2.251  12.733  2.0695 -0.4420 -0.8408
   30DOPE  C318 3867   5.198   2.327  12.550  0.3093 -0.2396  0.3087
   30DOPE  H18X 3868   5.118   2.386  12.599 -0.3816 -3.1775  2.9837
   30DOPE  H18Y 3869   5.274   2.399  12.511  1.9340 -1.3041  1.4094
   30DOPE  H18Z 3870   5.155   2.276  12.461 -1.6123  1.6900  0.0389
   31DOPE     N 3871   1.195   4.434   9.288  0.1750  0.4465  0.2477
   31DOPE   HN1 3872   1.235   4.374   9.213 -1.8746 -1.6838  0.7183
   31DOPE   HN2 3873   1.236   4.394   9.374 -0.3189 -2.0398 -0.5947
   31DOPE   HN3 3874   1.093   4.414   9.292  0.0450  0.0353 -2.7524
   31DOPE   C12 3875   1.223   4.573   9.261  0.1782  0.4871  0.2644
   31DOPE  H12A 3876   1.144   4.612   9.194  2.4042  2.0001 -1.6640
   31DOPE  H12B 3877   1.322   4.584   9.212  1.7075  0.4610  3.1301
   31DOPE   C11 3878   1.229   4.652   9.396  0.0040  0.0296 -0.0541
   31DOPE  H11A 3879   1.264   4.757   9.382  1.8419 -0.7018 -1.4593
   31DOPE  H11B 3880   1.312   4.604   9.451 -1.2117 -1.4107  0.5825
   31DOPE     P 3881   0.974   4.716   9.441 -0.2704  0.1049  0.2495
   31DOPE   O13 3882   0.872   4.610   9.454  0.1523 -0.1457  0.1026
   31DOPE   O14 3883   0.981   4.789   9.311  0.3195 -0.1780  0.6043
   31DOPE   O11 3884   0.973   4.823   9.561  0.3239 -0.1107 -0.4147
   31DOPE   O12 3885   1.111   4.641   9.467 -0.0623  0.3524 -0.3718
   31DOPE    C1 3886   0.967   4.771   9.692 -0.1836 -0.8035 -0.2344
   31DOPE    HA 3887   1.046   4.822   9.751 -0.8126  0.5416 -0.4996
   31DOPE    HB 3888   0.983   4.663   9.710 -0.7846 -0.2666  4.7812
   31DOPE    C2 3889   0.832   4.814   9.761  0.1328 -0.4427 -0.1486
   31DOPE    HS 3890   0.751   4.778   9.693 -0.3017 -0.9476  0.6200
   31DOPE   O21 3891   0.820   4.957   9.784 -0.5507 -0.3965 -0.0314
   31DOPE   C21 3892   0.748   5.019   9.691  0.6266  0.8287  0.3929
   31DOPE   O22 3893   0.711   4.963   9.588 -0.0041 -0.6262  0.3069
   31DOPE   C22 3894   0.698   5.159   9.726 -0.0276  0.0374 -0.0979
   31DOPE   H2R 3895   0.609   5.191   9.667 -0.9492  0.0597  1.2672
   31DOPE   H2S 3896   0.782   5.227   9.700  0.0498 -0.8400 -2.4204
   31DOPE    C3 3897   0.820   4.734   9.897 -0.3523 -0.3881 -0.1840
   31DOPE    HX 3898   0.813   4.628   9.865  0.7062 -0.2767 -0.8343
   31DOPE    HY 3899   0.735   4.764   9.962  0.7048 -0.2899  1.1985
   31DOPE   O31 3900   0.936   4.766   9.974  0.3293 -0.2811 -0.4555
   31DOPE   C31 3901   1.012   4.670  10.017  0.0347 -0.1298 -0.0306
   31DOPE   O32 3902   0.996   4.552   9.978  0.2457 -0.0616  0.0902
   31DOPE   C32 3903   1.119   4.720  10.112 -0.4549  0.7056  0.6298
   31DOPE   H2X 3904   1.201   4.749  10.043 -1.6315 -1.6683 -1.9765
   31DOPE   H2Y 3905   1.088   4.823  10.140  0.4567  1.3851 -0.7704
   31DOPE   C23 3906   0.676   5.183   9.874  0.3587  0.1551  0.0202
   31DOPE   H3R 3907   0.760   5.139   9.931 -0.3518 -0.3284  0.7319
   31DOPE   H3S 3908   0.588   5.125   9.909 -0.1129  1.0030  0.2802
   31DOPE   C24 3909   0.657   5.333   9.914 -0.1387 -0.4252 -0.5150
   31DOPE   H4R 3910   0.607   5.339  10.013  2.0646 -1.9278  0.7840
   31DOPE   H4S 3911   0.602   5.405   9.850 -0.9626 -0.8855 -0.3424
   31DOPE   C25 3912   0.789   5.407   9.956  0.2066  0.3660 -0.0406
   31DOPE   H5R 3913   0.861   5.404   9.872 -0.1070 -1.1357 -0.2887
   31DOPE   H5S 3914   0.836   5.340  10.031  0.1607 -0.5651 -0.8309
   31DOPE   C26 3915   0.770   5.541  10.021  0.0352  0.3653 -0.4501
   31DOPE   H6R 3916   0.715   5.537  10.118 -0.0677  2.6571 -0.3700
   31DOPE   H6S 3917   0.699   5.601   9.960 -1.8674 -1.5459 -0.2426
   31DOPE   C27 3918   0.895   5.613  10.042 -0.5799 -0.1579  0.3762
   31DOPE   H7R 3919   0.868   5.719  10.061 -2.0575 -0.5264  0.4384
   31DOPE   H7S 3920   0.941   5.611   9.941  0.8153  0.6435  0.9724
   31DOPE   C28 3921   0.994   5.552  10.145 -0.3474  0.1753  0.0123
   31DOPE   H8R 3922   1.088   5.608  10.125 -0.6099  0.5072 -0.3205
   31DOPE   H8S 3923   1.014   5.449  10.108  1.3232  0.4967 -0.0174
   31DOPE   C29 3924   0.938   5.550  10.286  0.1051 -0.1655 -0.0864
   31DOPE   H9R 3925   0.847   5.488  10.292  0.1986 -0.3518 -0.5152
   31DOPE  C210 3926   0.996   5.595  10.399  0.4429 -0.1640 -0.0873
   31DOPE  H10R 3927   0.950   5.566  10.494  0.9344 -1.4415 -0.2103
   31DOPE  C211 3928   1.125   5.668  10.405  0.5254  0.1601 -0.2966
   31DOPE  H11R 3929   1.096   5.773  10.430  0.4157  0.1431 -0.3526
   31DOPE  H11S 3930   1.166   5.683  10.303  0.1012  0.2918 -0.4514
   31DOPE  C212 3931   1.226   5.623  10.510  0.7588  0.1452 -0.4886
   31DOPE  H12R 3932   1.279   5.530  10.478  1.6576 -0.0109  1.3284
   31DOPE  H12S 3933   1.171   5.601  10.604  0.0258  1.3970 -0.6050
   31DOPE  C213 3934   1.344   5.715  10.533 -0.9123  0.2377  0.7092
   31DOPE  H13R 3935   1.401   5.716  10.438 -0.4656  1.6873  0.9697
   31DOPE  H13S 3936   1.415   5.673  10.607  0.5887  0.2380 -0.6591
   31DOPE  C214 3937   1.312   5.862  10.575 -0.0615 -0.3299 -0.0573
   31DOPE  H14R 3938   1.276   5.855  10.680 -2.2146 -2.3053 -0.8418
   31DOPE  H14S 3939   1.227   5.911  10.524  0.9062  1.5022 -0.0243
   31DOPE  C215 3940   1.431   5.958  10.560 -0.4072 -0.0622 -0.6431
   31DOPE  H15R 3941   1.454   5.972  10.452  0.3627  0.2864 -0.4409
   31DOPE  H15S 3942   1.518   5.917  10.617  0.2075  2.6660  0.5063
   31DOPE  C216 3943   1.404   6.099  10.615  0.5746 -0.5577  0.2477
   31DOPE  H16R 3944   1.493   6.164  10.600  0.1490  0.1335  0.5981
   31DOPE  H16S 3945   1.390   6.090  10.725 -1.5523 -0.1030  0.0697
   31DOPE  C217 3946   1.279   6.180  10.564 -0.7059 -0.7235  0.2798
   31DOPE  H17R 3947   1.241   6.143  10.466 -1.4061  1.7522 -0.4716
   31DOPE  H17S 3948   1.312   6.282  10.536  0.3331 -1.2290 -0.4301
   31DOPE  C218 3949   1.153   6.171  10.647  0.0765 -0.5627  0.2292
   31DOPE  H18R 3950   1.177   6.207  10.750  0.2712 -0.7600  0.2548
   31DOPE  H18S 3951   1.113   6.068  10.664 -2.0779  0.4674  1.8099
   31DOPE  H18T 3952   1.074   6.242  10.615 -0.1120 -0.0680  1.7164
   31DOPE   C33 3953   1.155   4.628  10.233 -0.0380 -0.9453 -0.3227
   31DOPE   H3X 3954   1.258   4.647  10.270 -1.1039  1.0645  1.8793
   31DOPE   H3Y 3955   1.157   4.523  10.196 -2.9248 -1.0826 -0.3196
   31DOPE   C34 3956   1.064   4.647  10.354 -0.2509 -0.2966  0.1018
   31DOPE   H4X 3957   1.110   4.593  10.439  0.7986 -0.8088 -0.7658
   31DOPE   H4Y 3958   1.063   4.755  10.378 -2.8336 -0.1194 -0.4907
   31DOPE   C35 3959   0.915   4.603  10.340  0.0512 -0.0853 -0.5371
   31DOPE   H5X 3960   0.909   4.506  10.285 -1.5094 -1.5455  1.9843
   31DOPE   H5Y 3961   0.870   4.677  10.271 -0.6491 -1.7157 -1.9111
   31DOPE   C36 3962   0.843   4.602  10.476  0.0218 -0.1697  0.4758
   31DOPE   H6X 3963   0.873   4.510  10.531 -0.5975 -0.0933  0.9515
   31DOPE   H6Y 3964   0.736   4.591  10.449 -0.0342 -0.2517  0.7308
   31DOPE   C37 3965   0.859   4.723  10.563  0.6138 -0.6646  0.4158
   31DOPE   H7X 3966   0.959   4.732  10.610  1.4141  0.3555 -1.3887
   31DOPE   H7Y 3967   0.855   4.816  10.503  1.9380 -0.7868  0.1024
   31DOPE   C38 3968   0.762   4.725  10.683  0.0816 -0.7196 -0.7814
   31DOPE   H8X 3969   0.659   4.697  10.653 -0.3924 -2.8271  2.3507
   31DOPE   H8Y 3970   0.756   4.828  10.725 -1.5778  0.4602 -3.5727
   31DOPE   C39 3971   0.807   4.625  10.781 -0.2188 -0.4707  0.1895
   31DOPE   H9X 3972   0.893   4.565  10.748  0.3933  0.4071  0.1238
   31DOPE  C310 3973   0.767   4.606  10.912 -0.1334 -0.0974  0.6345
   31DOPE  H10X 3974   0.808   4.521  10.969  1.0782 -0.4308 -0.6800
   31DOPE  C311 3975   0.670   4.687  11.000  1.1200  0.5839  0.1048
   31DOPE  H11X 3976   0.623   4.765  10.937  1.0656 -0.0896 -0.7018
   31DOPE  H11Y 3977   0.585   4.621  11.025  0.8706  1.2514  1.0885
   31DOPE  C312 3978   0.744   4.755  11.113  0.0714  0.4697 -1.2512
   31DOPE  H12X 3979   0.828   4.811  11.067  0.5313 -0.5570 -1.6919
   31DOPE  H12Y 3980   0.791   4.679  11.179 -1.7714  1.4682  1.3484
   31DOPE  C313 3981   0.659   4.848  11.190 -0.2500 -0.7065  0.1419
   31DOPE  H13X 3982   0.553   4.842  11.157  0.3725  0.9026 -2.3969
   31DOPE  H13Y 3983   0.663   4.821  11.298  0.2497 -1.3487 -0.0320
   31DOPE  C314 3984   0.713   4.995  11.187 -0.4421 -0.1033  0.2110
   31DOPE  H14X 3985   0.822   4.998  11.206 -0.2834 -4.3138  0.7620
   31DOPE  H14Y 3986   0.666   5.060  11.265  2.2545  3.7345 -1.0394
   31DOPE  C315 3987   0.686   5.073  11.055  0.4569 -0.5678 -0.3025
   31DOPE  H15X 3988   0.580   5.104  11.056  0.7639  0.5405 -0.4080
   31DOPE  H15Y 3989   0.711   5.010  10.967 -0.4313 -0.1664 -0.8599
   31DOPE  C316 3990   0.759   5.201  11.052 -0.4084 -0.7300  0.1456
   31DOPE  H16X 3991   0.868   5.187  11.043 -0.3389 -0.5868  0.6937
   31DOPE  H16Y 3992   0.749   5.262  11.145  1.7150  1.3662 -0.8933
   31DOPE  C317 3993   0.717   5.292  10.938 -0.2883  0.0691  0.3841
   31DOPE  H17X 3994   0.607   5.303  10.932 -0.3071 -0.5545 -0.7757
   31DOPE  H17Y 3995   0.764   5.387  10.971  1.7327 -1.5116  2.3673
   31DOPE  C318 3996   0.763   5.260  10.799 -0.1664 -0.1230 -0.2326
   31DOPE  H18X 3997   0.873   5.245  10.801 -0.1726 -0.7394 -2.2867
   31DOPE  H18Y 3998   0.724   5.168  10.750  1.5307 -1.5181  0.9276
   31DOPE  H18Z 3999   0.745   5.350  10.736  1.1681  0.4905  0.2178
   32DOPE     N 4000   3.627   6.532   9.224 -0.2606 -0.1205  0.4110
   32DOPE   HN1 4001   3.720   6.507   9.265  0.7109  1.2399 -0.8435
   32DOPE   HN2 4002   3.635   6.512   9.122  0.7187  2.9305 -0.2281
   32DOPE   HN3 4003   3.636   6.635   9.227  1.5784 -0.2319  0.0928
   32DOPE   C12 4004   3.501   6.479   9.292  0.4720  0.6295 -0.9174
   32DOPE  H12A 4005   3.440   6.439   9.208 -0.0301  0.0028 -0.2610
   32DOPE  H12B 4006   3.443   6.560   9.339  0.5445 -0.9402  2.0991
   32DOPE   C11 4007   3.526   6.360   9.396  0.7415  0.0578 -0.5499
   32DOPE  H11A 4008   3.424   6.329   9.428  0.7665  1.3088  0.8862
   32DOPE  H11B 4009   3.581   6.396   9.486  2.2997 -1.3691 -0.8808
   32DOPE     P 4010   3.755   6.234   9.343 -0.1485 -0.2114 -0.1104
   32DOPE   O13 4011   3.814   6.340   9.268 -0.0518  0.0883  0.7728
   32DOPE   O14 4012   3.789   6.093   9.309  0.1014  0.3351  0.0236
   32DOPE   O11 4013   3.798   6.264   9.490  0.0141 -0.5894  0.3187
   32DOPE   O12 4014   3.597   6.249   9.344 -0.2763 -0.1907  0.0238
   32DOPE    C1 4015   3.779   6.163   9.599 -0.1368 -0.2677  0.1809
   32DOPE    HA 4016   3.875   6.151   9.652 -0.6688  1.2913  1.5839
   32DOPE    HB 4017   3.730   6.068   9.570  0.4491 -1.2066  2.1044
   32DOPE    C2 4018   3.694   6.224   9.714  0.4351  0.6032  0.5183
   32DOPE    HS 4019   3.593   6.248   9.673 -1.4790 -2.5918  2.8931
   32DOPE   O21 4020   3.766   6.340   9.758  0.5657 -0.7714 -0.4890
   32DOPE   C21 4021   3.692   6.448   9.807  0.3582  0.3782 -0.3364
   32DOPE   O22 4022   3.573   6.444   9.802  0.1615 -0.0679 -0.6727
   32DOPE   C22 4023   3.778   6.557   9.862 -0.2298  0.4482  0.3191
   32DOPE   H2R 4024   3.725   6.652   9.836 -2.0492  0.1821  2.7115
   32DOPE   H2S 4025   3.878   6.559   9.815 -0.4773  0.0549 -0.2297
   32DOPE    C3 4026   3.662   6.129   9.836  0.0124 -0.3092 -0.9591
   32DOPE    HX 4027   3.753   6.069   9.856 -0.2980 -0.1744  1.0154
   32DOPE    HY 4028   3.583   6.055   9.810 -1.0425  0.7401 -0.8425
   32DOPE   O31 4029   3.611   6.206   9.948 -0.1018 -0.0315  0.0526
   32DOPE   C31 4030   3.593   6.135  10.057 -0.4720  0.3507  0.4387
   32DOPE   O32 4031   3.632   6.024  10.074 -0.0072  0.5942  0.7415
   32DOPE   C32 4032   3.506   6.195  10.166 -0.4484 -0.3349  0.4294
   32DOPE   H2X 4033   3.421   6.124  10.176 -0.6653 -0.4220 -1.5977
   32DOPE   H2Y 4034   3.570   6.208  10.256  1.0399  2.1732 -0.9069
   32DOPE   C23 4035   3.793   6.545  10.017 -0.4090 -0.2136 -0.6156
   32DOPE   H3R 4036   3.697   6.548  10.073  0.7225 -3.0993  1.7916
   32DOPE   H3S 4037   3.864   6.622  10.055  1.3929 -1.2026 -1.8173
   32DOPE   C24 4038   3.872   6.415  10.055  0.2811  0.0112  0.7431
   32DOPE   H4R 4039   3.972   6.415  10.007 -0.0349  1.1200  0.0576
   32DOPE   H4S 4040   3.819   6.329  10.010  1.1017  0.3635 -0.9813
   32DOPE   C25 4041   3.886   6.407  10.214 -0.1099  0.2256  0.3877
   32DOPE   H5R 4042   3.779   6.394  10.244  0.2486 -1.0215  1.2000
   32DOPE   H5S 4043   3.916   6.506  10.255 -3.7656  1.1476  1.2390
   32DOPE   C26 4044   3.961   6.285  10.264 -0.1654 -0.1041  0.2829
   32DOPE   H6R 4045   4.071   6.298  10.259 -0.0267 -0.6732  1.4026
   32DOPE   H6S 4046   3.939   6.198  10.199 -0.6857 -0.0999  0.4508
   32DOPE   C27 4047   3.926   6.253  10.413 -0.0465  0.4377  0.2943
   32DOPE   H7R 4048   3.965   6.152  10.439 -0.5495  0.3916  0.8964
   32DOPE   H7S 4049   3.816   6.238  10.423 -0.0236 -1.9579 -1.8960
   32DOPE   C28 4050   3.975   6.368  10.503  0.2085  0.4033  0.0310
   32DOPE   H8R 4051   3.947   6.342  10.608 -1.0479 -1.0707 -0.6291
   32DOPE   H8S 4052   3.913   6.455  10.473  0.1507 -0.4028 -2.3666
   32DOPE   C29 4053   4.119   6.382  10.519  0.0632 -0.7519 -0.1183
   32DOPE   H9R 4054   4.180   6.399  10.429 -1.0512  0.7228 -0.6383
   32DOPE  C210 4055   4.185   6.384  10.639  0.4032  0.2551  0.4284
   32DOPE  H10R 4056   4.292   6.409  10.647  0.6017 -0.9790  2.1862
   32DOPE  C211 4057   4.134   6.357  10.780  0.2623 -0.6279 -0.1418
   32DOPE  H11R 4058   4.026   6.376  10.794  0.9038  2.7106  1.3100
   32DOPE  H11S 4059   4.191   6.423  10.850 -0.3394 -1.0623  0.7858
   32DOPE  C212 4060   4.159   6.216  10.830  0.7038 -0.6771  0.9776
   32DOPE  H12R 4061   4.261   6.174  10.818  0.4883 -0.9248 -0.1305
   32DOPE  H12S 4062   4.082   6.161  10.771 -0.7525 -0.9428  3.0319
   32DOPE  C213 4063   4.106   6.198  10.972  0.3079  0.3136 -0.8241
   32DOPE  H13R 4064   3.999   6.230  10.971 -0.3669 -1.6144  1.4080
   32DOPE  H13S 4065   4.156   6.278  11.032 -1.3271  2.3776 -2.0457
   32DOPE  C214 4066   4.130   6.052  11.019 -0.6299 -0.4963 -0.6747
   32DOPE  H14R 4067   4.239   6.059  11.041 -0.6284 -0.0148 -0.8303
   32DOPE  H14S 4068   4.106   5.987  10.932 -0.2843 -1.6407  0.0550
   32DOPE  C215 4069   4.050   6.012  11.135  0.2192  0.1475  0.5035
   32DOPE  H15R 4070   3.947   6.002  11.096  0.0294  2.5396  0.2037
   32DOPE  H15S 4071   4.039   6.090  11.214 -0.0945  0.5131  0.1050
   32DOPE  C216 4072   4.091   5.876  11.196  0.6182 -0.5128  0.5752
   32DOPE  H16R 4073   4.200   5.866  11.211  0.9478  0.6906 -0.8141
   32DOPE  H16S 4074   4.064   5.809  11.112  0.9107  1.0275 -0.8081
   32DOPE  C217 4075   4.015   5.849  11.324  0.1049 -0.0048 -0.2692
   32DOPE  H17R 4076   3.913   5.892  11.330 -0.2966 -0.8623 -0.7633
   32DOPE  H17S 4077   4.074   5.892  11.408  3.2206 -3.1822 -0.6022
   32DOPE  C218 4078   4.016   5.703  11.354 -0.7681 -0.3907  0.5057
   32DOPE  H18R 4079   4.023   5.634  11.266  1.5338  0.1754  0.1766
   32DOPE  H18S 4080   3.932   5.654  11.407 -0.2520 -0.0567  1.6675
   32DOPE  H18T 4081   4.106   5.683  11.417 -1.9696 -2.8672  1.5577
   32DOPE   C33 4082   3.453   6.341  10.131 -0.1894  0.4116 -0.0096
   32DOPE   H3X 4083   3.356   6.323  10.079  0.1542 -1.3877 -0.1151
   32DOPE   H3Y 4084   3.520   6.402  10.067  0.0570  0.9474  0.7531
   32DOPE   C34 4085   3.429   6.427  10.263  1.0032 -0.0686  0.3920
   32DOPE   H4X 4086   3.525   6.464  10.305  1.0141  0.1859  0.1423
   32DOPE   H4Y 4087   3.362   6.507  10.228 -1.8048 -1.8189  1.4642
   32DOPE   C35 4088   3.353   6.357  10.375 -0.1225 -0.5074  0.1268
   32DOPE   H5X 4089   3.408   6.264  10.402 -1.4100 -0.9590  1.3608
   32DOPE   H5Y 4090   3.257   6.316  10.336 -0.7756 -0.4747  1.6196
   32DOPE   C36 4091   3.345   6.445  10.497  0.2012 -0.6008  0.3494
   32DOPE   H6X 4092   3.282   6.533  10.473  1.5640  0.0276 -1.0290
   32DOPE   H6Y 4093   3.445   6.487  10.517  0.4431 -0.4218 -1.1142
   32DOPE   C37 4094   3.291   6.383  10.628 -0.2819  0.2177  0.5988
   32DOPE   H7X 4095   3.191   6.346  10.596  0.7849 -2.9441  0.5325
   32DOPE   H7Y 4096   3.352   6.294  10.655 -2.7660 -1.7461  0.0651
   32DOPE   C38 4097   3.280   6.487  10.747  0.1888  0.0508  0.6378
   32DOPE   H8X 4098   3.241   6.585  10.712  2.1735  0.4257 -0.6956
   32DOPE   H8Y 4099   3.384   6.504  10.781 -0.0843 -1.3250  2.2689
   32DOPE   C39 4100   3.196   6.431  10.862 -0.3694  0.1347  0.0795
   32DOPE   H9X 4101   3.198   6.322  10.877  1.6340  0.0548 -0.5469
   32DOPE  C310 4102   3.118   6.510  10.948  0.1428  0.6388  0.9090
   32DOPE  H10X 4103   3.063   6.455  11.026  2.1534 -0.6859  1.4854
   32DOPE  C311 4104   3.117   6.665  10.951 -0.0639  0.0641  0.2833
   32DOPE  H11X 4105   3.127   6.701  11.056 -2.5549  0.4022  0.4694
   32DOPE  H11Y 4106   3.209   6.697  10.898  0.2390 -2.1493 -0.6309
   32DOPE  C312 4107   2.995   6.741  10.888 -0.4121  0.4622  0.4981
   32DOPE  H12X 4108   3.000   6.849  10.913  0.7179  0.6217 -0.3038
   32DOPE  H12Y 4109   2.909   6.690  10.936 -0.6114 -0.8710 -1.1431
   32DOPE  C313 4110   2.989   6.720  10.736  0.1567 -0.1780 -0.4856
   32DOPE  H13X 4111   3.085   6.770  10.708  0.2797  0.5152  1.0616
   32DOPE  H13Y 4112   2.997   6.615  10.702 -0.8048 -0.0803 -1.0224
   32DOPE  C314 4113   2.876   6.795  10.666  0.5627 -0.1734 -0.4806
   32DOPE  H14X 4114   2.908   6.800  10.559  0.6045  0.5406 -0.4418
   32DOPE  H14Y 4115   2.866   6.899  10.704 -0.4572 -0.2361 -0.5597
   32DOPE  C315 4116   2.742   6.715  10.667  0.0983  0.3059 -0.1574
   32DOPE  H15X 4117   2.693   6.722  10.767 -0.4031  2.3984 -0.4995
   32DOPE  H15Y 4118   2.751   6.610  10.632  0.7869 -0.1396  1.2762
   32DOPE  C316 4119   2.636   6.782  10.582 -0.1654 -0.3210 -0.5260
   32DOPE  H16X 4120   2.695   6.802  10.490  1.6325  1.3260  0.9108
   32DOPE  H16Y 4121   2.607   6.877  10.633  1.1699 -0.6122  0.8322
   32DOPE  C317 4122   2.514   6.697  10.545  0.0495 -1.1175  0.0822
   32DOPE  H17X 4123   2.448   6.752  10.475  0.4952 -1.4889 -0.6422
   32DOPE  H17Y 4124   2.541   6.603  10.492 -0.1019 -2.8999  2.9661
   32DOPE  C318 4125   2.425   6.661  10.668 -0.0609 -0.1002  0.5879
   32DOPE  H18X 4126   2.418   6.752  10.731  0.9398  1.1305 -0.9947
   32DOPE  H18Y 4127   2.329   6.623  10.628  0.1519 -0.5888  0.5242
   32DOPE  H18Z 4128   2.466   6.583  10.735 -0.0175  0.2676  0.9913
   33DOPE     N 4129   1.262   3.594   9.388  0.5533  0.2267 -0.3730
   33DOPE   HN1 4130   1.198   3.517   9.360  1.9413 -1.6706  1.3253
   33DOPE   HN2 4131   1.233   3.682   9.342 -2.0314  0.2809  1.1898
   33DOPE   HN3 4132   1.362   3.572   9.367  0.6841  1.2222 -0.8569
   33DOPE   C12 4133   1.257   3.605   9.540 -0.0866 -0.1083  0.1648
   33DOPE  H12A 4134   1.152   3.628   9.569 -0.1223  0.1849 -0.2029
   33DOPE  H12B 4135   1.321   3.691   9.569  1.6317 -0.7971 -1.4534
   33DOPE   C11 4136   1.296   3.481   9.619  0.2529  0.2985  0.3202
   33DOPE  H11A 4137   1.215   3.405   9.606  1.7309 -1.6695  1.9639
   33DOPE  H11B 4138   1.292   3.510   9.726 -1.2434  1.1663  0.0519
   33DOPE     P 4139   1.557   3.489   9.622  0.3871  0.0371 -0.0683
   33DOPE   O13 4140   1.557   3.631   9.583  0.7904  0.1068  0.6350
   33DOPE   O14 4141   1.666   3.407   9.572 -0.8073  0.1485  0.1139
   33DOPE   O11 4142   1.548   3.482   9.781 -0.2074  0.3600 -0.6333
   33DOPE   O12 4143   1.419   3.420   9.579 -0.6299 -0.2304 -0.6316
   33DOPE    C1 4144   1.538   3.352   9.832  0.9093  0.4524  0.3517
   33DOPE    HA 4145   1.616   3.285   9.789  1.7873  1.6818 -0.0304
   33DOPE    HB 4146   1.440   3.306   9.810  1.8269 -1.4956  0.1359
   33DOPE    C2 4147   1.567   3.361   9.983  0.9522  0.7170  0.1289
   33DOPE    HS 4148   1.675   3.355  10.008  1.1525  0.6824 -0.6999
   33DOPE   O21 4149   1.488   3.260  10.057  0.1665 -0.2605 -0.1769
   33DOPE   C21 4150   1.527   3.144  10.057 -0.3220  0.5178  0.2686
   33DOPE   O22 4151   1.625   3.103   9.996 -0.2132  0.1240 -1.0242
   33DOPE   C22 4152   1.448   3.062  10.149 -0.1026 -0.0377  0.4087
   33DOPE   H2R 4153   1.366   3.020  10.086 -0.4404 -1.5519  1.7978
   33DOPE   H2S 4154   1.406   3.136  10.221 -0.0604  0.2619  0.1310
   33DOPE    C3 4155   1.512   3.496  10.032 -0.0961  0.0360 -0.0043
   33DOPE    HX 4156   1.408   3.494   9.993  0.0036 -2.5886 -0.2511
   33DOPE    HY 4157   1.570   3.584   9.995 -1.3485  1.4715  1.3096
   33DOPE   O31 4158   1.512   3.501  10.183 -0.4713  0.2310  0.3092
   33DOPE   C31 4159   1.439   3.601  10.231  0.4415  0.7019 -0.4565
   33DOPE   O32 4160   1.377   3.677  10.161  0.0123  0.0701 -0.3414
   33DOPE   C32 4161   1.441   3.607  10.382 -0.3555 -0.3304 -0.0561
   33DOPE   H2X 4162   1.432   3.511  10.436 -1.4012 -1.5186 -2.2218
   33DOPE   H2Y 4163   1.537   3.660  10.400 -0.6059  0.4190 -0.8437
   33DOPE   C23 4164   1.532   2.951  10.206 -0.2065  0.4540 -0.3513
   33DOPE   H3R 4165   1.615   2.993  10.266  0.7050 -1.9707  0.1869
   33DOPE   H3S 4166   1.585   2.892  10.129  0.4726  0.1244  0.3548
   33DOPE   C24 4167   1.451   2.860  10.291 -0.0297  0.1265 -0.9259
   33DOPE   H4R 4168   1.367   2.809  10.240 -1.1408 -0.9603  1.8015
   33DOPE   H4S 4169   1.417   2.903  10.387  0.6049  0.2712 -0.7587
   33DOPE   C25 4170   1.541   2.742  10.338  0.4214  1.0910  0.2149
   33DOPE   H5R 4171   1.571   2.673  10.256  1.6084 -2.5417  3.3969
   33DOPE   H5S 4172   1.473   2.675  10.395  2.0366 -0.5415  0.3164
   33DOPE   C26 4173   1.664   2.768  10.419  0.2584 -0.1356 -0.5525
   33DOPE   H6R 4174   1.619   2.798  10.516  0.6172 -0.3904 -0.3062
   33DOPE   H6S 4175   1.721   2.856  10.382  0.6056 -0.0695  0.1330
   33DOPE   C27 4176   1.747   2.646  10.438 -0.0604 -0.1565 -0.1217
   33DOPE   H7R 4177   1.769   2.587  10.346  1.7594  2.6862 -1.6590
   33DOPE   H7S 4178   1.682   2.572  10.489 -0.5325 -0.1396 -0.6848
   33DOPE   C28 4179   1.862   2.678  10.536 -0.0577  0.1133 -1.0307
   33DOPE   H8R 4180   1.914   2.587  10.572 -0.9136 -0.4892 -1.2692
   33DOPE   H8S 4181   1.816   2.733  10.621 -2.5347 -1.3197 -1.3350
   33DOPE   C29 4182   1.963   2.767  10.466  0.5199 -0.3923 -0.1251
   33DOPE   H9R 4183   1.983   2.737  10.362 -0.0293 -1.7459  0.1391
   33DOPE  C210 4184   2.028   2.878  10.511 -0.2630  0.1943 -0.0786
   33DOPE  H10R 4185   2.093   2.931  10.440  0.9737  0.0645  0.9262
   33DOPE  C211 4186   2.005   2.939  10.648  0.4155  0.3262  0.7221
   33DOPE  H11R 4187   2.038   2.872  10.729 -1.9842 -0.4850  1.0913
   33DOPE  H11S 4188   1.896   2.948  10.666 -0.5291  1.6368 -4.1485
   33DOPE  C212 4189   2.063   3.082  10.669  0.2427  0.3823 -0.1714
   33DOPE  H12R 4190   2.039   3.139  10.577  1.7863  1.6127  0.1372
   33DOPE  H12S 4191   2.174   3.072  10.669  0.2374  0.2128  0.8222
   33DOPE  C213 4192   2.002   3.165  10.779  0.0463  0.2406 -0.2391
   33DOPE  H13R 4193   1.894   3.190  10.767  0.3016  0.5113 -2.1754
   33DOPE  H13S 4194   2.059   3.260  10.776 -0.2842  0.4097 -2.0920
   33DOPE  C214 4195   2.013   3.109  10.926 -1.0657 -0.5100 -0.1416
   33DOPE  H14R 4196   2.020   3.196  10.994  2.1133  0.2535 -1.2479
   33DOPE  H14S 4197   2.106   3.048  10.933 -0.8946 -0.3744 -1.0463
   33DOPE  C215 4198   1.890   3.028  10.967 -0.0252 -0.0386 -0.3113
   33DOPE  H15R 4199   1.883   2.939  10.902  2.8799  0.0640 -0.8753
   33DOPE  H15S 4200   1.795   3.086  10.957 -0.7536 -1.0059  0.7545
   33DOPE  C216 4201   1.889   2.983  11.112  0.4691  0.0913  0.1686
   33DOPE  H16R 4202   1.988   2.937  11.131 -0.2670 -0.3476  3.5717
   33DOPE  H16S 4203   1.824   2.897  11.138  0.1178  0.6585  1.2475
   33DOPE  C217 4204   1.866   3.101  11.210  0.1116 -0.1234 -0.0890
   33DOPE  H17R 4205   1.944   3.179  11.197 -2.2108  2.6875  1.6244
   33DOPE  H17S 4206   1.890   3.045  11.303  0.5597  1.6203  0.8652
   33DOPE  C218 4207   1.725   3.156  11.227  0.0300 -0.4125 -0.0414
   33DOPE  H18R 4208   1.674   3.168  11.130 -1.1751 -0.5670  0.5623
   33DOPE  H18S 4209   1.731   3.254  11.279  4.4224 -0.3139 -0.3378
   33DOPE  H18T 4210   1.665   3.090  11.294 -0.7929  0.3067 -0.0659
   33DOPE   C33 4211   1.334   3.715  10.424  0.7585 -0.2691  0.1844
   33DOPE   H3X 4212   1.239   3.677  10.381  0.5626 -0.5458  0.8497
   33DOPE   H3Y 4213   1.343   3.803  10.357  0.6224 -0.4827 -0.1166
   33DOPE   C34 4214   1.315   3.736  10.573 -0.5199 -0.5021 -0.5952
   33DOPE   H4X 4215   1.215   3.777  10.601 -1.8578 -3.8128 -0.0725
   33DOPE   H4Y 4216   1.304   3.630  10.604 -0.7863 -0.1666  0.5170
   33DOPE   C35 4217   1.432   3.812  10.634  0.0978  0.1639 -0.0425
   33DOPE   H5X 4218   1.449   3.908  10.582 -1.1438 -0.1876 -1.1674
   33DOPE   H5Y 4219   1.517   3.740  10.628 -1.6766 -2.1504  1.1047
   33DOPE   C36 4220   1.407   3.841  10.786  0.4754  0.0496  0.6475
   33DOPE   H6X 4221   1.427   3.748  10.842 -0.6225 -0.6417 -0.0625
   33DOPE   H6Y 4222   1.300   3.867  10.799  0.2464 -0.2955 -0.3979
   33DOPE   C37 4223   1.491   3.954  10.846 -0.3023  0.1834 -0.2346
   33DOPE   H7X 4224   1.600   3.941  10.831 -0.2374 -3.1367  2.0662
   33DOPE   H7Y 4225   1.451   4.044  10.794 -1.9301  0.4790  1.4207
   33DOPE   C38 4226   1.477   3.979  11.000  0.1987 -0.2895 -0.1150
   33DOPE   H8X 4227   1.373   3.957  11.032  0.1406  1.0795  0.7314
   33DOPE   H8Y 4228   1.500   4.087  11.016  1.6694 -0.6582  0.4825
   33DOPE   C39 4229   1.580   3.888  11.071 -0.2341 -0.2082  0.2381
   33DOPE   H9X 4230   1.593   3.788  11.026  2.4405  1.3354 -2.8350
   33DOPE  C310 4231   1.658   3.932  11.167 -0.3178 -0.1113  0.8348
   33DOPE  H10X 4232   1.718   3.859  11.224  0.2522 -0.4674 -0.1868
   33DOPE  C311 4233   1.645   4.070  11.227  0.2046 -0.1520  0.4469
   33DOPE  H11X 4234   1.701   4.153  11.178 -0.4806 -0.5285 -1.0191
   33DOPE  H11Y 4235   1.539   4.102  11.219  0.5989  0.7308 -2.5568
   33DOPE  C312 4236   1.694   4.067  11.372  0.2764 -0.2004  0.1839
   33DOPE  H12X 4237   1.804   4.052  11.368  0.2434 -0.2580 -0.5769
   33DOPE  H12Y 4238   1.645   3.997  11.444 -0.2061  0.8138  0.8702
   33DOPE  C313 4239   1.671   4.206  11.436 -0.1718  0.2313  0.7221
   33DOPE  H13X 4240   1.746   4.277  11.394 -0.0735  0.2497  0.9257
   33DOPE  H13Y 4241   1.566   4.234  11.416 -0.3835 -0.8883  0.2032
   33DOPE  C314 4242   1.696   4.209  11.587  0.2650 -0.0091 -0.0200
   33DOPE  H14X 4243   1.627   4.141  11.641 -0.1024  0.9400  0.7464
   33DOPE  H14Y 4244   1.668   4.310  11.624  0.6749  0.8473 -1.8897
   33DOPE  C315 4245   1.837   4.180  11.631  0.1718 -0.9507  0.0951
   33DOPE  H15X 4246   1.904   4.255  11.583  0.5389 -0.9650  0.5806
   33DOPE  H15Y 4247   1.859   4.080  11.588  0.8096 -0.4936 -0.6692
   33DOPE  C316 4248   1.848   4.173  11.785  0.9814  0.3245 -0.3370
   33DOPE  H16X 4249   1.764   4.116  11.830  0.6480  1.2698  0.2577
   33DOPE  H16Y 4250   1.819   4.276  11.813  0.3495  0.8226 -2.5833
   33DOPE  C317 4251   1.988   4.133  11.842 -0.2415 -0.4080  0.5465
   33DOPE  H17X 4252   2.005   4.033  11.798 -2.1898 -0.3627 -0.4209
   33DOPE  H17Y 4253   2.062   4.200  11.794 -1.0232 -0.1802 -0.3713
   33DOPE  C318 4254   2.010   4.134  11.993  0.6970  0.3759  0.1637
   33DOPE  H18X 4255   1.998   4.236  12.037 -2.9190 -0.7604  2.2813
   33DOPE  H18Y 4256   1.930   4.071  12.038 -0.0916  1.2015 -0.0471
   33DOPE  H18Z 4257   2.112   4.097  12.015  0.5553  0.3205  0.7583
   34DOPE     N 4258   0.981   6.195   9.461 -0.0254 -0.3950  0.0543
   34DOPE   HN1 4259   0.948   6.255   9.539  0.9870 -2.2879  2.0179
   34DOPE   HN2 4260   0.954   6.098   9.485  0.5365 -0.3448  0.9284
   34DOPE   HN3 4261   1.085   6.201   9.454 -0.0885 -0.4905 -1.1509
   34DOPE   C12 4262   0.930   6.239   9.323  0.9021 -0.3692  0.4256
   34DOPE  H12A 4263   1.005   6.213   9.245 -0.2074 -3.0963  0.1355
   34DOPE  H12B 4264   0.921   6.349   9.310 -0.3278 -0.7365 -2.8755
   34DOPE   C11 4265   0.796   6.163   9.303  0.2954  0.1699 -0.9652
   34DOPE  H11A 4266   0.811   6.053   9.298 -0.0345 -0.0118  1.1353
   34DOPE  H11B 4267   0.745   6.193   9.209 -0.3165 -0.0550 -0.7103
   34DOPE     P 4268   0.554   6.218   9.398 -0.3810  0.1873  0.0480
   34DOPE   O13 4269   0.490   6.113   9.314  0.4980  1.1787 -0.0942
   34DOPE   O14 4270   0.531   6.359   9.355 -0.6763  0.0724  0.6833
   34DOPE   O11 4271   0.500   6.188   9.539 -0.7773 -0.0875 -0.5452
   34DOPE   O12 4272   0.703   6.183   9.415 -0.4859 -0.9108 -0.5031
   34DOPE    C1 4273   0.567   6.240   9.656  0.3490 -0.5179  0.0817
   34DOPE    HA 4274   0.488   6.273   9.727 -0.0371  2.0474 -1.3873
   34DOPE    HB 4275   0.630   6.329   9.636  1.0670 -0.8751  0.6948
   34DOPE    C2 4276   0.641   6.124   9.710  0.4450 -0.0405 -0.2593
   34DOPE    HS 4277   0.724   6.087   9.646  1.3327  0.5579  0.5123
   34DOPE   O21 4278   0.532   6.030   9.747 -0.1786 -0.1785 -0.6259
   34DOPE   C21 4279   0.552   5.911   9.704  0.2530  0.1355 -0.5604
   34DOPE   O22 4280   0.627   5.879   9.614 -0.1883 -0.1475  0.2487
   34DOPE   C22 4281   0.461   5.820   9.787  0.8952 -0.3238 -0.7964
   34DOPE   H2R 4282   0.358   5.855   9.764  0.1923  0.3424  2.7759
   34DOPE   H2S 4283   0.486   5.855   9.889 -1.3748  1.3950 -0.7569
   34DOPE    C3 4284   0.724   6.151   9.839  0.1788  0.4806  0.0238
   34DOPE    HX 4285   0.653   6.146   9.924 -0.0392 -0.7615 -0.2046
   34DOPE    HY 4286   0.777   6.249   9.839  2.9179 -0.8386  2.0560
   34DOPE   O31 4287   0.813   6.035   9.867 -0.2373 -0.1249  0.1898
   34DOPE   C31 4288   0.940   6.038   9.816  1.2147 -0.2156  0.1292
   34DOPE   O32 4289   0.969   6.125   9.741  0.2965  0.2069  0.0242
   34DOPE   C32 4290   1.004   5.904   9.852 -0.2452 -0.2661 -0.3889
   34DOPE   H2X 4291   0.930   5.835   9.899  0.2336 -0.1753  0.4969
   34DOPE   H2Y 4292   1.029   5.866   9.750 -2.4439  1.2165 -1.5654
   34DOPE   C23 4293   0.472   5.668   9.749  0.1784 -0.1848 -0.4170
   34DOPE   H3R 4294   0.566   5.625   9.788 -0.0382 -0.3515 -0.0747
   34DOPE   H3S 4295   0.490   5.668   9.639  0.5400 -0.2799 -0.3572
   34DOPE   C24 4296   0.365   5.582   9.801 -0.1070  0.5153  0.1519
   34DOPE   H4R 4297   0.399   5.482   9.765  2.4211  0.7626  1.5953
   34DOPE   H4S 4298   0.266   5.606   9.756 -0.8872  0.2569  1.6857
   34DOPE   C25 4299   0.341   5.587   9.953  0.3314  0.0973 -0.3461
   34DOPE   H5R 4300   0.325   5.688   9.996  0.2059 -0.4332  0.9200
   34DOPE   H5S 4301   0.435   5.545   9.995 -1.2639 -2.9784  0.4523
   34DOPE   C26 4302   0.219   5.500   9.983  1.1045  0.1023 -0.2429
   34DOPE   H6R 4303   0.213   5.411   9.916  2.4708  0.8146 -1.3588
   34DOPE   H6S 4304   0.133   5.562   9.947  1.8528  0.8024 -0.8645
   34DOPE   C27 4305   0.202   5.460  10.133  0.5094 -0.1515  0.1074
   34DOPE   H7R 4306   0.108   5.400  10.138 -2.0095  3.5410  1.2219
   34DOPE   H7S 4307   0.195   5.542  10.207  2.3218 -1.3854  1.7361
   34DOPE   C28 4308   0.320   5.386  10.206 -0.1490 -0.5272 -0.4214
   34DOPE   H8R 4309   0.277   5.373  10.308  0.0986  1.1219 -0.0874
   34DOPE   H8S 4310   0.398   5.464  10.210  0.3533 -1.0397 -0.0910
   34DOPE   C29 4311   0.363   5.255  10.139  0.6100 -0.1559  0.2741
   34DOPE   H9R 4312   0.323   5.246  10.037 -1.4286 -1.0769  1.1047
   34DOPE  C210 4313   0.447   5.165  10.174  0.5267 -0.2824  0.6181
   34DOPE  H10R 4314   0.437   5.067  10.126 -0.5962 -0.2452  0.7635
   34DOPE  C211 4315   0.534   5.172  10.301 -0.1238 -0.0657  0.1655
   34DOPE  H11R 4316   0.547   5.279  10.326 -0.3010  0.0333 -0.1592
   34DOPE  H11S 4317   0.632   5.124  10.280 -0.2067 -0.0184 -0.3611
   34DOPE  C212 4318   0.466   5.083  10.413 -0.4964 -0.6892 -0.6357
   34DOPE  H12R 4319   0.449   4.979  10.376  0.2619 -1.1811  0.3585
   34DOPE  H12S 4320   0.370   5.131  10.441  0.0458  0.7916 -1.2523
   34DOPE  C213 4321   0.563   5.080  10.537  0.3556 -0.0699 -0.2180
   34DOPE  H13R 4322   0.574   5.186  10.570 -1.8090 -0.7227  3.1279
   34DOPE  H13S 4323   0.665   5.049  10.507 -0.2160 -2.0328 -0.2326
   34DOPE  C214 4324   0.505   5.008  10.664  0.6629  0.1659 -0.3440
   34DOPE  H14R 4325   0.592   4.988  10.730  0.3563 -2.2143 -0.5709
   34DOPE  H14S 4326   0.460   4.911  10.634 -1.6149  1.2119 -0.5304
   34DOPE  C215 4327   0.395   5.078  10.743  0.4545  0.3418  0.3541
   34DOPE  H15R 4328   0.317   5.114  10.672  0.8774 -2.7483 -1.8835
   34DOPE  H15S 4329   0.429   5.166  10.801  0.3676  1.9441 -1.8991
   34DOPE  C216 4330   0.339   4.972  10.841 -0.1355  0.0451  0.2099
   34DOPE  H16R 4331   0.420   4.924  10.900 -2.0306 -2.6016  0.8306
   34DOPE  H16S 4332   0.297   4.888  10.782 -2.1690 -0.0200  1.6570
   34DOPE  C217 4333   0.242   5.033  10.948  0.4946  0.3053 -0.3903
   34DOPE  H17R 4334   0.147   5.063  10.899 -1.0415  1.5336  3.0723
   34DOPE  H17S 4335   0.289   5.126  10.986  0.5752  0.3267 -0.5368
   34DOPE  C218 4336   0.206   4.937  11.066 -0.0086 -0.0805  0.0629
   34DOPE  H18R 4337   0.288   4.916  11.138 -1.3504 -2.2230  1.1002
   34DOPE  H18S 4338   0.173   4.841  11.022  1.2800 -0.6282  0.2557
   34DOPE  H18T 4339   0.121   4.980  11.124  1.8717  3.6876  0.2926
   34DOPE   C33 4340   1.130   5.931   9.932 -0.0414 -0.2207  0.9410
   34DOPE   H3X 4341   1.206   5.996   9.884  1.8699 -1.6382  1.9274
   34DOPE   H3Y 4342   1.190   5.838   9.932  0.3820 -0.0651 -2.0675
   34DOPE   C34 4343   1.097   5.975  10.071  0.2272  1.1488  0.1514
   34DOPE   H4X 4344   1.061   6.079  10.081  0.0583  1.3049 -1.7012
   34DOPE   H4Y 4345   1.017   5.911  10.113  1.8409 -0.7767  0.4752
   34DOPE   C35 4346   1.220   5.952  10.165  0.4658 -0.3166  0.0898
   34DOPE   H5X 4347   1.235   5.842  10.173 -0.4067 -0.4164  0.4433
   34DOPE   H5Y 4348   1.184   5.987  10.264 -0.4455  1.7253 -0.8972
   34DOPE   C36 4349   1.359   6.007  10.115 -0.1397 -0.7132 -0.1139
   34DOPE   H6X 4350   1.386   5.957  10.020 -0.2664  1.2842 -1.2655
   34DOPE   H6Y 4351   1.437   5.987  10.191  0.2691 -2.2822 -0.8969
   34DOPE   C37 4352   1.372   6.160  10.076 -0.2249  0.0441 -0.5828
   34DOPE   H7X 4353   1.315   6.195   9.987 -0.3911  1.1504 -0.0594
   34DOPE   H7Y 4354   1.321   6.223  10.152  0.6209 -0.7319  0.6717
   34DOPE   C38 4355   1.518   6.208  10.076 -0.4546 -0.1549 -0.4985
   34DOPE   H8X 4356   1.573   6.149  10.000  0.1464  0.0010 -0.1888
   34DOPE   H8Y 4357   1.566   6.180  10.172  1.9080 -1.2472 -1.9206
   34DOPE   C39 4358   1.540   6.348  10.035  0.0077  0.1180  0.2636
   34DOPE   H9X 4359   1.570   6.353   9.929  0.4421 -0.4957  0.3476
   34DOPE  C310 4360   1.505   6.457  10.104  0.2405  1.1108  0.0401
   34DOPE  H10X 4361   1.533   6.557  10.067  2.3823  0.6698  0.3640
   34DOPE  C311 4362   1.435   6.461  10.245  0.0704  0.1314 -0.3849
   34DOPE  H11X 4363   1.340   6.518  10.238 -0.2345 -0.4650 -1.4207
   34DOPE  H11Y 4364   1.403   6.360  10.277  0.4922  0.2259  0.3625
   34DOPE  C312 4365   1.536   6.518  10.349  0.1216  0.0921 -0.0141
   34DOPE  H12X 4366   1.476   6.554  10.436 -3.0156 -0.5354 -1.7735
   34DOPE  H12Y 4367   1.590   6.602  10.301  1.8799 -1.1230 -0.2521
   34DOPE  C313 4368   1.631   6.410  10.388  0.4037  0.1265 -0.0888
   34DOPE  H13X 4369   1.581   6.333  10.451 -1.5478  0.7634 -0.7768
   34DOPE  H13Y 4370   1.683   6.367  10.299  0.6436  1.0605 -0.4081
   34DOPE  C314 4371   1.728   6.482  10.483 -0.0829  0.2564 -0.2186
   34DOPE  H14X 4372   1.774   6.570  10.433 -0.8817 -0.9620 -3.3362
   34DOPE  H14Y 4373   1.811   6.409  10.497 -1.0203 -0.7264  0.4419
   34DOPE  C315 4374   1.669   6.516  10.625 -0.0363  0.7920  0.5803
   34DOPE  H15X 4375   1.621   6.427  10.670 -0.1354 -0.9827 -2.7009
   34DOPE  H15Y 4376   1.590   6.594  10.624 -0.2459  0.5808  0.2749
   34DOPE  C316 4377   1.786   6.560  10.716 -0.2408 -0.4415 -0.4747
   34DOPE  H16X 4378   1.843   6.644  10.671  0.6856 -0.3852  0.7348
   34DOPE  H16Y 4379   1.858   6.477  10.731 -0.3640 -0.2069  1.9072
   34DOPE  C317 4380   1.736   6.618  10.854  0.7277 -0.5182 -0.7709
   34DOPE  H17X 4381   1.664   6.699  10.827  1.8245  0.6309 -0.3242
   34DOPE  H17Y 4382   1.679   6.542  10.912  0.9912  0.6566  1.1138
   34DOPE  C318 4383   1.847   6.671  10.944 -0.0307  0.5652  0.9552
   34DOPE  H18X 4384   1.796   6.717  11.032 -2.3513 -0.0332 -0.0091
   34DOPE  H18Y 4385   1.918   6.593  10.979 -0.3251 -0.4783 -0.6826
   34DOPE  H18Z 4386   1.899   6.750  10.886 -1.7820  0.6655 -0.5486
   35DOPE     N 4387   2.805   5.879   9.514  0.2539 -0.0387 -0.1204
   35DOPE   HN1 4388   2.753   5.790   9.528  1.1877 -0.4804  0.6797
   35DOPE   HN2 4389   2.770   5.952   9.579  1.3734 -0.4507  1.0006
   35DOPE   HN3 4390   2.801   5.903   9.413  1.0301 -1.3797 -0.5079
   35DOPE   C12 4391   2.948   5.866   9.546 -0.1101 -0.5012 -0.4923
   35DOPE  H12A 4392   2.970   5.827   9.648  1.3934 -1.8263 -1.2540
   35DOPE  H12B 4393   2.995   5.965   9.532 -0.1428 -0.2144  1.2183
   35DOPE   C11 4394   3.003   5.761   9.447  0.5410 -0.3990 -0.0811
   35DOPE  H11A 4395   2.974   5.799   9.347 -2.0465  1.2999  1.1893
   35DOPE  H11B 4396   2.961   5.659   9.461  0.5679 -0.4047 -0.0391
   35DOPE     P 4397   3.232   5.657   9.547  0.1112 -0.5108 -0.2321
   35DOPE   O13 4398   3.373   5.704   9.554 -0.1765  0.0427  0.3600
   35DOPE   O14 4399   3.203   5.523   9.496  0.0571 -0.7544 -0.1414
   35DOPE   O11 4400   3.162   5.672   9.691 -0.2866 -0.2587 -0.1783
   35DOPE   O12 4401   3.149   5.765   9.454  0.3571  0.1045  0.4178
   35DOPE    C1 4402   3.220   5.763   9.789 -0.0920 -0.4482  0.3654
   35DOPE    HA 4403   3.153   5.777   9.876  0.8144  1.6124  0.7788
   35DOPE    HB 4404   3.237   5.863   9.746  0.9159 -0.1217  1.4517
   35DOPE    C2 4405   3.351   5.710   9.861 -0.6810  0.3634  0.6303
   35DOPE    HS 4406   3.430   5.694   9.784 -1.7043  0.2816 -0.4269
   35DOPE   O21 4407   3.311   5.600   9.937 -0.7550  0.5310  0.1130
   35DOPE   C21 4408   3.353   5.483   9.889  0.4349  0.7363 -0.1013
   35DOPE   O22 4409   3.429   5.452   9.799 -0.1167 -0.1259 -0.4666
   35DOPE   C22 4410   3.303   5.377   9.984 -0.1584 -0.2150 -0.4334
   35DOPE   H2R 4411   3.305   5.282   9.927  1.6581 -0.2164 -0.4134
   35DOPE   H2S 4412   3.196   5.394  10.011  0.1749 -1.6075  2.0747
   35DOPE    C3 4413   3.403   5.818   9.958  0.5694  0.0887  0.0796
   35DOPE    HX 4414   3.436   5.911   9.906  0.1552  0.0448 -0.2698
   35DOPE    HY 4415   3.497   5.771   9.994 -0.2859 -1.2012  0.7322
   35DOPE   O31 4416   3.329   5.843  10.081 -0.1786 -0.5353  0.4078
   35DOPE   C31 4417   3.258   5.957  10.080 -0.7635 -0.3846  0.8334
   35DOPE   O32 4418   3.255   6.043   9.994 -0.2637  0.2090  0.0797
   35DOPE   C32 4419   3.201   5.970  10.224 -0.5102 -0.0788  0.2818
   35DOPE   H2X 4420   3.187   6.078  10.245 -0.0793 -0.1353  0.8844
   35DOPE   H2Y 4421   3.106   5.911  10.225  0.2622 -1.4803 -1.9640
   35DOPE   C23 4422   3.392   5.376  10.113 -0.8128 -0.3449 -0.0917
   35DOPE   H3R 4423   3.498   5.387  10.081 -1.2784 -1.7365 -2.3562
   35DOPE   H3S 4424   3.389   5.269  10.145  3.0094 -1.1452 -1.8524
   35DOPE   C24 4425   3.346   5.473  10.218  0.7328  0.4293  0.3483
   35DOPE   H4R 4426   3.237   5.458  10.234  0.4683 -0.5169 -1.9650
   35DOPE   H4S 4427   3.351   5.576  10.178 -0.3876  0.2245 -0.3473
   35DOPE   C25 4428   3.424   5.474  10.354  0.3698 -0.1576 -0.0683
   35DOPE   H5R 4429   3.395   5.557  10.423  0.6771  0.0807 -0.2218
   35DOPE   H5S 4430   3.533   5.484  10.337  0.2559  0.1281 -0.6549
   35DOPE   C26 4431   3.397   5.339  10.426 -0.3845 -0.1988 -0.1897
   35DOPE   H6R 4432   3.434   5.259  10.360 -0.9230 -0.3576 -0.3058
   35DOPE   H6S 4433   3.286   5.328  10.432 -0.2482 -1.3311  0.6163
   35DOPE   C27 4434   3.463   5.334  10.564 -0.2781 -0.2080  0.8691
   35DOPE   H7R 4435   3.562   5.382  10.552 -1.0371  1.0758 -0.7688
   35DOPE   H7S 4436   3.484   5.230  10.597  1.8111  0.3386  1.3707
   35DOPE   C28 4437   3.384   5.406  10.669  0.2185  0.0210  0.2644
   35DOPE   H8R 4438   3.281   5.366  10.673 -0.6510  2.1414  0.3494
   35DOPE   H8S 4439   3.376   5.510  10.630  0.1506 -0.8583 -2.2311
   35DOPE   C29 4440   3.454   5.400  10.803  0.0569  1.1739 -0.2822
   35DOPE   H9R 4441   3.524   5.482  10.821 -1.0154  2.3545 -1.3064
   35DOPE  C210 4442   3.430   5.314  10.905  0.5840 -0.4354  0.1287
   35DOPE  H10R 4443   3.462   5.342  11.007  0.8870  1.7376 -0.4943
   35DOPE  C211 4444   3.342   5.188  10.889 -0.6724 -0.2362 -0.1958
   35DOPE  H11R 4445   3.397   5.098  10.926  0.2824  0.5485  0.3560
   35DOPE  H11S 4446   3.321   5.171  10.781 -2.9686 -0.0376  0.1757
   35DOPE  C212 4447   3.211   5.203  10.972 -0.2059 -1.0533 -0.0347
   35DOPE  H12R 4448   3.157   5.293  10.937 -0.5649 -0.9570  0.7497
   35DOPE  H12S 4449   3.236   5.222  11.078 -1.5939 -1.3178  0.3632
   35DOPE  C213 4450   3.119   5.080  10.962  0.2802  0.1682 -0.0693
   35DOPE  H13R 4451   3.191   4.995  10.967 -2.9383 -2.7367  2.9522
   35DOPE  H13S 4452   3.069   5.077  10.863 -0.6465 -2.0798  0.3937
   35DOPE  C214 4453   3.015   5.069  11.077  0.0164 -0.1028  0.1598
   35DOPE  H14R 4454   2.966   4.973  11.052  0.5846 -1.0861  2.5732
   35DOPE  H14S 4455   2.940   5.150  11.061  0.6810  0.2787 -1.1652
   35DOPE  C215 4456   3.059   5.059  11.221  0.0832  0.0285 -0.5930
   35DOPE  H15R 4457   2.968   5.032  11.279 -1.2610  1.5702 -1.9087
   35DOPE  H15S 4458   3.084   5.163  11.249  1.5134  0.0380 -1.7762
   35DOPE  C216 4459   3.176   4.958  11.255  0.1697 -0.5387  0.0275
   35DOPE  H16R 4460   3.265   4.986  11.194 -0.0449  0.7012  0.2681
   35DOPE  H16S 4461   3.142   4.857  11.224 -4.0214  0.5134  0.6050
   35DOPE  C217 4462   3.218   4.977  11.404 -0.0079  0.1333 -0.0026
   35DOPE  H17R 4463   3.259   5.077  11.428 -0.2401  0.4532 -0.9008
   35DOPE  H17S 4464   3.290   4.895  11.422 -1.7758 -1.4478  0.1616
   35DOPE  C218 4465   3.117   4.946  11.512 -0.2993 -0.2366 -0.6226
   35DOPE  H18R 4466   3.037   5.022  11.503 -0.4407 -0.1098  1.2682
   35DOPE  H18S 4467   3.163   4.975  11.609  2.3080  1.7989 -2.3303
   35DOPE  H18T 4468   3.082   4.841  11.510  0.4409 -0.4865 -1.6482
   35DOPE   C33 4469   3.294   5.906  10.329 -0.5261 -1.1007 -0.0059
   35DOPE   H3X 4470   3.390   5.961  10.327 -1.5294  0.7428 -0.3003
   35DOPE   H3Y 4471   3.314   5.799  10.312 -1.4160 -1.5858  1.7935
   35DOPE   C34 4472   3.230   5.916  10.467 -0.0763 -0.1169 -0.5020
   35DOPE   H4X 4473   3.226   6.024  10.494  2.5657 -0.0193 -0.1965
   35DOPE   H4Y 4474   3.126   5.878  10.465  0.1371 -0.7057 -1.7835
   35DOPE   C35 4475   3.315   5.856  10.584  0.1269 -0.3811 -0.4439
   35DOPE   H5X 4476   3.412   5.910  10.585 -0.1991  0.2030  0.5989
   35DOPE   H5Y 4477   3.333   5.749  10.558  2.6088 -0.5405  1.5331
   35DOPE   C36 4478   3.243   5.856  10.719 -0.0981  0.4500 -0.1557
   35DOPE   H6X 4479   3.136   5.829  10.706  0.0571  0.0895 -0.7010
   35DOPE   H6Y 4480   3.229   5.964  10.744  0.3495 -0.0545  2.6312
   35DOPE   C37 4481   3.322   5.801  10.833  0.3283 -0.4623 -0.7105
   35DOPE   H7X 4482   3.361   5.704  10.797  3.5436  1.4983 -3.1299
   35DOPE   H7Y 4483   3.419   5.850  10.857 -0.3645  0.6947 -0.1876
   35DOPE   C38 4484   3.232   5.780  10.962 -0.7340  0.7806  0.2997
   35DOPE   H8X 4485   3.146   5.719  10.926  0.4576 -1.2383  0.7307
   35DOPE   H8Y 4486   3.195   5.882  10.985 -1.4660  0.6743 -0.3493
   35DOPE   C39 4487   3.285   5.707  11.080  1.1128 -0.3097 -0.5251
   35DOPE   H9X 4488   3.309   5.601  11.064  0.8480 -0.4314 -0.1228
   35DOPE  C310 4489   3.332   5.766  11.197  0.5133 -1.1117  0.8431
   35DOPE  H10X 4490   3.393   5.703  11.264  2.0839 -1.0623 -0.4764
   35DOPE  C311 4491   3.343   5.914  11.213 -0.0322 -0.4192  0.4825
   35DOPE  H11X 4492   3.444   5.949  11.180  0.2320 -0.5532  1.1362
   35DOPE  H11Y 4493   3.283   5.988  11.157  1.3626  0.4715  0.1007
   35DOPE  C312 4494   3.297   5.943  11.360 -0.2044 -0.3180  0.2002
   35DOPE  H12X 4495   3.196   5.899  11.367  0.1012 -0.9506  0.7006
   35DOPE  H12Y 4496   3.303   6.052  11.382 -0.3627 -0.1148 -0.7287
   35DOPE  C313 4497   3.372   5.869  11.481 -0.4191  0.0434 -0.5609
   35DOPE  H13X 4498   3.351   5.761  11.461 -2.4093  0.3272 -0.2161
   35DOPE  H13Y 4499   3.481   5.884  11.496 -0.2958 -0.6852 -0.6849
   35DOPE  C314 4500   3.308   5.898  11.618 -0.3865 -0.1119 -0.2981
   35DOPE  H14X 4501   3.326   6.005  11.642 -0.7828 -0.1335  0.1089
   35DOPE  H14Y 4502   3.365   5.842  11.695  0.6955  2.5523  0.9573
   35DOPE  C315 4503   3.161   5.872  11.638  0.4135  0.4805 -0.3109
   35DOPE  H15X 4504   3.140   5.764  11.620  1.0382  0.0100  1.6157
   35DOPE  H15Y 4505   3.094   5.920  11.563  1.1270  1.0859 -0.5709
   35DOPE  C316 4506   3.106   5.895  11.771  0.2426  0.2115  0.1579
   35DOPE  H16X 4507   3.161   5.987  11.801  1.0587 -0.0225 -0.5894
   35DOPE  H16Y 4508   3.139   5.814  11.840 -1.6597 -1.5076 -0.8611
   35DOPE  C317 4509   2.955   5.903  11.773 -0.3898  0.4617  0.8104
   35DOPE  H17X 4510   2.915   5.992  11.719  1.8085 -0.1541 -2.0804
   35DOPE  H17Y 4511   2.902   5.814  11.733  2.2386 -0.7598 -0.1961
   35DOPE  C318 4512   2.907   5.926  11.913  0.0178 -0.4033 -0.9421
   35DOPE  H18X 4513   2.799   5.951  11.920 -0.0616 -0.9815  0.2230
   35DOPE  H18Y 4514   2.922   5.832  11.971 -0.5495 -0.4081 -0.8021
   35DOPE  H18Z 4515   2.972   6.006  11.954 -1.4613  0.0482  0.6326
   36DOPE     N 4516   5.572   7.073   9.879  0.3304 -0.0802 -0.5138
   36DOPE   HN1 4517   5.535   7.118   9.792  0.2538  1.4441  0.2730
   36DOPE   HN2 4518   5.599   7.155   9.937 -2.3324 -0.1395  0.9735
   36DOPE   HN3 4519   5.656   7.013   9.888  1.4971  1.8607  3.7740
   36DOPE   C12 4520   5.455   7.021   9.958  0.6319 -0.3145  0.2910
   36DOPE  H12A 4521   5.492   6.976  10.052  1.3188 -0.8755 -0.2317
   36DOPE  H12B 4522   5.402   6.943   9.900 -1.7993  0.0972  1.8241
   36DOPE   C11 4523   5.351   7.132   9.995  0.2675 -0.4914 -0.5374
   36DOPE  H11A 4524   5.412   7.208  10.048 -0.0865 -0.7775  0.2954
   36DOPE  H11B 4525   5.277   7.093  10.069 -0.4840 -2.2201 -2.1045
   36DOPE     P 4526   5.165   7.139   9.806  0.0026 -0.0271  0.2672
   36DOPE   O13 4527   5.182   6.994   9.773  0.4015 -0.4312  0.1492
   36DOPE   O14 4528   5.137   7.230   9.692  0.2141 -0.1789 -0.4978
   36DOPE   O11 4529   5.066   7.145   9.918 -0.0432  0.4219 -0.4373
   36DOPE   O12 4530   5.293   7.192   9.878 -0.1531  0.2142 -0.2588
   36DOPE    C1 4531   5.048   7.262   9.998 -0.0654  0.2806  0.3928
   36DOPE    HA 4532   4.946   7.302   9.979 -0.0193 -0.4163 -1.4902
   36DOPE    HB 4533   5.113   7.350   9.983 -0.8391  1.0089  1.1906
   36DOPE    C2 4534   5.050   7.226  10.148  0.8477  0.0670  0.9177
   36DOPE    HS 4535   5.142   7.167  10.168 -0.2712 -1.7494  0.9523
   36DOPE   O21 4536   4.920   7.166  10.179 -0.1704  0.3877  0.4046
   36DOPE   C21 4537   4.920   7.093  10.287  0.7198 -0.2684 -0.5131
   36DOPE   O22 4538   5.012   7.066  10.358 -0.5072  0.1008  0.0130
   36DOPE   C22 4539   4.781   7.042  10.310  0.7562 -0.1697 -0.3271
   36DOPE   H2R 4540   4.784   6.963  10.388  0.3521  0.8700  0.7686
   36DOPE   H2S 4541   4.743   6.997  10.216 -0.1523 -2.1005  0.8824
   36DOPE    C3 4542   5.059   7.360  10.232  0.0300  0.6639  0.3387
   36DOPE    HX 4543   5.048   7.329  10.338 -1.7964 -0.8063 -0.2117
   36DOPE    HY 4544   4.964   7.417  10.217  1.3925  2.9607 -0.0916
   36DOPE   O31 4545   5.177   7.438  10.200  0.3293  0.0832 -0.7393
   36DOPE   C31 4546   5.283   7.393  10.268  0.1820  0.8895  0.2033
   36DOPE   O32 4547   5.284   7.288  10.326 -0.4177 -0.1411 -0.2327
   36DOPE   C32 4548   5.404   7.487  10.249  0.2783 -0.0052 -0.4427
   36DOPE   H2X 4549   5.474   7.446  10.174  0.0640 -1.4461  0.1209
   36DOPE   H2Y 4550   5.367   7.586  10.215 -1.7978 -0.0964  1.2733
   36DOPE   C23 4551   4.686   7.155  10.359 -0.2016  0.2405  0.2343
   36DOPE   H3R 4552   4.580   7.123  10.370  0.4207 -2.1153 -0.1279
   36DOPE   H3S 4553   4.690   7.242  10.289 -1.3335 -0.0231 -0.1888
   36DOPE   C24 4554   4.739   7.203  10.495  0.3158  0.0864  0.6746
   36DOPE   H4R 4555   4.830   7.266  10.493  1.3472 -1.3489 -0.6057
   36DOPE   H4S 4556   4.782   7.115  10.548 -0.2075 -0.5527  0.0582
   36DOPE   C25 4557   4.631   7.265  10.579 -0.7596 -0.0169  0.2044
   36DOPE   H5R 4558   4.666   7.295  10.680 -0.3870  0.5798 -0.1006
   36DOPE   H5S 4559   4.545   7.196  10.599 -1.2266 -0.1249 -1.8910
   36DOPE   C26 4560   4.568   7.390  10.513 -0.2411 -0.0329  0.0487
   36DOPE   H6R 4561   4.529   7.353  10.415  1.1928 -0.8686 -0.2398
   36DOPE   H6S 4562   4.656   7.457  10.506  0.3133 -0.7517  0.0541
   36DOPE   C27 4563   4.452   7.445  10.593  0.6134 -0.5726 -0.8821
   36DOPE   H7R 4564   4.474   7.493  10.691 -1.9848 -0.1322 -0.4383
   36DOPE   H7S 4565   4.391   7.358  10.624 -0.4867  0.9993  1.6925
   36DOPE   C28 4566   4.354   7.541  10.519 -0.5970 -0.3826 -0.4623
   36DOPE   H8R 4567   4.274   7.554  10.596  0.6355 -2.2230  1.2388
   36DOPE   H8S 4568   4.317   7.486  10.430 -1.0243  0.9670 -1.1453
   36DOPE   C29 4569   4.416   7.670  10.471  0.2006  0.3755  0.5173
   36DOPE   H9R 4570   4.467   7.673  10.373 -0.4098 -0.5505  0.1607
   36DOPE  C210 4571   4.438   7.776  10.550  0.0483 -0.2594 -0.1158
   36DOPE  H10R 4572   4.467   7.871  10.504  0.8818 -0.5068 -0.1204
   36DOPE  C211 4573   4.381   7.792  10.692  0.1955 -0.8464 -0.4274
   36DOPE  H11R 4574   4.466   7.816  10.758 -1.7555 -1.7867  2.6309
   36DOPE  H11S 4575   4.335   7.698  10.727  0.4878 -0.8079  0.0596
   36DOPE  C212 4576   4.284   7.911  10.695 -0.2034  0.0589 -0.7043
   36DOPE  H12R 4577   4.212   7.910  10.610  0.0649 -0.8458 -0.9383
   36DOPE  H12S 4578   4.331   8.011  10.692 -0.4592  0.1957 -0.1860
   36DOPE  C213 4579   4.198   7.917  10.822  0.6035  0.0673  0.2434
   36DOPE  H13R 4580   4.156   7.815  10.837 -0.9135  0.4234 -1.2325
   36DOPE  H13S 4581   4.127   7.996  10.791  1.3858  0.3227 -0.9756
   36DOPE  C214 4582   4.281   7.958  10.941 -0.1933  0.1490 -0.3996
   36DOPE  H14R 4583   4.325   8.055  10.908  0.1081 -0.3370 -1.4679
   36DOPE  H14S 4584   4.356   7.878  10.954  0.4047  0.4654 -1.7233
   36DOPE  C215 4585   4.201   7.990  11.067  0.7720  0.3703 -0.4837
   36DOPE  H15R 4586   4.169   7.902  11.127  0.9216  1.4852  1.3133
   36DOPE  H15S 4587   4.113   8.051  11.038 -1.0525 -0.4920  2.8156
   36DOPE  C216 4588   4.286   8.082  11.167  0.6036 -0.4990  0.5062
   36DOPE  H16R 4589   4.283   8.185  11.125 -0.8550 -0.6046  0.3198
   36DOPE  H16S 4590   4.395   8.060  11.169  1.3088  2.4571  0.1805
   36DOPE  C217 4591   4.230   8.077  11.311 -0.5139  0.2530 -0.1501
   36DOPE  H17R 4592   4.302   8.130  11.377 -1.2792  0.0844  0.8396
   36DOPE  H17S 4593   4.239   7.971  11.342  1.5904 -0.0378 -1.5683
   36DOPE  C218 4594   4.090   8.135  11.317 -0.3837  0.5992  0.4546
   36DOPE  H18R 4595   4.026   8.075  11.248  1.0630  0.0939 -0.5034
   36DOPE  H18S 4596   4.076   8.235  11.272 -2.2584 -0.5407 -1.7102
   36DOPE  H18T 4597   4.059   8.128  11.424  1.1244  0.1509  0.8881
   36DOPE   C33 4598   5.474   7.510  10.382 -0.3139 -0.3659  0.4961
   36DOPE   H3X 4599   5.579   7.525  10.349 -0.2709  0.1528  0.8543
   36DOPE   H3Y 4600   5.477   7.423  10.450  0.3965  0.3636  1.4319
   36DOPE   C34 4601   5.425   7.630  10.469 -1.0538  0.1324  0.0093
   36DOPE   H4X 4602   5.499   7.650  10.549 -0.0856 -0.6686 -0.6524
   36DOPE   H4Y 4603   5.434   7.716  10.400  2.3686 -2.5840 -3.3587
   36DOPE   C35 4604   5.283   7.609  10.531  0.3181 -0.0190 -0.3968
   36DOPE   H5X 4605   5.208   7.617  10.450 -0.9963 -0.4271  0.7448
   36DOPE   H5Y 4606   5.262   7.700  10.592  0.0263  0.6817 -1.5228
   36DOPE   C36 4607   5.275   7.492  10.624  0.0531 -0.5051 -0.3003
   36DOPE   H6X 4608   5.326   7.489  10.722 -2.0137 -0.2091  0.8446
   36DOPE   H6Y 4609   5.318   7.404  10.572  1.5695 -0.6219  1.0970
   36DOPE   C37 4610   5.131   7.457  10.656 -0.1377 -0.5982  0.3572
   36DOPE   H7X 4611   5.088   7.542  10.713  3.3586  0.0585  2.2844
   36DOPE   H7Y 4612   5.086   7.449  10.555  1.5229  1.6853 -0.6470
   36DOPE   C38 4613   5.115   7.334  10.746  0.8579 -0.1364  0.2334
   36DOPE   H8X 4614   5.008   7.340  10.776  0.9872 -1.0563  0.9097
   36DOPE   H8Y 4615   5.178   7.329  10.837  1.7376 -0.0464 -0.3580
   36DOPE   C39 4616   5.132   7.203  10.670 -0.2160 -0.5609 -0.2164
   36DOPE   H9X 4617   5.100   7.212  10.565  1.1591 -1.4513 -0.7337
   36DOPE  C310 4618   5.185   7.086  10.701  0.0669  0.3770 -0.3741
   36DOPE  H10X 4619   5.194   7.009  10.623 -1.4359 -1.5153  1.2405
   36DOPE  C311 4620   5.275   7.064  10.823  0.0464  0.1399 -0.6230
   36DOPE  H11X 4621   5.382   7.053  10.795  0.1389  1.2745 -0.7980
   36DOPE  H11Y 4622   5.268   7.154  10.889 -1.5016 -0.0787 -0.4559
   36DOPE  C312 4623   5.258   6.930  10.900 -0.3008  0.0567 -0.5820
   36DOPE  H12X 4624   5.260   6.842  10.832 -0.0604 -1.8247  1.7362
   36DOPE  H12Y 4625   5.162   6.930  10.954  0.6935 -0.5577  1.2632
   36DOPE  C313 4626   5.380   6.895  10.987  0.0103  0.1455 -0.0764
   36DOPE  H13X 4627   5.357   6.796  11.032 -2.0557 -0.1764 -1.6753
   36DOPE  H13Y 4628   5.467   6.880  10.920 -0.8717  1.6861 -1.6757
   36DOPE  C314 4629   5.406   6.991  11.097 -0.7407 -0.2290  0.9634
   36DOPE  H14X 4630   5.410   7.097  11.063 -0.0249  0.4182  2.8817
   36DOPE  H14Y 4631   5.504   6.960  11.139 -0.2626  0.7487  0.6129
   36DOPE  C315 4632   5.298   6.982  11.206 -0.8055  0.4215  0.1436
   36DOPE  H15X 4633   5.312   6.885  11.257  0.2366 -0.1302 -1.1428
   36DOPE  H15Y 4634   5.193   6.990  11.169 -0.7051  0.5077 -0.1298
   36DOPE  C316 4635   5.298   7.101  11.302 -0.3738  0.7507  0.3235
   36DOPE  H16X 4636   5.225   7.078  11.382  0.0405 -0.4302  0.3770
   36DOPE  H16Y 4637   5.275   7.194  11.245 -0.9909 -0.0071 -0.7008
   36DOPE  C317 4638   5.428   7.132  11.371  0.0295  0.2587 -0.6366
   36DOPE  H17X 4639   5.502   7.172  11.298  0.4212 -3.2998 -2.4036
   36DOPE  H17Y 4640   5.396   7.219  11.433 -0.2929 -0.7150  0.6010
   36DOPE  C318 4641   5.486   7.024  11.460  0.2162 -0.6707  0.2729
   36DOPE  H18X 4642   5.575   7.049  11.521 -0.5263 -0.4920  1.3007
   36DOPE  H18Y 4643   5.411   6.982  11.529 -3.2813  0.5575 -2.4763
   36DOPE  H18Z 4644   5.520   6.943  11.391  0.2218 -0.6310  0.2286
   37DOPE     N 4645   0.191   5.302   9.090 -0.5200  0.3289 -0.1262
   37DOPE   HN1 4646   0.137   5.253   9.015  0.4622 -0.8803 -0.0894
   37DOPE   HN2 4647   0.125   5.298   9.170  0.0958  1.3297  0.4476
   37DOPE   HN3 4648   0.212   5.400   9.065  1.6228 -0.5551 -2.2481
   37DOPE   C12 4649   0.322   5.235   9.125  0.1294  0.0997  0.0090
   37DOPE  H12A 4650   0.382   5.306   9.186  1.8908 -0.4279 -1.0322
   37DOPE  H12B 4651   0.374   5.215   9.029 -0.6503  2.5123 -0.9791
   37DOPE   C11 4652   0.293   5.107   9.198  0.1936  0.1390 -0.5985
   37DOPE  H11A 4653   0.385   5.047   9.213  1.0556  1.3534 -0.8590
   37DOPE  H11B 4654   0.222   5.049   9.135  1.2176 -1.3376 -0.4444
   37DOPE     P 4655   0.317   5.126   9.458 -0.1512  0.1869 -0.1358
   37DOPE   O13 4656   0.231   5.165   9.572  0.3594 -0.3893  0.0162
   37DOPE   O14 4657   0.445   5.190   9.436  0.4353  0.0853  0.2423
   37DOPE   O11 4658   0.339   4.972   9.462 -0.3086 -0.1334  0.2800
   37DOPE   O12 4659   0.229   5.138   9.326  0.0470  0.2675 -0.1635
   37DOPE    C1 4660   0.229   4.877   9.457  0.4198  0.7480  0.2828
   37DOPE    HA 4661   0.241   4.814   9.367 -2.8706  0.5808 -0.1822
   37DOPE    HB 4662   0.128   4.922   9.444  0.0890 -0.0986 -0.1677
   37DOPE    C2 4663   0.237   4.788   9.579 -0.0283 -0.0265  0.0127
   37DOPE    HS 4664   0.149   4.719   9.572  0.1657 -0.3558  0.7505
   37DOPE   O21 4665   0.223   4.866   9.700 -0.4179 -0.0338  0.8028
   37DOPE   C21 4666   0.114   4.929   9.720  0.1685  0.0009  0.7174
   37DOPE   O22 4667   0.013   4.922   9.650 -0.3063 -0.5329 -0.0558
   37DOPE   C22 4668   0.136   5.036   9.840 -1.0208  0.4034  0.9632
   37DOPE   H2R 4669   0.097   5.131   9.796 -0.1935  0.8175  1.1049
   37DOPE   H2S 4670   0.247   5.038   9.846 -0.7000  1.1466 -2.7773
   37DOPE    C3 4671   0.358   4.708   9.589  0.2766  0.6777 -0.5432
   37DOPE    HX 4672   0.439   4.777   9.622 -0.2807  0.2794  1.9014
   37DOPE    HY 4673   0.386   4.674   9.487 -2.3721  1.4770 -1.6089
   37DOPE   O31 4674   0.334   4.594   9.678  0.1806 -0.2987 -0.1567
   37DOPE   C31 4675   0.441   4.576   9.767  0.4591  0.4594  0.9331
   37DOPE   O32 4676   0.546   4.632   9.765 -0.3984 -0.0229  1.0473
   37DOPE   C32 4677   0.391   4.493   9.888 -0.2725 -0.0376 -0.2780
   37DOPE   H2X 4678   0.301   4.541   9.932  0.3548  1.6958 -0.7886
   37DOPE   H2Y 4679   0.372   4.389   9.856 -2.1164  0.4379 -0.8645
   37DOPE   C23 4680   0.050   4.993   9.963 -0.3220 -0.0031 -0.0589
   37DOPE   H3R 4681  -0.054   4.982   9.926 -0.9940  1.0631  1.4053
   37DOPE   H3S 4682   0.066   5.069  10.042  1.4378  0.8578 -1.1702
   37DOPE   C24 4683   0.097   4.859  10.023 -0.3562  0.3452  0.6855
   37DOPE   H4R 4684   0.208   4.853  10.020 -0.4528 -2.7022  0.1765
   37DOPE   H4S 4685   0.074   4.770   9.961  1.5588  0.8859 -0.9271
   37DOPE   C25 4686   0.064   4.844  10.170 -0.6673 -0.5389 -0.7143
   37DOPE   H5R 4687  -0.040   4.808  10.186 -0.7293  0.3193  0.9936
   37DOPE   H5S 4688   0.073   4.948  10.210 -2.0950 -0.5767 -0.2394
   37DOPE   C26 4689   0.160   4.753  10.246  0.3081  0.2189  0.0394
   37DOPE   H6R 4690   0.264   4.793  10.256  0.3517 -0.0547  0.7593
   37DOPE   H6S 4691   0.174   4.662  10.183  2.3404 -0.2643  1.0801
   37DOPE   C27 4692   0.111   4.720  10.388 -0.0241  0.8041 -0.5911
   37DOPE   H7R 4693   0.092   4.613  10.409 -3.3855  1.0439 -1.7658
   37DOPE   H7S 4694   0.006   4.754  10.400 -1.0180 -1.3929 -2.2889
   37DOPE   C28 4695   0.198   4.767  10.507  0.2508 -0.2007  0.2943
   37DOPE   H8R 4696   0.133   4.747  10.595 -0.8542 -2.7279 -0.9687
   37DOPE   H8S 4697   0.219   4.875  10.489  1.3727 -0.5384 -0.4901
   37DOPE   C29 4698   0.323   4.690  10.516  0.0496  0.2950  1.1085
   37DOPE   H9R 4699   0.398   4.732  10.448 -0.6656  1.0331  0.7563
   37DOPE  C210 4700   0.358   4.591  10.610  0.0968 -1.0162 -0.5508
   37DOPE  H10R 4701   0.459   4.548  10.601  0.8745  1.0020 -2.4935
   37DOPE  C211 4702   0.270   4.542  10.723  0.0384 -0.0161 -0.3794
   37DOPE  H11R 4703   0.255   4.432  10.715 -5.0785  0.5116 -1.6278
   37DOPE  H11S 4704   0.168   4.585  10.728 -0.6643 -1.6609  0.5413
   37DOPE  C212 4705   0.330   4.574  10.860  0.3220 -0.2383  0.6145
   37DOPE  H12R 4706   0.337   4.684  10.869  0.0324 -0.0368 -1.2178
   37DOPE  H12S 4707   0.434   4.536  10.869  0.3325 -0.2419  0.4774
   37DOPE  C213 4708   0.250   4.519  10.973  0.4411  0.6149  0.4001
   37DOPE  H13R 4709   0.239   4.409  10.961 -0.2770  0.9380 -2.8336
   37DOPE  H13S 4710   0.149   4.564  10.966  0.2994  0.4555  1.3160
   37DOPE  C214 4711   0.309   4.558  11.107 -0.0238  0.0458 -0.5965
   37DOPE  H14R 4712   0.344   4.663  11.091 -0.3553  0.3264  0.4691
   37DOPE  H14S 4713   0.393   4.486  11.118 -1.4835 -1.4372  1.3761
   37DOPE  C215 4714   0.208   4.537  11.224 -0.0283  0.1536  0.4269
   37DOPE  H15R 4715   0.196   4.426  11.225 -0.6514  0.1828 -1.2463
   37DOPE  H15S 4716   0.109   4.579  11.195 -0.0319 -1.8482 -3.0124
   37DOPE  C216 4717   0.263   4.589  11.352 -0.0762  0.1324  0.5755
   37DOPE  H16R 4718   0.263   4.700  11.344  0.2667  0.0004 -2.0665
   37DOPE  H16S 4719   0.368   4.557  11.373 -0.1319 -0.2331  0.3079
   37DOPE  C217 4720   0.182   4.552  11.481  0.4458  0.2858 -0.5559
   37DOPE  H17R 4721   0.080   4.596  11.488  0.4998  0.7220 -2.1141
   37DOPE  H17S 4722   0.234   4.595  11.569  0.1570  0.3202 -0.4021
   37DOPE  C218 4723   0.164   4.398  11.497  0.5356 -0.0962 -0.3971
   37DOPE  H18R 4724   0.140   4.377  11.603  1.5018  2.0183  0.2924
   37DOPE  H18S 4725   0.249   4.331  11.474 -1.2748 -3.5693  2.0373
   37DOPE  H18T 4726   0.088   4.361  11.425  1.8275  0.4764 -2.1044
   37DOPE   C33 4727   0.487   4.517  10.014  0.8438  0.4735  0.6561
   37DOPE   H3X 4728   0.504   4.626  10.029  1.9996  0.4388 -0.2272
   37DOPE   H3Y 4729   0.584   4.475   9.979  0.1589  1.1942 -2.4306
   37DOPE   C34 4730   0.451   4.451  10.145  0.0688  0.6957  0.4947
   37DOPE   H4X 4731   0.366   4.501  10.195 -0.6359 -1.6296  1.8043
   37DOPE   H4Y 4732   0.415   4.347  10.127  1.0518  0.3770  0.2650
   37DOPE   C35 4733   0.565   4.445  10.251 -0.4983 -0.8591  0.3473
   37DOPE   H5X 4734   0.594   4.546  10.287  1.3975 -0.9432 -0.7959
   37DOPE   H5Y 4735   0.660   4.408  10.206  0.2764  2.2853 -0.8662
   37DOPE   C36 4736   0.520   4.363  10.380  0.3068 -1.0060  0.3032
   37DOPE   H6X 4737   0.413   4.383  10.403 -0.2622 -0.2739 -2.5147
   37DOPE   H6Y 4738   0.572   4.376  10.477  0.8477 -0.7312 -0.0183
   37DOPE   C37 4739   0.533   4.212  10.351  0.1678  0.5069  0.3259
   37DOPE   H7X 4740   0.462   4.182  10.271 -0.1369 -4.3955  2.0942
   37DOPE   H7Y 4741   0.632   4.180  10.314 -0.7930 -0.3964 -1.5944
   37DOPE   C38 4742   0.502   4.114  10.475  0.0738 -0.1273 -0.4902
   37DOPE   H8X 4743   0.479   4.024  10.414 -2.1686  1.3022 -1.8772
   37DOPE   H8Y 4744   0.402   4.130  10.522  0.2463  1.2558 -0.5653
   37DOPE   C39 4745   0.610   4.103  10.581  0.0669  0.0713  0.1183
   37DOPE   H9X 4746   0.698   4.046  10.547 -0.5255 -0.2841 -0.8492
   37DOPE  C310 4747   0.609   4.153  10.706  0.0677 -0.3525 -0.0394
   37DOPE  H10X 4748   0.681   4.117  10.780 -1.4762 -2.4461  0.5448
   37DOPE  C311 4749   0.489   4.233  10.758  0.1319  0.1275  0.2905
   37DOPE  H11X 4750   0.506   4.343  10.761  0.6510  0.0851 -0.8143
   37DOPE  H11Y 4751   0.396   4.213  10.700  1.6960 -0.8378 -2.0066
   37DOPE  C312 4752   0.473   4.184  10.909  0.2930  0.2549 -0.0949
   37DOPE  H12X 4753   0.419   4.269  10.956  1.9022  0.2570  1.9401
   37DOPE  H12Y 4754   0.559   4.188  10.980  0.2631  0.5242 -0.0734
   37DOPE  C313 4755   0.380   4.058  10.930 -0.0397 -0.6934 -0.1483
   37DOPE  H13X 4756   0.294   4.090  10.992 -0.0433 -0.8527 -0.0701
   37DOPE  H13Y 4757   0.357   4.025  10.827  0.9379 -1.9526  0.0097
   37DOPE  C314 4758   0.444   3.938  10.994  0.4178 -0.5290 -0.0240
   37DOPE  H14X 4759   0.469   3.956  11.101 -0.5735 -4.1245  0.9243
   37DOPE  H14Y 4760   0.528   3.914  10.925  0.3351  1.3331 -0.8448
   37DOPE  C315 4761   0.351   3.817  10.993 -0.0244 -0.5197  0.0694
   37DOPE  H15X 4762   0.370   3.762  10.898  1.5898 -3.4611  1.9412
   37DOPE  H15Y 4763   0.245   3.848  10.984  0.5265  1.2999 -0.7237
   37DOPE  C316 4764   0.384   3.719  11.104 -0.1545 -0.6539  0.6244
   37DOPE  H16X 4765   0.398   3.775  11.199 -0.4649  0.4060  0.0711
   37DOPE  H16Y 4766   0.477   3.668  11.071  0.4013  0.9223 -0.4092
   37DOPE  C317 4767   0.281   3.621  11.129 -0.2180 -0.1945 -0.0809
   37DOPE  H17X 4768   0.194   3.667  11.181 -0.5088  0.3613 -1.0119
   37DOPE  H17Y 4769   0.239   3.588  11.031  1.1387 -1.2494 -0.3240
   37DOPE  C318 4770   0.323   3.497  11.208 -0.5880 -0.1304 -0.1182
   37DOPE  H18X 4771   0.232   3.448  11.247 -1.9785  2.6874  0.3947
   37DOPE  H18Y 4772   0.374   3.423  11.142 -0.3475 -1.1492  1.1684
   37DOPE  H18Z 4773   0.398   3.520  11.287 -1.7502 -1.5901  1.4800
   38DOPE     N 4774   3.583   7.992   9.489 -0.2401  0.3345 -0.6171
   38DOPE   HN1 4775   3.628   8.005   9.582  0.8572  0.4976 -1.1541
   38DOPE   HN2 4776   3.558   8.082   9.443 -2.7480 -0.3370 -0.7460
   38DOPE   HN3 4777   3.495   7.937   9.499  0.0378 -0.5041 -2.3323
   38DOPE   C12 4778   3.666   7.901   9.392 -0.3526 -0.1050  0.5804
   38DOPE  H12A 4779   3.719   7.964   9.318 -2.9713 -1.1154 -2.4050
   38DOPE  H12B 4780   3.592   7.853   9.324  0.8401 -0.3294 -0.6035
   38DOPE   C11 4781   3.752   7.798   9.465 -0.2963 -0.1502  0.1686
   38DOPE  H11A 4782   3.796   7.730   9.389  0.0763 -0.1475  0.3808
   38DOPE  H11B 4783   3.680   7.744   9.531  0.9941  0.5926  2.2881
   38DOPE     P 4784   4.004   7.867   9.503 -0.1017 -0.2152  0.6186
   38DOPE   O13 4785   4.082   7.962   9.588 -0.4334 -0.2678 -0.2041
   38DOPE   O14 4786   4.013   7.890   9.357  0.9564 -0.3510 -0.2097
   38DOPE   O11 4787   4.060   7.726   9.535 -0.7228  0.3404  0.2358
   38DOPE   O12 4788   3.850   7.858   9.550 -0.1100  1.1040 -0.0847
   38DOPE    C1 4789   4.016   7.638   9.636  0.4501 -0.5465 -0.4993
   38DOPE    HA 4790   4.068   7.541   9.625 -0.0064 -0.9103  0.4220
   38DOPE    HB 4791   3.908   7.613   9.620  0.3956 -0.7675  0.1969
   38DOPE    C2 4792   4.033   7.681   9.786  0.0575  0.5117 -0.5631
   38DOPE    HS 4793   3.964   7.766   9.806 -0.2728  0.6117 -1.9970
   38DOPE   O21 4794   4.167   7.712   9.811 -0.0867  0.2214 -0.5377
   38DOPE   C21 4795   4.186   7.825   9.893  0.8360  0.9120 -0.1316
   38DOPE   O22 4796   4.098   7.902   9.932 -0.0273  0.1582 -0.1926
   38DOPE   C22 4797   4.334   7.828   9.928 -0.1778 -0.2446  0.7800
   38DOPE   H2R 4798   4.383   7.761   9.855  0.7020  0.2716  0.8768
   38DOPE   H2S 4799   4.346   7.783  10.029 -0.2042  1.1104  1.4176
   38DOPE    C3 4800   3.981   7.563   9.881  0.1841  0.4234 -0.1008
   38DOPE    HX 4801   4.063   7.488   9.881 -0.0426  0.1709 -0.4100
   38DOPE    HY 4802   3.894   7.514   9.832 -0.5629 -0.3179  1.8937
   38DOPE   O31 4803   3.948   7.597  10.017 -0.0795 -0.2041  0.2474
   38DOPE   C31 4804   4.046   7.612  10.101 -0.9558 -0.3598  0.1500
   38DOPE   O32 4805   4.167   7.600  10.082  0.8354  0.1518  0.0039
   38DOPE   C32 4806   3.984   7.658  10.230 -0.1689  0.6077  0.0180
   38DOPE   H2X 4807   3.939   7.754  10.197 -1.7674 -0.5638 -1.4136
   38DOPE   H2Y 4808   3.911   7.578  10.253 -0.8578  0.9191 -1.0451
   38DOPE   C23 4809   4.387   7.976   9.908  0.4835 -0.3506 -0.4571
   38DOPE   H3R 4810   4.318   8.012   9.830  0.1498  0.8078  0.3582
   38DOPE   H3S 4811   4.489   7.969   9.864  0.4253  2.4720 -1.1951
   38DOPE   C24 4812   4.373   8.077  10.027  0.3846 -0.3362 -0.2747
   38DOPE   H4R 4813   4.273   8.061  10.072  0.4399 -0.2068 -0.1056
   38DOPE   H4S 4814   4.380   8.183   9.995 -0.4852 -0.7886 -2.1450
   38DOPE   C25 4815   4.479   8.038  10.132  0.2961 -0.6790 -0.3996
   38DOPE   H5R 4816   4.571   8.087  10.093 -0.4598  1.6612  0.6261
   38DOPE   H5S 4817   4.483   7.928  10.147 -2.8286 -0.9630 -0.8881
   38DOPE   C26 4818   4.462   8.101  10.274 -0.0300  0.4904 -0.7545
   38DOPE   H6R 4819   4.391   8.036  10.330  1.5437 -0.3592  0.3604
   38DOPE   H6S 4820   4.425   8.205  10.269 -1.4642  0.0048 -0.5617
   38DOPE   C27 4821   4.600   8.111  10.348 -0.0451 -0.1391 -0.5189
   38DOPE   H7R 4822   4.681   8.168  10.299  1.1444 -1.5033 -0.2382
   38DOPE   H7S 4823   4.644   8.012  10.376 -0.8134 -0.4477 -0.3659
   38DOPE   C28 4824   4.604   8.181  10.487 -0.2986  0.5763  0.2552
   38DOPE   H8R 4825   4.523   8.141  10.550 -0.5866  0.5110 -0.1513
   38DOPE   H8S 4826   4.580   8.288  10.470 -4.2105 -0.0208  1.1021
   38DOPE   C29 4827   4.738   8.167  10.558  0.6157 -0.1683  0.1148
   38DOPE   H9R 4828   4.820   8.206  10.496 -1.5065  0.6873 -2.3818
   38DOPE  C210 4829   4.758   8.104  10.676 -0.5359  0.6450  0.3995
   38DOPE  H10R 4830   4.857   8.104  10.724 -1.0941  0.8305  1.5977
   38DOPE  C211 4831   4.648   8.060  10.771 -0.5113 -0.3096 -0.3949
   38DOPE  H11R 4832   4.685   7.969  10.823 -0.0754  1.4003  2.5493
   38DOPE  H11S 4833   4.548   8.043  10.727  0.4378 -0.1015 -2.7525
   38DOPE  C212 4834   4.619   8.174  10.882 -1.1035 -0.1844 -0.0365
   38DOPE  H12R 4835   4.516   8.153  10.916 -0.8350 -1.3056  0.1268
   38DOPE  H12S 4836   4.616   8.277  10.842  1.1374 -0.4588 -1.0834
   38DOPE  C213 4837   4.718   8.164  11.000 -0.3814  0.5634 -0.3967
   38DOPE  H13R 4838   4.819   8.162  10.954 -0.3762  1.1108 -0.4185
   38DOPE  H13S 4839   4.700   8.069  11.055  1.8982 -0.3490 -1.1050
   38DOPE  C214 4840   4.707   8.280  11.105 -0.8889 -0.4377  0.0079
   38DOPE  H14R 4841   4.744   8.373  11.059  1.6169 -1.0104  0.7039
   38DOPE  H14S 4842   4.755   8.254  11.202 -2.3063  1.1000  1.1779
   38DOPE  C215 4843   4.569   8.318  11.151 -0.1353 -0.0190  0.0445
   38DOPE  H15R 4844   4.516   8.231  11.195  0.8024 -0.6624 -0.0594
   38DOPE  H15S 4845   4.506   8.359  11.069  0.1310  0.9692  0.3167
   38DOPE  C216 4846   4.567   8.425  11.267 -0.1211 -0.0038  0.0480
   38DOPE  H16R 4847   4.593   8.518  11.213  0.5373  0.2673  0.8224
   38DOPE  H16S 4848   4.644   8.396  11.341 -0.0667 -3.1617 -1.0786
   38DOPE  C217 4849   4.435   8.441  11.338  0.0397 -0.3241  0.4706
   38DOPE  H17R 4850   4.429   8.378  11.429 -1.6273 -1.3332 -0.2848
   38DOPE  H17S 4851   4.356   8.400  11.271 -0.0652  1.3689 -0.4989
   38DOPE  C218 4852   4.409   8.586  11.385 -0.0231  0.5274 -0.5769
   38DOPE  H18R 4853   4.456   8.648  11.306  0.7081  1.6850  0.7348
   38DOPE  H18S 4854   4.477   8.625  11.463  1.0116  1.4129 -1.8881
   38DOPE  H18T 4855   4.301   8.606  11.405 -0.0493  0.6202 -0.8136
   38DOPE   C33 4856   4.080   7.688  10.352  0.0648  0.0375  0.0978
   38DOPE   H3X 4857   4.139   7.773  10.311 -1.3618  0.4670 -1.1585
   38DOPE   H3Y 4858   4.144   7.600  10.377  0.5563  0.2306 -0.4558
   38DOPE   C34 4859   4.002   7.729  10.479  0.8777 -0.2417 -0.5562
   38DOPE   H4X 4860   4.076   7.771  10.551 -1.3657  1.5602  0.8626
   38DOPE   H4Y 4861   3.930   7.813  10.466  1.0523  0.2684  1.4190
   38DOPE   C35 4862   3.944   7.608  10.552 -0.1698 -0.1110  0.3496
   38DOPE   H5X 4863   4.030   7.538  10.553 -0.6380 -0.6949  0.2573
   38DOPE   H5Y 4864   3.861   7.570  10.489 -0.5005  1.1872 -0.0394
   38DOPE   C36 4865   3.892   7.638  10.692  0.9764 -0.1695 -0.1622
   38DOPE   H6X 4866   3.974   7.678  10.755  1.2641  2.9980 -2.3254
   38DOPE   H6Y 4867   3.847   7.543  10.728  2.6784 -1.2145 -0.6806
   38DOPE   C37 4868   3.774   7.742  10.693  0.1736  0.1211 -0.0704
   38DOPE   H7X 4869   3.816   7.841  10.664 -0.5258  0.2039 -0.8421
   38DOPE   H7Y 4870   3.688   7.720  10.626 -1.2507 -0.5184  1.8943
   38DOPE   C38 4871   3.725   7.777  10.835 -0.2678  0.1548  0.7447
   38DOPE   H8X 4872   3.675   7.876  10.838 -1.2064 -0.3187  1.5022
   38DOPE   H8Y 4873   3.811   7.786  10.905 -0.0574 -0.4570  0.5707
   38DOPE   C39 4874   3.616   7.685  10.886  0.0626 -0.8413 -0.2500
   38DOPE   H9X 4875   3.515   7.693  10.843 -0.0779  0.9145  0.3609
   38DOPE  C310 4876   3.633   7.584  10.979  0.5978  0.2603 -0.0701
   38DOPE  H10X 4877   3.542   7.528  11.004  0.1605  1.3921  0.9465
   38DOPE  C311 4878   3.762   7.548  11.055  0.2504 -0.2028  0.0920
   38DOPE  H11X 4879   3.812   7.453  11.029  1.8203  0.6220  0.0197
   38DOPE  H11Y 4880   3.834   7.626  11.023 -0.1406  0.0076 -0.3054
   38DOPE  C312 4881   3.746   7.551  11.207  0.3536  0.0272 -0.1816
   38DOPE  H12X 4882   3.838   7.525  11.264  1.0988 -1.1125 -1.8496
   38DOPE  H12Y 4883   3.672   7.475  11.238  1.0423  0.3145  2.4625
   38DOPE  C313 4884   3.686   7.677  11.265  0.1692 -0.5312  0.0331
   38DOPE  H13X 4885   3.581   7.697  11.233  0.0567 -0.5871  0.3588
   38DOPE  H13Y 4886   3.666   7.661  11.373 -2.7690 -2.8775 -0.7268
   38DOPE  C314 4887   3.769   7.807  11.242  0.0995  1.0262 -0.3047
   38DOPE  H14X 4888   3.709   7.887  11.290  0.4859  1.9510 -1.3298
   38DOPE  H14Y 4889   3.776   7.822  11.133  1.1865  1.0508 -0.2521
   38DOPE  C315 4890   3.911   7.795  11.303  0.0389  0.2376 -0.0933
   38DOPE  H15X 4891   3.959   7.890  11.271  2.0057 -1.5909 -3.0064
   38DOPE  H15Y 4892   3.952   7.716  11.237  2.0271 -0.2571  1.6319
   38DOPE  C316 4893   3.939   7.756  11.454 -0.3204 -0.3017  0.0284
   38DOPE  H16X 4894   3.861   7.796  11.522  1.7321 -0.5632  2.6908
   38DOPE  H16Y 4895   4.025   7.812  11.497  0.2665 -1.8725  1.0028
   38DOPE  C317 4896   3.977   7.606  11.481  0.1555  0.1667  0.2828
   38DOPE  H17X 4897   3.883   7.549  11.461  0.3585  0.4185 -1.5268
   38DOPE  H17Y 4898   4.051   7.574  11.405 -0.5415 -0.8399 -0.0054
   38DOPE  C318 4899   4.019   7.585  11.628  0.1921 -0.1319 -0.1020
   38DOPE  H18X 4900   4.118   7.635  11.641  0.4618  0.1162 -2.6245
   38DOPE  H18Y 4901   3.946   7.636  11.694  0.3248 -0.2878  0.1683
   38DOPE  H18Z 4902   4.024   7.479  11.662 -2.4124 -0.2020  0.2621
   39DOPE     N 4903   0.052   5.355   9.512  0.5396  0.2834 -0.4026
   39DOPE   HN1 4904   0.044   5.430   9.439 -1.0027  0.7722  0.2284
   39DOPE   HN2 4905   0.140   5.309   9.482 -0.9934 -1.6492 -2.3463
   39DOPE   HN3 4906  -0.031   5.293   9.511  1.3430 -0.8418  0.4060
   39DOPE   C12 4907   0.058   5.430   9.645 -0.0453 -0.0030  0.3090
   39DOPE  H12A 4908   0.165   5.440   9.674 -0.2879 -0.6834  1.5281
   39DOPE  H12B 4909   0.001   5.387   9.731  1.2603  0.2324  1.3166
   39DOPE   C11 4910  -0.011   5.566   9.618  0.5395  0.1944  0.2826
   39DOPE  H11A 4911   0.057   5.618   9.546 -0.5025  2.7049  0.9891
   39DOPE  H11B 4912   0.001   5.632   9.707 -1.3539 -1.2809  1.7193
   39DOPE     P 4913  -0.256   5.597   9.667 -0.3605 -0.0017 -0.1521
   39DOPE   O13 4914  -0.377   5.573   9.592  0.3368  0.0900 -0.5787
   39DOPE   O14 4915  -0.244   5.737   9.716  0.5986 -0.5102 -0.1459
   39DOPE   O11 4916  -0.239   5.502   9.792 -0.3823  0.4306  0.0692
   39DOPE   O12 4917  -0.144   5.562   9.570 -0.3628  0.0360  0.0236
   39DOPE    C1 4918  -0.301   5.374   9.794 -0.1305 -0.6650 -0.4570
   39DOPE    HA 4919  -0.258   5.301   9.722  0.8065  1.3518 -2.0349
   39DOPE    HB 4920  -0.405   5.390   9.759 -0.2918  1.2185  0.7754
   39DOPE    C2 4921  -0.302   5.322   9.939  0.3257 -0.4251 -0.1416
   39DOPE    HS 4922  -0.366   5.231   9.937  0.3189 -0.4120 -0.6449
   39DOPE   O21 4923  -0.351   5.432  10.030 -0.2141  0.4678 -0.3002
   39DOPE   C21 4924  -0.482   5.431  10.041 -0.8288  0.1281  0.4077
   39DOPE   O22 4925  -0.551   5.361   9.965 -0.2707  0.1603 -0.3073
   39DOPE   C22 4926  -0.530   5.524  10.161  0.1939 -0.6477  0.0676
   39DOPE   H2R 4927  -0.480   5.623  10.158 -1.1696  0.0662 -0.0943
   39DOPE   H2S 4928  -0.490   5.492  10.259  0.8954  0.2381  0.0799
   39DOPE    C3 4929  -0.160   5.289   9.982  0.8643 -0.0417  0.0958
   39DOPE    HX 4930  -0.113   5.390   9.978 -1.3710  1.0468 -0.3577
   39DOPE    HY 4931  -0.124   5.210   9.913 -1.9225  0.6219 -2.3188
   39DOPE   O31 4932  -0.162   5.240  10.119 -0.6091  0.5465  0.0217
   39DOPE   C31 4933  -0.128   5.324  10.219 -0.9256 -0.1041 -0.1073
   39DOPE   O32 4934  -0.125   5.446  10.212  0.5484  0.3609  0.2109
   39DOPE   C32 4935  -0.105   5.244  10.346 -0.2378 -0.3456 -0.2051
   39DOPE   H2X 4936  -0.025   5.166  10.340  0.1014 -0.2454  2.2616
   39DOPE   H2Y 4937  -0.081   5.320  10.422 -0.3587  0.3073 -0.8078
   39DOPE   C23 4938  -0.686   5.545  10.152  0.0563  0.2160  0.1604
   39DOPE   H3R 4939  -0.731   5.456  10.202 -2.5132  1.5889  0.4843
   39DOPE   H3S 4940  -0.708   5.556  10.043  0.3942  2.5410  0.2767
   39DOPE   C24 4941  -0.727   5.678  10.217  0.5631  0.1235 -0.9133
   39DOPE   H4R 4942  -0.832   5.707  10.193  0.7267  1.5939  0.0537
   39DOPE   H4S 4943  -0.660   5.759  10.181  0.6638  0.6883  0.4792
   39DOPE   C25 4944  -0.731   5.668  10.370  0.5534  0.5586 -0.8307
   39DOPE   H5R 4945  -0.631   5.636  10.405  0.3883  0.6950 -0.2123
   39DOPE   H5S 4946  -0.803   5.590  10.404 -0.2617  1.1289 -1.2174
   39DOPE   C26 4947  -0.772   5.790  10.444  0.0257  0.3000 -0.3607
   39DOPE   H6R 4948  -0.777   5.766  10.553 -0.6536  2.5296  0.1485
   39DOPE   H6S 4949  -0.876   5.813  10.413 -0.5842  0.3437  1.5876
   39DOPE   C27 4950  -0.694   5.913  10.420  0.1353  0.7758  0.1152
   39DOPE   H7R 4951  -0.729   5.945  10.319 -0.9670  0.2996  0.3377
   39DOPE   H7S 4952  -0.584   5.895  10.410 -0.1961 -1.1939 -0.4530
   39DOPE   C28 4953  -0.709   6.038  10.512  0.5244  0.2805  0.1813
   39DOPE   H8R 4954  -0.816   6.061  10.527  0.0964 -0.4485 -1.4335
   39DOPE   H8S 4955  -0.677   6.129  10.457  3.1229  0.1853  1.4073
   39DOPE   C29 4956  -0.632   6.023  10.641  0.3739  0.7444  0.6054
   39DOPE   H9R 4957  -0.694   5.974  10.718  2.1202 -0.4462  1.2999
   39DOPE  C210 4958  -0.519   6.062  10.677 -0.7925  0.1086  0.6538
   39DOPE  H10R 4959  -0.466   6.030  10.768  0.2353 -1.4332 -0.4233
   39DOPE  C211 4960  -0.435   6.149  10.591  0.5225 -0.1952  0.5586
   39DOPE  H11R 4961  -0.499   6.234  10.559  0.0286 -0.4963  0.7434
   39DOPE  H11S 4962  -0.402   6.096  10.499 -2.0452  2.3609 -2.0396
   39DOPE  C212 4963  -0.313   6.218  10.659  0.2755  0.0110 -0.0564
   39DOPE  H12R 4964  -0.352   6.278  10.743  3.1903 -2.1033  3.0679
   39DOPE  H12S 4965  -0.270   6.291  10.586 -0.4115 -0.1708 -0.6592
   39DOPE  C213 4966  -0.202   6.119  10.697 -0.6261  0.1851  0.4639
   39DOPE  H13R 4967  -0.172   6.064  10.606  0.1942 -0.2692  0.9897
   39DOPE  H13S 4968  -0.235   6.041  10.769  0.8804 -0.6168  0.3286
   39DOPE  C214 4969  -0.075   6.190  10.746  0.2507 -0.3245  0.2217
   39DOPE  H14R 4970  -0.114   6.256  10.827  0.6174 -1.0450  1.0048
   39DOPE  H14S 4971  -0.035   6.250  10.662  0.3101 -0.0618  0.4323
   39DOPE  C215 4972   0.034   6.090  10.797  0.2232 -0.0891 -0.8234
   39DOPE  H15R 4973   0.008   6.038  10.892 -0.3102  0.1857 -0.8213
   39DOPE  H15S 4974   0.116   6.155  10.835  1.9739 -2.3740 -0.4358
   39DOPE  C216 4975   0.078   5.995  10.690  0.3536  0.4183  0.3595
   39DOPE  H16R 4976   0.089   6.060  10.600 -1.6372 -0.9807 -0.9976
   39DOPE  H16S 4977  -0.007   5.927  10.669  0.0213  1.1754 -0.8370
   39DOPE  C217 4978   0.202   5.908  10.711 -0.1481  0.4092 -0.2862
   39DOPE  H17R 4979   0.221   5.846  10.621  0.3970  1.4428 -0.8939
   39DOPE  H17S 4980   0.175   5.829  10.784 -0.8758 -0.4748 -1.4730
   39DOPE  C218 4981   0.333   5.983  10.754 -0.7065  0.0332  0.0020
   39DOPE  H18R 4982   0.409   5.907  10.782  0.7101  1.6323  0.6879
   39DOPE  H18S 4983   0.317   6.037  10.850 -0.9627  0.5055 -0.3024
   39DOPE  H18T 4984   0.373   6.051  10.676  1.5907 -0.0485  1.0350
   39DOPE   C33 4985  -0.228   5.174  10.401  0.4139  0.2181 -0.3416
   39DOPE   H3X 4986  -0.274   5.135  10.307  2.1236  2.4606 -2.2373
   39DOPE   H3Y 4987  -0.294   5.255  10.439 -0.1188  0.6002 -1.9785
   39DOPE   C34 4988  -0.204   5.060  10.497 -0.5679 -0.2841  0.0625
   39DOPE   H4X 4989  -0.294   4.995  10.498 -0.7944  0.0181 -0.3571
   39DOPE   H4Y 4990  -0.123   4.995  10.458 -0.7809 -0.5235  0.0218
   39DOPE   C35 4991  -0.163   5.103  10.644  0.1602 -0.0094 -0.0358
   39DOPE   H5X 4992  -0.246   5.159  10.693 -0.3029  0.0033 -0.8155
   39DOPE   H5Y 4993  -0.074   5.167  10.627  0.8189 -0.3465  1.9507
   39DOPE   C36 4994  -0.119   4.978  10.724  0.3804 -0.1364 -0.1100
   39DOPE   H6X 4995  -0.090   5.015  10.825  0.6196  0.2182 -0.3054
   39DOPE   H6Y 4996  -0.023   4.939  10.682  0.3459  1.5229 -1.8848
   39DOPE   C37 4997  -0.232   4.872  10.740 -0.4209  0.5237 -0.1846
   39DOPE   H7X 4998  -0.303   4.935  10.798 -0.4706  1.9412 -1.6837
   39DOPE   H7Y 4999  -0.278   4.850  10.641  2.0463 -1.9232 -0.9020
   39DOPE   C38 5000  -0.183   4.745  10.807  0.3173  0.5536  0.5062
   39DOPE   H8X 5001  -0.126   4.765  10.900 -0.7216  1.4364  0.9685
   39DOPE   H8Y 5002  -0.111   4.686  10.746 -0.7014  1.9747 -2.2258
   39DOPE   C39 5003  -0.296   4.648  10.851  0.7989 -0.6946  0.3534
   39DOPE   H9X 5004  -0.392   4.662  10.800  0.6019 -0.2557  0.8384
   39DOPE  C310 5005  -0.301   4.565  10.952  0.0691  0.4837 -0.2317
   39DOPE  H10X 5006  -0.389   4.501  10.969  0.4474  0.0794  0.2396
   39DOPE  C311 5007  -0.187   4.545  11.046  0.0986 -0.2155 -0.2166
   39DOPE  H11X 5008  -0.144   4.444  11.031 -3.5391 -2.2017  1.3345
   39DOPE  H11Y 5009  -0.115   4.628  11.032 -1.9636  1.5407 -1.0346
   39DOPE  C312 5010  -0.229   4.554  11.193  0.6372 -0.1484 -0.4980
   39DOPE  H12X 5011  -0.287   4.645  11.218 -0.7935 -0.9934 -0.6170
   39DOPE  H12Y 5012  -0.140   4.561  11.259  0.8848 -0.0954 -0.8337
   39DOPE  C313 5013  -0.311   4.432  11.241  0.9096  0.1367  0.2519
   39DOPE  H13X 5014  -0.410   4.424  11.191  1.3809 -0.6165 -0.5838
   39DOPE  H13Y 5015  -0.252   4.343  11.210 -0.0294 -0.6419  0.6122
   39DOPE  C314 5016  -0.335   4.423  11.400  0.0702  0.1328 -0.2278
   39DOPE  H14X 5017  -0.364   4.317  11.415  1.3636 -0.0304  1.4529
   39DOPE  H14Y 5018  -0.418   4.491  11.427  0.3959 -0.0646  1.3753
   39DOPE  C315 5019  -0.208   4.441  11.480  0.3387 -0.1171 -0.1791
   39DOPE  H15X 5020  -0.179   4.547  11.500 -0.3378 -0.1564  1.0976
   39DOPE  H15Y 5021  -0.127   4.391  11.422  0.0749  0.1551 -0.7983
   39DOPE  C316 5022  -0.202   4.362  11.614  0.0533 -0.0075  0.2060
   39DOPE  H16X 5023  -0.096   4.351  11.646  0.6170 -0.9535 -1.8388
   39DOPE  H16Y 5024  -0.242   4.262  11.589  0.6700  0.3375 -2.5679
   39DOPE  C317 5025  -0.295   4.435  11.709 -0.5765 -0.1394 -0.2101
   39DOPE  H17X 5026  -0.246   4.531  11.737 -0.7709 -0.1366  0.1153
   39DOPE  H17Y 5027  -0.393   4.461  11.663 -1.0496  0.2929  1.0211
   39DOPE  C318 5028  -0.324   4.356  11.836 -0.5992 -0.4977 -0.2636
   39DOPE  H18X 5029  -0.414   4.400  11.885 -0.4195  0.1268 -0.4727
   39DOPE  H18Y 5030  -0.343   4.250  11.809  1.0231 -0.2725 -2.6569
   39DOPE  H18Z 5031  -0.242   4.373  11.909 -1.2650  2.5247 -0.0564
   40DOPE     N 5032   2.518   7.210   8.897  0.6281  0.4363  0.4849
   40DOPE   HN1 5033   2.541   7.161   8.986 -0.3588  1.2484  1.2135
   40DOPE   HN2 5034   2.464   7.138   8.845  2.3641 -0.3786 -0.2864
   40DOPE   HN3 5035   2.608   7.220   8.846  0.6994 -0.1052  0.4895
   40DOPE   C12 5036   2.460   7.343   8.924 -0.6321 -0.6511 -0.0416
   40DOPE  H12A 5037   2.358   7.336   8.880  0.0443  0.2926 -1.8677
   40DOPE  H12B 5038   2.510   7.424   8.867 -1.0259  1.1828  2.0923
   40DOPE   C11 5039   2.451   7.382   9.074 -0.3818  0.3617 -0.4024
   40DOPE  H11A 5040   2.382   7.308   9.122  2.0685 -2.5328 -1.0080
   40DOPE  H11B 5041   2.406   7.482   9.091 -0.1109  0.6310 -1.2184
   40DOPE     P 5042   2.652   7.272   9.216  0.0224 -0.4644  0.2764
   40DOPE   O13 5043   2.771   7.323   9.283 -0.1065 -0.5112  0.2884
   40DOPE   O14 5044   2.681   7.170   9.112 -0.2743 -0.3286  0.5428
   40DOPE   O11 5045   2.553   7.224   9.327 -0.5477  0.2034 -0.8703
   40DOPE   O12 5046   2.575   7.397   9.145 -0.2086  0.1819  0.5630
   40DOPE    C1 5047   2.502   7.316   9.425 -0.7678 -1.1486  0.2199
   40DOPE    HA 5048   2.394   7.295   9.438 -1.6288  1.8793 -1.0624
   40DOPE    HB 5049   2.515   7.424   9.400 -1.2683 -1.3317 -0.8677
   40DOPE    C2 5050   2.568   7.288   9.563  0.1806  0.2922  1.1620
   40DOPE    HS 5051   2.679   7.295   9.555  0.0341  2.4281  0.3058
   40DOPE   O21 5052   2.528   7.162   9.615  0.1332  0.8555 -0.0232
   40DOPE   C21 5053   2.613   7.106   9.697  0.4498  0.3277  0.1187
   40DOPE   O22 5054   2.725   7.144   9.727 -0.5618  0.1647  0.3862
   40DOPE   C22 5055   2.543   6.984   9.756  0.1218 -0.2633  0.0012
   40DOPE   H2R 5056   2.518   6.930   9.662  3.6971 -0.6843 -0.8506
   40DOPE   H2S 5057   2.453   7.030   9.804  0.9108  1.7632 -0.3398
   40DOPE    C3 5058   2.525   7.405   9.658 -0.6074 -0.6713 -0.1922
   40DOPE    HX 5059   2.415   7.421   9.651 -0.7954 -1.8941 -0.4198
   40DOPE    HY 5060   2.562   7.490   9.597 -0.4078 -1.4407 -1.1752
   40DOPE   O31 5061   2.566   7.393   9.795 -0.2032 -0.1764  0.1294
   40DOPE   C31 5062   2.695   7.428   9.810  0.7423 -0.1586  0.3613
   40DOPE   O32 5063   2.757   7.489   9.726 -0.1987 -0.1925  0.2105
   40DOPE   C32 5064   2.750   7.388   9.948 -0.9824  0.4371 -0.2471
   40DOPE   H2X 5065   2.796   7.288   9.936  1.1018  1.1899  0.8777
   40DOPE   H2Y 5066   2.828   7.464   9.973 -0.6940  0.4070 -1.0352
   40DOPE   C23 5067   2.628   6.890   9.846  0.2538 -0.4323 -0.7877
   40DOPE   H3R 5068   2.725   6.857   9.805  1.9859  1.4237  1.5269
   40DOPE   H3S 5069   2.569   6.796   9.855 -0.6524  0.2789  1.3373
   40DOPE   C24 5070   2.659   6.942   9.987 -0.4391  0.1202 -0.6426
   40DOPE   H4R 5071   2.568   6.948  10.051 -0.8902 -1.0777 -1.1291
   40DOPE   H4S 5072   2.703   7.043   9.977  0.5680 -0.3518 -1.1104
   40DOPE   C25 5073   2.756   6.845  10.050 -0.2106  1.0320  0.3667
   40DOPE   H5R 5074   2.852   6.839   9.995 -1.5649 -0.2756 -2.0463
   40DOPE   H5S 5075   2.707   6.745  10.045  0.1341  0.9186 -2.5696
   40DOPE   C26 5076   2.782   6.875  10.197  0.1291 -1.1839 -0.8701
   40DOPE   H6R 5077   2.785   6.775  10.245 -2.2047 -0.9136 -0.0263
   40DOPE   H6S 5078   2.696   6.926  10.245 -1.2339 -2.1669 -2.1852
   40DOPE   C27 5079   2.905   6.970  10.222 -0.0207  0.5734  0.6115
   40DOPE   H7R 5080   2.902   7.007  10.326 -2.2816 -0.1784  0.8666
   40DOPE   H7S 5081   2.898   7.062  10.161 -0.4343 -0.2994 -0.6968
   40DOPE   C28 5082   3.041   6.897  10.207  0.4393 -0.0393  0.2126
   40DOPE   H8R 5083   3.048   6.859  10.102  0.0131  0.4899 -0.0143
   40DOPE   H8S 5084   3.055   6.805  10.267 -0.4749 -2.0466 -2.4511
   40DOPE   C29 5085   3.162   6.983  10.223  0.3921 -0.0299  0.4351
   40DOPE   H9R 5086   3.199   7.012  10.124 -0.8742 -0.9151 -0.3296
   40DOPE  C210 5087   3.233   6.990  10.334  0.8403 -1.3814 -0.2844
   40DOPE  H10R 5088   3.329   7.044  10.340 -0.7503  1.4651  2.0213
   40DOPE  C211 5089   3.183   6.937  10.470  0.5883  0.1918  0.2056
   40DOPE  H11R 5090   3.238   6.842  10.486  1.9163  0.9449  0.2464
   40DOPE  H11S 5091   3.075   6.911  10.461  0.5933  0.4902 -0.8236
   40DOPE  C212 5092   3.183   7.030  10.595  0.1371  0.4269  0.5578
   40DOPE  H12R 5093   3.178   6.964  10.685 -0.0798  0.6258  0.6933
   40DOPE  H12S 5094   3.092   7.094  10.590  0.5080  0.8389 -1.7251
   40DOPE  C213 5095   3.318   7.103  10.617  0.3526  0.1568 -0.0051
   40DOPE  H13R 5096   3.306   7.152  10.716  1.0673 -0.9680  0.6674
   40DOPE  H13S 5097   3.325   7.185  10.542  1.9085  1.5843  1.6027
   40DOPE  C214 5098   3.447   7.023  10.611 -0.2937 -0.2797 -0.4235
   40DOPE  H14R 5099   3.478   7.012  10.505  0.4012  1.1713 -0.3981
   40DOPE  H14S 5100   3.426   6.925  10.660 -0.8777 -0.0973 -0.3053
   40DOPE  C215 5101   3.570   7.096  10.674 -0.4437  0.3932 -0.3011
   40DOPE  H15R 5102   3.596   7.183  10.610  1.9037 -0.2907 -0.3629
   40DOPE  H15S 5103   3.668   7.045  10.677 -0.0851  1.1094  0.4027
   40DOPE  C216 5104   3.554   7.150  10.820 -0.4796  0.1735 -0.3650
   40DOPE  H16R 5105   3.518   7.073  10.892 -1.7426 -0.0257 -1.1820
   40DOPE  H16S 5106   3.465   7.216  10.815 -1.2732 -0.8920 -0.7531
   40DOPE  C217 5107   3.679   7.221  10.877  0.0675  0.5711 -0.3048
   40DOPE  H17R 5108   3.662   7.303  10.951 -0.3204  2.6321 -2.5330
   40DOPE  H17S 5109   3.728   7.281  10.798  0.9614  0.5012  0.1770
   40DOPE  C218 5110   3.777   7.123  10.932  0.5674 -0.0451 -0.4381
   40DOPE  H18R 5111   3.799   7.040  10.861  0.5696 -0.4128 -0.0114
   40DOPE  H18S 5112   3.728   7.079  11.021  2.0720 -0.5097  0.1951
   40DOPE  H18T 5113   3.876   7.165  10.961  0.8646 -0.7632 -0.3998
   40DOPE   C33 5114   2.648   7.360  10.061 -0.2757 -0.0937  0.3897
   40DOPE   H3X 5115   2.699   7.297  10.136  1.2792 -0.5484 -0.9790
   40DOPE   H3Y 5116   2.574   7.295  10.011 -0.5971  0.5853 -0.0252
   40DOPE   C34 5117   2.578   7.491  10.119 -0.3061  0.4284  0.6712
   40DOPE   H4X 5118   2.650   7.541  10.186 -0.4481 -0.9738  1.9186
   40DOPE   H4Y 5119   2.551   7.561  10.036  0.7324 -1.4281 -1.3461
   40DOPE   C35 5120   2.464   7.469  10.208  0.0583  0.0526 -0.0946
   40DOPE   H5X 5121   2.489   7.386  10.277 -1.7630 -0.9576 -0.5852
   40DOPE   H5Y 5122   2.375   7.433  10.152  0.5335  2.1522 -2.4036
   40DOPE   C36 5123   2.429   7.590  10.298  0.5691  0.2946  0.4623
   40DOPE   H6X 5124   2.363   7.661  10.242 -0.4396 -0.7862  0.2349
   40DOPE   H6Y 5125   2.521   7.639  10.335 -1.3104  3.4915  1.3077
   40DOPE   C37 5126   2.346   7.528  10.418 -0.4782  0.4131  0.0977
   40DOPE   H7X 5127   2.266   7.459  10.385  1.2787 -1.3626 -0.6244
   40DOPE   H7Y 5128   2.424   7.459  10.457 -0.2135  0.4401 -0.3794
   40DOPE   C38 5129   2.308   7.631  10.529 -0.0861  0.0289 -0.0144
   40DOPE   H8X 5130   2.236   7.583  10.598 -0.7430  0.5776 -0.3030
   40DOPE   H8Y 5131   2.247   7.710  10.481 -2.1988 -1.8803 -0.6709
   40DOPE   C39 5132   2.430   7.685  10.596  0.6390 -0.1156 -0.6936
   40DOPE   H9X 5133   2.516   7.712  10.534  2.4071  0.4319  1.8492
   40DOPE  C310 5134   2.453   7.694  10.726  0.0299 -0.5320  0.0101
   40DOPE  H10X 5135   2.552   7.732  10.754  0.2416 -0.3977 -0.9205
   40DOPE  C311 5136   2.358   7.646  10.837 -0.3778 -0.1494 -0.1213
   40DOPE  H11X 5137   2.290   7.733  10.850  1.1424  0.9524  0.7732
   40DOPE  H11Y 5138   2.301   7.559  10.798 -0.3511 -0.4038  0.4017
   40DOPE  C312 5139   2.425   7.607  10.963 -0.3367  0.3010 -1.1586
   40DOPE  H12X 5140   2.508   7.534  10.951  2.0730  2.5655  0.6995
   40DOPE  H12Y 5141   2.355   7.555  11.032  0.1860  1.1063  0.0103
   40DOPE  C313 5142   2.494   7.719  11.041  0.2130 -0.0345  0.1823
   40DOPE  H13X 5143   2.535   7.679  11.136  0.4268 -0.7970 -0.2281
   40DOPE  H13Y 5144   2.578   7.757  10.980  1.2082  0.3284  1.7040
   40DOPE  C314 5145   2.404   7.832  11.083  0.0585 -0.2589  0.4187
   40DOPE  H14X 5146   2.349   7.872  10.996  0.9187  2.2229  0.9327
   40DOPE  H14Y 5147   2.470   7.905  11.134  2.2775 -1.8565 -0.0017
   40DOPE  C315 5148   2.303   7.795  11.197 -0.6262  0.2606 -0.0118
   40DOPE  H15X 5149   2.359   7.743  11.277 -2.2754 -1.9697 -0.1915
   40DOPE  H15Y 5150   2.245   7.708  11.156  0.2257 -0.0931 -0.4957
   40DOPE  C316 5151   2.216   7.914  11.247  0.2740 -0.0265 -0.0248
   40DOPE  H16X 5152   2.147   7.950  11.167 -0.8926 -1.4453  0.2917
   40DOPE  H16Y 5153   2.286   7.998  11.268  1.4254 -0.9926  0.0787
   40DOPE  C317 5154   2.131   7.863  11.363  0.2616  0.2630 -0.5306
   40DOPE  H17X 5155   2.047   7.797  11.333 -0.9786  0.8996  1.4127
   40DOPE  H17Y 5156   2.192   7.812  11.441 -0.0924  1.2395  0.3980
   40DOPE  C318 5157   2.066   7.978  11.445  0.3114  1.0205 -0.5168
   40DOPE  H18X 5158   1.998   8.035  11.378 -1.9786 -1.8553 -0.7968
   40DOPE  H18Y 5159   2.027   7.941  11.542  1.8883  2.6237  0.8027
   40DOPE  H18Z 5160   2.150   8.044  11.476  0.4331 -0.3669  2.4780
   41DOPE     N 5161   0.157   6.365   9.378  0.1722  0.3476 -0.0829
   41DOPE   HN1 5162   0.190   6.273   9.413 -2.6703 -1.3458 -1.5441
   41DOPE   HN2 5163   0.058   6.382   9.404 -0.0326 -1.2260  0.2227
   41DOPE   HN3 5164   0.151   6.339   9.278 -0.7205 -0.3750  0.1513
   41DOPE   C12 5165   0.249   6.483   9.405  0.0840 -0.1572  0.3089
   41DOPE  H12A 5166   0.329   6.466   9.330 -0.9597 -1.0868 -0.6359
   41DOPE  H12B 5167   0.284   6.474   9.510 -1.6161 -1.4198  0.8153
   41DOPE   C11 5168   0.173   6.618   9.397  0.0226 -0.1023 -0.7192
   41DOPE  H11A 5169   0.146   6.637   9.291  1.7720  0.0622 -1.1639
   41DOPE  H11B 5170   0.243   6.698   9.428 -0.8639 -0.3333  2.2270
   41DOPE     P 5171  -0.018   6.762   9.474 -0.2915 -0.2221  0.1567
   41DOPE   O13 5172  -0.111   6.754   9.356 -0.4351  0.8209  0.3002
   41DOPE   O14 5173   0.071   6.877   9.481  0.2110 -0.4549 -0.3334
   41DOPE   O11 5174  -0.116   6.766   9.592  0.0715  0.7488  0.4392
   41DOPE   O12 5175   0.053   6.627   9.482 -0.5782 -0.1693 -0.1110
   41DOPE    C1 5176  -0.079   6.733   9.727  0.5780 -0.3771  0.1668
   41DOPE    HA 5177  -0.001   6.654   9.731 -0.4049 -1.4344 -0.7337
   41DOPE    HB 5178  -0.169   6.709   9.788  0.1708 -1.3213 -0.7599
   41DOPE    C2 5179  -0.017   6.853   9.803  0.0929  0.3366 -0.4351
   41DOPE    HS 5180  -0.077   6.943   9.775 -0.6447 -0.8376 -2.9141
   41DOPE   O21 5181   0.124   6.872   9.769  0.2342 -0.2449 -0.1929
   41DOPE   C21 5182   0.165   6.995   9.766  0.7805  0.4550  0.2319
   41DOPE   O22 5183   0.094   7.092   9.791 -0.0038 -0.3749 -0.5017
   41DOPE   C22 5184   0.318   6.989   9.762  0.3174  0.3875 -0.2355
   41DOPE   H2R 5185   0.341   7.004   9.654 -0.5288 -0.9117 -0.6166
   41DOPE   H2S 5186   0.360   6.886   9.768  2.5622  0.9979 -3.0722
   41DOPE    C3 5187  -0.036   6.836   9.956  0.0526 -0.3936  0.4387
   41DOPE    HX 5188   0.045   6.765   9.984 -0.5337 -1.9744 -1.5645
   41DOPE    HY 5189  -0.138   6.796   9.974 -0.1433 -1.2415 -2.0928
   41DOPE   O31 5190  -0.003   6.964  10.020  0.3250 -0.1805  0.2186
   41DOPE   C31 5191  -0.103   7.045  10.032 -0.2632 -0.6521 -0.1727
   41DOPE   O32 5192  -0.217   7.026   9.996 -0.6551 -0.4902 -0.0011
   41DOPE   C32 5193  -0.057   7.164  10.120 -0.1845 -0.2207  0.6003
   41DOPE   H2X 5194  -0.069   7.127  10.224 -1.8907  1.8025  1.1984
   41DOPE   H2Y 5195   0.051   7.184  10.106 -0.1669  0.2834  1.3831
   41DOPE   C23 5196   0.385   7.102   9.843 -0.1394 -0.8041  0.0560
   41DOPE   H3R 5197   0.336   7.200   9.826  0.1072 -0.8934 -1.2962
   41DOPE   H3S 5198   0.494   7.112   9.823 -0.5312  1.3140 -1.4265
   41DOPE   C24 5199   0.382   7.065   9.993 -0.0154  0.0040 -0.0846
   41DOPE   H4R 5200   0.277   7.043  10.022 -0.5346  1.7564 -0.5372
   41DOPE   H4S 5201   0.407   7.159  10.048  1.0137  0.2130 -0.8832
   41DOPE   C25 5202   0.477   6.951  10.036  0.2945  0.3909 -0.0305
   41DOPE   H5R 5203   0.580   6.990  10.023  1.5521 -1.6863  2.5631
   41DOPE   H5S 5204   0.465   6.855   9.981  1.2027  0.0823  0.3027
   41DOPE   C26 5205   0.473   6.916  10.193  0.3203 -0.0583  0.3485
   41DOPE   H6R 5206   0.384   6.851  10.207  1.6652 -2.1228 -0.1361
   41DOPE   H6S 5207   0.460   7.010  10.250 -2.4684 -1.3259  1.9823
   41DOPE   C27 5208   0.602   6.832  10.237 -0.3038  0.6223 -1.0124
   41DOPE   H7R 5209   0.692   6.892  10.212  0.7768 -0.7925 -0.6368
   41DOPE   H7S 5210   0.603   6.748  10.165 -0.5088 -1.5930  1.4102
   41DOPE   C28 5211   0.599   6.756  10.374 -0.4603  0.1158  0.4447
   41DOPE   H8R 5212   0.681   6.681  10.371 -0.7984 -0.2319 -0.8961
   41DOPE   H8S 5213   0.501   6.705  10.379  0.4391 -1.6927  0.4236
   41DOPE   C29 5214   0.616   6.860  10.475 -0.2100  0.3909  0.4161
   41DOPE   H9R 5215   0.549   6.946  10.457 -1.2920 -0.7768 -1.3954
   41DOPE  C210 5216   0.688   6.853  10.586 -0.0968 -0.1423 -0.3220
   41DOPE  H10R 5217   0.685   6.945  10.647 -1.1818  0.0458 -0.6357
   41DOPE  C211 5218   0.778   6.740  10.637 -0.1230  0.4878 -0.0804
   41DOPE  H11R 5219   0.725   6.649  10.601  0.5962 -0.3015  0.8081
   41DOPE  H11S 5220   0.768   6.715  10.745 -1.3342 -2.2280 -0.7259
   41DOPE  C212 5221   0.926   6.736  10.590 -0.1965 -0.1987 -0.8577
   41DOPE  H12R 5222   0.930   6.782  10.489 -0.7060  0.8646 -0.4089
   41DOPE  H12S 5223   0.949   6.627  10.583 -1.3862 -0.6671  1.6404
   41DOPE  C213 5224   1.018   6.816  10.690  0.5377 -0.0879  0.3896
   41DOPE  H13R 5225   0.970   6.911  10.723  0.5344 -1.0717  3.4449
   41DOPE  H13S 5226   1.103   6.850  10.626  0.7817 -0.3948  0.5539
   41DOPE  C214 5227   1.068   6.735  10.805 -0.1913 -0.5249  0.6211
   41DOPE  H14R 5228   0.989   6.672  10.850 -0.1406  0.4367  2.1255
   41DOPE  H14S 5229   1.107   6.809  10.879  2.4614 -0.0192 -1.1189
   41DOPE  C215 5230   1.196   6.651  10.781  0.1955 -0.2133  0.1717
   41DOPE  H15R 5231   1.288   6.713  10.782 -0.8258  1.3667 -0.2214
   41DOPE  H15S 5232   1.175   6.609  10.680 -3.1866  2.1225 -0.2777
   41DOPE  C216 5233   1.200   6.527  10.876  0.1287 -0.0268  0.0300
   41DOPE  H16R 5234   1.112   6.460  10.883  0.3680 -0.1833  2.6807
   41DOPE  H16S 5235   1.207   6.565  10.980  1.0842  0.6889 -0.2746
   41DOPE  C217 5236   1.321   6.435  10.854 -0.9242 -0.8821  0.1811
   41DOPE  H17R 5237   1.414   6.496  10.854 -0.5051 -1.5059  0.7386
   41DOPE  H17S 5238   1.309   6.393  10.752  0.8833 -2.6678  0.6238
   41DOPE  C218 5239   1.331   6.320  10.957  0.4549 -0.6580 -0.6652
   41DOPE  H18R 5240   1.440   6.303  10.959  0.7140  0.8159 -0.8269
   41DOPE  H18S 5241   1.257   6.242  10.930 -0.6450  0.2608 -0.3809
   41DOPE  H18T 5242   1.298   6.359  11.056 -0.1543 -0.3306 -0.9912
   41DOPE   C33 5243  -0.148   7.285  10.100  0.4347 -0.1840 -0.1375
   41DOPE   H3X 5244  -0.256   7.270  10.121 -0.2095  2.6346 -0.9325
   41DOPE   H3Y 5245  -0.139   7.313   9.992 -2.6445 -1.6748 -0.9020
   41DOPE   C34 5246  -0.109   7.407  10.182 -0.1979  0.1364 -0.0942
   41DOPE   H4X 5247  -0.011   7.442  10.143 -0.8200  1.4922 -0.4727
   41DOPE   H4Y 5248  -0.176   7.492  10.156 -0.2581  0.1122 -0.0206
   41DOPE   C35 5249  -0.119   7.403  10.332  0.1128  0.7576  0.0241
   41DOPE   H5X 5250  -0.026   7.370  10.381  0.3460  2.4887  0.8149
   41DOPE   H5Y 5251  -0.213   7.354  10.365  1.3501 -1.8976 -0.1677
   41DOPE   C36 5252  -0.123   7.546  10.400  0.7649  0.4889 -0.0969
   41DOPE   H6X 5253  -0.200   7.609  10.351  0.4625  0.3041  0.1348
   41DOPE   H6Y 5254  -0.021   7.589  10.388 -0.0384  2.3615 -0.5561
   41DOPE   C37 5255  -0.149   7.528  10.549  0.5778  0.4039 -1.1912
   41DOPE   H7X 5256  -0.099   7.441  10.598 -0.9115  0.1500 -0.0389
   41DOPE   H7Y 5257  -0.120   7.621  10.604 -0.4666 -0.5378  1.0923
   41DOPE   C38 5258  -0.304   7.514  10.586 -0.1410 -1.0259  0.5180
   41DOPE   H8X 5259  -0.330   7.413  10.549  4.0295 -1.8036 -0.7597
   41DOPE   H8Y 5260  -0.353   7.597  10.529  0.8375 -0.4996  0.4157
   41DOPE   C39 5261  -0.330   7.506  10.732 -0.5040  0.7412 -0.3620
   41DOPE   H9X 5262  -0.288   7.414  10.774  1.8291  2.3754  1.1265
   41DOPE  C310 5263  -0.388   7.586  10.815  0.0280  0.2922  0.4769
   41DOPE  H10X 5264  -0.407   7.557  10.920 -0.4812  2.2751  0.9769
   41DOPE  C311 5265  -0.462   7.702  10.780  0.1017 -0.7552 -0.2153
   41DOPE  H11X 5266  -0.399   7.789  10.811  1.8644 -2.4558  1.2462
   41DOPE  H11Y 5267  -0.483   7.705  10.671 -1.3570  2.4915  0.0403
   41DOPE  C312 5268  -0.600   7.708  10.851  0.1121 -0.3119 -0.2033
   41DOPE  H12X 5269  -0.664   7.623  10.821 -0.5265  0.0614  0.0852
   41DOPE  H12Y 5270  -0.653   7.803  10.828 -0.8037 -1.3698 -2.7714
   41DOPE  C313 5271  -0.590   7.722  11.008  0.3060 -0.6286 -0.4925
   41DOPE  H13X 5272  -0.521   7.646  11.051 -0.2895 -1.6778 -1.3197
   41DOPE  H13Y 5273  -0.560   7.825  11.034  1.9470 -1.0931 -0.4206
   41DOPE  C314 5274  -0.726   7.705  11.090  0.5610 -0.7747  0.5490
   41DOPE  H14X 5275  -0.791   7.782  11.044 -2.0141 -2.0964  1.7883
   41DOPE  H14Y 5276  -0.714   7.740  11.195 -4.1706  3.4848  0.0296
   41DOPE  C315 5277  -0.808   7.574  11.068  0.4352  0.2085 -0.0494
   41DOPE  H15X 5278  -0.747   7.495  11.116 -2.7986 -2.3341  0.2394
   41DOPE  H15Y 5279  -0.821   7.545  10.961 -0.7730 -0.7243  0.3287
   41DOPE  C316 5280  -0.940   7.582  11.144 -0.2196 -0.3653 -0.0089
   41DOPE  H16X 5281  -1.005   7.668  11.119 -1.4361 -0.4140  2.6355
   41DOPE  H16Y 5282  -0.913   7.601  11.251 -0.3699  1.3702 -0.2550
   41DOPE  C317 5283  -1.023   7.452  11.146 -0.3275  0.0465  0.6600
   41DOPE  H17X 5284  -1.037   7.422  11.040 -1.3954  0.0503  0.7868
   41DOPE  H17Y 5285  -0.968   7.371  11.198 -0.1948 -1.0969 -1.1710
   41DOPE  C318 5286  -1.166   7.470  11.208  0.9735  0.2977  0.5342
   41DOPE  H18X 5287  -1.168   7.469  11.319 -1.4033 -1.0513  0.5272
   41DOPE  H18Y 5288  -1.206   7.569  11.176  2.0488  1.0368  1.3723
   41DOPE  H18Z 5289  -1.234   7.389  11.176  0.4197  0.9311  0.0704
   42DOPE     N 5290   7.980   6.024   9.554  0.2581  0.0002  0.1484
   42DOPE   HN1 5291   7.917   6.099   9.591 -1.4699 -1.8250  1.1272
   42DOPE   HN2 5292   8.007   6.040   9.455  0.1153  0.9094  0.2489
   42DOPE   HN3 5293   7.918   5.940   9.548  1.5697 -1.0498  0.8064
   42DOPE   C12 5294   8.092   6.010   9.645  0.4708 -0.2317  0.0476
   42DOPE  H12A 5295   8.168   5.946   9.595  0.6954  0.5342 -0.6321
   42DOPE  H12B 5296   8.056   5.956   9.735 -1.0291  0.3918 -0.1436
   42DOPE   C11 5297   8.164   6.146   9.677  0.5963  0.3639  0.2238
   42DOPE  H11A 5298   8.243   6.129   9.753  1.5008 -0.7875 -0.9337
   42DOPE  H11B 5299   8.081   6.204   9.724  0.4152  0.4249 -0.1657
   42DOPE     P 5300   8.241   6.349   9.540  0.0974  0.0990  0.4069
   42DOPE   O13 5301   8.121   6.433   9.549  0.4895  0.2785 -0.4195
   42DOPE   O14 5302   8.339   6.363   9.427 -0.9925  0.8946  0.3983
   42DOPE   O11 5303   8.318   6.384   9.678 -0.1755 -0.3070  0.2645
   42DOPE   O12 5304   8.210   6.198   9.554 -0.4990 -0.3231 -0.1345
   42DOPE    C1 5305   8.447   6.324   9.700  0.5637  0.2903 -0.1132
   42DOPE    HA 5306   8.527   6.397   9.676  0.1166  1.0541  0.6254
   42DOPE    HB 5307   8.462   6.229   9.645 -1.2053 -0.0612 -0.0503
   42DOPE    C2 5308   8.469   6.287   9.852  0.2415 -0.2018 -0.2874
   42DOPE    HS 5309   8.386   6.216   9.874 -2.0916  2.3280 -0.2563
   42DOPE   O21 5310   8.452   6.394   9.943 -0.3933  0.0949  0.1356
   42DOPE   C21 5311   8.402   6.379  10.064  0.1677 -0.0540  0.2228
   42DOPE   O22 5312   8.367   6.274  10.115 -0.1519  0.2145 -0.2182
   42DOPE   C22 5313   8.418   6.519  10.137 -0.3471 -0.0730 -0.4108
   42DOPE   H2R 5314   8.340   6.588  10.100  1.7103  1.4421 -2.1051
   42DOPE   H2S 5315   8.512   6.554  10.089 -0.1200 -2.4973 -1.9097
   42DOPE    C3 5316   8.612   6.229   9.872 -0.1807  0.3716 -0.3295
   42DOPE    HX 5317   8.686   6.306   9.842 -1.5872  1.1461 -1.9821
   42DOPE    HY 5318   8.619   6.138   9.808 -0.5314 -1.1283  1.6502
   42DOPE   O31 5319   8.635   6.198  10.016  0.6723  0.1629  0.0111
   42DOPE   C31 5320   8.602   6.075  10.051 -0.5524  0.0947  0.1073
   42DOPE   O32 5321   8.552   5.987   9.984  0.5181  0.2820  0.9009
   42DOPE   C32 5322   8.665   6.051  10.192  0.0518 -0.0432  0.4191
   42DOPE   H2X 5323   8.773   6.065  10.170 -0.0118 -1.1904 -0.7833
   42DOPE   H2Y 5324   8.642   6.134  10.262  2.5282  1.0026  0.1044
   42DOPE   C23 5325   8.429   6.497  10.291  0.7359 -0.1013 -0.2072
   42DOPE   H3R 5326   8.477   6.402  10.323 -1.8791 -1.6565 -0.6065
   42DOPE   H3S 5327   8.325   6.480  10.328  0.8291 -1.1596 -0.4071
   42DOPE   C24 5328   8.496   6.619  10.364 -0.2647  1.0243  0.8148
   42DOPE   H4R 5329   8.606   6.611  10.351 -0.4296  0.2767 -0.2001
   42DOPE   H4S 5330   8.479   6.613  10.474  0.3325 -0.0418  0.8635
   42DOPE   C25 5331   8.457   6.758  10.314 -0.5598 -0.1955 -0.0994
   42DOPE   H5R 5332   8.346   6.760  10.300 -0.6230  0.3398  0.4695
   42DOPE   H5S 5333   8.502   6.793  10.219 -0.8929 -0.2652 -0.2875
   42DOPE   C26 5334   8.499   6.857  10.424  0.5536  0.7924  0.5251
   42DOPE   H6R 5335   8.444   6.846  10.520  0.3927  1.8248  0.5647
   42DOPE   H6S 5336   8.481   6.954  10.372 -3.1653  0.7596  1.4719
   42DOPE   C27 5337   8.643   6.847  10.466  0.3703  0.3463 -0.2921
   42DOPE   H7R 5338   8.704   6.844  10.374  0.8682 -0.3212  0.0543
   42DOPE   H7S 5339   8.645   6.748  10.517 -3.9233 -0.0649 -0.5332
   42DOPE   C28 5340   8.690   6.969  10.542 -0.3611 -0.2526  0.0272
   42DOPE   H8R 5341   8.685   7.060  10.479 -1.6974  0.0830  0.5773
   42DOPE   H8S 5342   8.796   6.956  10.571  0.5017 -2.3623 -3.4767
   42DOPE   C29 5343   8.613   6.994  10.669  0.5065 -0.1972  0.6751
   42DOPE   H9R 5344   8.535   7.071  10.656  0.8231  0.4612  2.3791
   42DOPE  C210 5345   8.645   6.968  10.795 -0.3414 -0.0133 -0.3143
   42DOPE  H10R 5346   8.580   7.002  10.877 -0.0852 -0.4589  0.0786
   42DOPE  C211 5347   8.750   6.879  10.856 -0.8305  0.3100 -0.8803
   42DOPE  H11R 5348   8.785   6.793  10.794  0.4129 -0.9404  1.4040
   42DOPE  H11S 5349   8.710   6.831  10.948  1.0777 -2.3205 -1.2973
   42DOPE  C212 5350   8.886   6.938  10.900 -0.0792 -0.0704 -0.4921
   42DOPE  H12R 5351   8.865   7.030  10.958 -1.7341 -1.9235  2.0994
   42DOPE  H12S 5352   8.952   6.962  10.814 -0.0508 -1.4585 -0.8862
   42DOPE  C213 5353   8.971   6.834  10.981 -0.1213 -1.0596 -0.0597
   42DOPE  H13R 5354   9.012   6.766  10.903  0.3649 -0.1927 -0.5884
   42DOPE  H13S 5355   8.914   6.774  11.055 -1.0152  0.6769  0.7112
   42DOPE  C214 5356   9.085   6.921  11.040 -0.3071  0.2448 -0.4115
   42DOPE  H14R 5357   9.024   6.989  11.104 -1.5330  0.8315 -2.1108
   42DOPE  H14S 5358   9.118   6.987  10.957 -0.5080  0.7161 -0.1204
   42DOPE  C215 5359   9.203   6.850  11.115 -0.0865 -0.7330 -0.8638
   42DOPE  H15R 5360   9.245   6.782  11.039  1.2756  1.6654 -2.3829
   42DOPE  H15S 5361   9.149   6.804  11.201  1.5452  1.4682  1.4902
   42DOPE  C216 5362   9.293   6.960  11.173  0.7578 -0.2100 -0.3200
   42DOPE  H16R 5363   9.221   7.031  11.220 -0.9992 -1.2710 -1.2581
   42DOPE  H16S 5364   9.349   7.017  11.096 -1.4274  1.5587 -0.7105
   42DOPE  C217 5365   9.394   6.901  11.274 -1.0948 -0.6172 -1.0144
   42DOPE  H17R 5366   9.344   6.843  11.354 -0.5036  0.2764  0.0354
   42DOPE  H17S 5367   9.462   6.981  11.313 -1.1478 -0.6836 -0.7850
   42DOPE  C218 5368   9.489   6.796  11.210 -0.5764 -0.2393  0.5816
   42DOPE  H18R 5369   9.545   6.841  11.125 -1.9682  1.9579  0.7750
   42DOPE  H18S 5370   9.438   6.706  11.169  1.5180 -0.6428 -1.3349
   42DOPE  H18T 5371   9.564   6.757  11.283  0.0689  1.2668  0.7707
   42DOPE   C33 5372   8.637   5.915  10.261  0.0831 -0.7518 -0.1387
   42DOPE   H3X 5373   8.702   5.891  10.347 -0.9436 -1.2129  0.5316
   42DOPE   H3Y 5374   8.657   5.831  10.191  0.5147 -0.5965 -0.1984
   42DOPE   C34 5375   8.500   5.884  10.314 -0.3867 -0.5927 -0.2998
   42DOPE   H4X 5376   8.462   5.961  10.384 -0.7076 -0.6827 -0.3716
   42DOPE   H4Y 5377   8.422   5.873  10.237 -0.7764 -1.8297  0.2418
   42DOPE   C35 5378   8.495   5.748  10.391 -0.1736  0.6878  0.0753
   42DOPE   H5X 5379   8.536   5.762  10.493  1.4589  0.1353 -0.4578
   42DOPE   H5Y 5380   8.567   5.681  10.339  0.5606  0.9261  0.7604
   42DOPE   C36 5381   8.351   5.694  10.412  0.0026  0.5000  0.4522
   42DOPE   H6X 5382   8.375   5.602  10.471  1.3109  1.6650  1.8101
   42DOPE   H6Y 5383   8.303   5.667  10.315  1.4899 -1.0096  0.0805
   42DOPE   C37 5384   8.257   5.782  10.504 -0.8995 -0.1288  0.6163
   42DOPE   H7X 5385   8.294   5.776  10.609 -0.5158 -1.4358  0.4335
   42DOPE   H7Y 5386   8.257   5.882  10.457 -0.1435 -0.4695 -0.1298
   42DOPE   C38 5387   8.107   5.740  10.503  0.6059  0.0937  0.4920
   42DOPE   H8X 5388   8.053   5.723  10.407 -3.0630  2.2810  1.9793
   42DOPE   H8Y 5389   8.051   5.820  10.554  0.9487 -0.3836  1.6482
   42DOPE   C39 5390   8.100   5.608  10.568  0.1806 -1.1712  0.7861
   42DOPE   H9X 5391   8.178   5.533  10.550  1.7272  0.6724 -0.6306
   42DOPE  C310 5392   8.001   5.566  10.646  0.6944  0.3170 -0.2103
   42DOPE  H10X 5393   8.001   5.463  10.684 -3.1196  0.6233  0.9944
   42DOPE  C311 5394   7.883   5.639  10.701  0.1750 -0.2953 -0.1384
   42DOPE  H11X 5395   7.883   5.733  10.642  0.5927 -1.2714 -1.7372
   42DOPE  H11Y 5396   7.795   5.582  10.664  0.9606  0.0914 -2.7541
   42DOPE  C312 5397   7.864   5.683  10.854 -0.7120  0.1740  0.6346
   42DOPE  H12X 5398   7.767   5.736  10.865 -0.1126  0.9005  2.7977
   42DOPE  H12Y 5399   7.950   5.749  10.879 -0.5201  0.8872 -1.6523
   42DOPE  C313 5400   7.872   5.565  10.941  0.2724  0.5038 -1.0211
   42DOPE  H13X 5401   7.791   5.493  10.917 -0.2696  0.6168  0.3377
   42DOPE  H13Y 5402   7.970   5.516  10.925 -0.5130 -0.7101 -2.3597
   42DOPE  C314 5403   7.870   5.604  11.089  0.6700  0.0606 -0.0710
   42DOPE  H14X 5404   7.770   5.645  11.112  1.6782  1.4000  2.2721
   42DOPE  H14Y 5405   7.934   5.693  11.103  0.7739  0.3803 -2.2461
   42DOPE  C315 5406   7.897   5.491  11.181  0.2223 -0.1790 -0.6352
   42DOPE  H15X 5407   8.007   5.484  11.185  0.2397 -0.0069 -0.7990
   42DOPE  H15Y 5408   7.867   5.399  11.125  0.9181 -0.4868 -0.5159
   42DOPE  C316 5409   7.823   5.493  11.321  0.0345  0.7217  0.1439
   42DOPE  H16X 5410   7.718   5.460  11.312  0.1706  0.2005  0.4427
   42DOPE  H16Y 5411   7.820   5.599  11.356 -0.2117 -0.0379  2.5914
   42DOPE  C317 5412   7.879   5.393  11.425  0.2688  0.0052  0.0625
   42DOPE  H17X 5413   7.862   5.291  11.386  1.1721 -0.2676  0.3648
   42DOPE  H17Y 5414   7.988   5.415  11.427 -0.0563  1.7023  0.4999
   42DOPE  C318 5415   7.805   5.410  11.561 -0.4636  0.2001 -0.7937
   42DOPE  H18X 5416   7.812   5.514  11.599 -0.3859  0.2692 -0.9929
   42DOPE  H18Y 5417   7.699   5.376  11.554 -0.2504 -0.4894 -0.7455
   42DOPE  H18Z 5418   7.851   5.345  11.637  1.3255  2.1805 -0.0832
   43DOPE     N 5419   5.938   3.872   9.403  0.8168 -0.6232  0.0004
   43DOPE   HN1 5420   5.899   3.787   9.449  0.0112 -0.6581 -0.7256
   43DOPE   HN2 5421   5.871   3.951   9.410  1.3243  0.0021 -1.6478
   43DOPE   HN3 5422   5.953   3.855   9.302 -0.4269  1.9990 -0.7211
   43DOPE   C12 5423   6.072   3.900   9.472  1.4197 -0.5648 -0.0180
   43DOPE  H12A 5424   6.145   3.834   9.422  0.6321 -0.5139 -1.2938
   43DOPE  H12B 5425   6.051   3.870   9.577 -2.0574  1.8775  0.1731
   43DOPE   C11 5426   6.109   4.045   9.485 -0.5057 -0.3043  0.4146
   43DOPE  H11A 5427   6.197   4.050   9.552 -1.3634 -0.3973  1.5943
   43DOPE  H11B 5428   6.028   4.096   9.542  0.7170  1.8502  0.2995
   43DOPE     P 5429   6.075   4.253   9.327  0.1064 -0.0125  0.3319
   43DOPE   O13 5430   5.936   4.244   9.260  0.0111  0.1094 -0.0926
   43DOPE   O14 5431   6.176   4.322   9.257 -0.1099  0.1785  0.6224
   43DOPE   O11 5432   6.057   4.312   9.465 -0.2406  0.6580  0.2487
   43DOPE   O12 5433   6.126   4.109   9.358 -0.1003 -0.4900 -0.4680
   43DOPE    C1 5434   6.165   4.359   9.538 -0.9401  0.0981 -0.6139
   43DOPE    HA 5435   6.216   4.447   9.493  1.1551 -1.0530 -0.6050
   43DOPE    HB 5436   6.238   4.279   9.564 -0.0964  0.8088 -0.7138
   43DOPE    C2 5437   6.097   4.396   9.679 -0.8618 -0.2196  0.1003
   43DOPE    HS 5438   6.161   4.470   9.731 -1.5827  1.1363 -0.8858
   43DOPE   O21 5439   6.076   4.288   9.768 -0.1317  0.1551  0.2389
   43DOPE   C21 5440   6.173   4.218   9.813 -0.4925 -0.1321  0.4269
   43DOPE   O22 5441   6.290   4.242   9.780 -0.1020  0.2772  0.2370
   43DOPE   C22 5442   6.120   4.097   9.888 -0.7916  0.7847 -0.2230
   43DOPE   H2R 5443   6.148   4.004   9.834  1.9740 -0.0843  2.3990
   43DOPE   H2S 5444   6.011   4.113   9.897 -0.7411  1.4590 -0.7055
   43DOPE    C3 5445   5.969   4.471   9.646  0.0553 -0.0329  0.7030
   43DOPE    HX 5446   5.892   4.404   9.602 -1.0670  0.9366  1.1407
   43DOPE    HY 5447   5.992   4.545   9.566 -0.1103 -1.4642 -0.7050
   43DOPE   O31 5448   5.915   4.531   9.767 -0.7324  0.1148  0.6214
   43DOPE   C31 5449   5.929   4.661   9.796  0.4903 -0.3789  0.8152
   43DOPE   O32 5450   5.962   4.752   9.717  0.7757  0.4053  0.4581
   43DOPE   C32 5451   5.898   4.681   9.942  0.6577 -0.1652 -0.5553
   43DOPE   H2X 5452   5.787   4.671   9.946  0.6166  0.1982 -0.7471
   43DOPE   H2Y 5453   5.950   4.600   9.998 -1.3151 -1.1014  0.0277
   43DOPE   C23 5454   6.187   4.082  10.023 -0.2335  0.4424 -0.3886
   43DOPE   H3R 5455   6.159   4.165  10.091  0.2289  0.3271 -0.0562
   43DOPE   H3S 5456   6.298   4.078  10.021 -0.1275 -0.7899  2.4808
   43DOPE   C24 5457   6.147   3.956  10.103  0.1032 -0.1774  0.6423
   43DOPE   H4R 5458   6.174   3.872  10.035 -0.9016  0.7697 -0.9964
   43DOPE   H4S 5459   6.038   3.950  10.127  0.0799  0.6719  0.7716
   43DOPE   C25 5460   6.224   3.931  10.232 -0.3279  0.1889 -0.2457
   43DOPE   H5R 5461   6.194   4.016  10.297 -2.4964 -0.1210 -0.7577
   43DOPE   H5S 5462   6.334   3.928  10.218 -0.1629 -1.5006  1.0828
   43DOPE   C26 5463   6.184   3.798  10.302 -0.2637 -0.4120 -0.0809
   43DOPE   H6R 5464   6.250   3.792  10.391  0.0795  3.8302  0.1747
   43DOPE   H6S 5465   6.224   3.712  10.244  0.1410 -1.6598  1.9208
   43DOPE   C27 5466   6.041   3.779  10.338  0.3461 -0.3014  0.2172
   43DOPE   H7R 5467   5.980   3.768  10.246  1.7534 -1.0040 -0.6635
   43DOPE   H7S 5468   5.998   3.862  10.398  2.1317  0.0520  1.0520
   43DOPE   C28 5469   6.018   3.658  10.430 -0.0287 -0.1026  0.3826
   43DOPE   H8R 5470   6.090   3.674  10.513 -0.0054  0.5091  0.2513
   43DOPE   H8S 5471   6.041   3.557  10.389  1.6404 -0.1720  1.3603
   43DOPE   C29 5472   5.880   3.655  10.482  0.6451  0.1798  0.8986
   43DOPE   H9R 5473   5.811   3.594  10.421 -0.2307 -0.0576  2.0866
   43DOPE  C210 5474   5.839   3.713  10.593 -0.1230 -0.1943 -0.3061
   43DOPE  H10R 5475   5.735   3.696  10.625 -0.1039 -0.2266 -0.2609
   43DOPE  C211 5476   5.920   3.804  10.688  0.8554 -0.0289 -0.2729
   43DOPE  H11R 5477   6.017   3.822  10.639  1.2507 -2.2728 -0.4286
   43DOPE  H11S 5478   5.945   3.748  10.781 -0.6233 -1.9261 -0.9460
   43DOPE  C212 5479   5.856   3.942  10.706  0.3406 -0.3439 -0.2763
   43DOPE  H12R 5480   5.771   3.937  10.778  0.7069  3.2454  0.6162
   43DOPE  H12S 5481   5.820   3.973  10.606  0.9929  2.7143  0.3322
   43DOPE  C213 5482   5.949   4.045  10.772 -1.3603 -0.2028 -0.4931
   43DOPE  H13R 5483   6.050   4.034  10.726 -1.1438  1.6799 -0.5466
   43DOPE  H13S 5484   5.958   4.034  10.882  3.0109  0.7077 -0.5536
   43DOPE  C214 5485   5.914   4.188  10.748 -0.2036  0.2821  0.0125
   43DOPE  H14R 5486   5.824   4.196  10.812 -0.0380  0.3276  0.2407
   43DOPE  H14S 5487   5.877   4.206  10.645 -0.0946 -0.5964 -0.1824
   43DOPE  C215 5488   6.030   4.272  10.789  0.4226 -0.0704 -0.8954
   43DOPE  H15R 5489   6.081   4.232  10.879 -0.9194 -1.5134 -0.7528
   43DOPE  H15S 5490   5.989   4.372  10.814  3.5464  0.6140  2.4148
   43DOPE  C216 5491   6.124   4.291  10.679 -0.4988  0.6784  0.2136
   43DOPE  H16R 5492   6.055   4.330  10.601 -0.5201  1.8950  0.8161
   43DOPE  H16S 5493   6.157   4.192  10.641 -1.9609  0.0589  0.4895
   43DOPE  C217 5494   6.240   4.393  10.699 -0.1519 -0.0208 -0.2553
   43DOPE  H17R 5495   6.296   4.354  10.786 -1.3851 -0.1458  0.5084
   43DOPE  H17S 5496   6.200   4.491  10.734 -0.7270 -0.3450  0.0157
   43DOPE  C218 5497   6.314   4.411  10.565  0.0636  0.4359  0.2277
   43DOPE  H18R 5498   6.254   4.456  10.483  0.7581  2.2033  0.6449
   43DOPE  H18S 5499   6.339   4.310  10.526 -2.4971 -0.4486  0.6963
   43DOPE  H18T 5500   6.406   4.470  10.585 -0.2797  0.7764  0.8455
   43DOPE   C33 5501   5.921   4.823   9.997  0.0221 -0.0604  0.2993
   43DOPE   H3X 5502   5.891   4.826  10.104  0.2432 -0.7610  0.3875
   43DOPE   H3Y 5503   5.861   4.901   9.947 -0.9616 -1.7590 -1.2921
   43DOPE   C34 5504   6.064   4.864   9.988  0.2002  0.2541 -0.5331
   43DOPE   H4X 5505   6.103   4.850   9.885  0.0805 -1.6868 -0.3434
   43DOPE   H4Y 5506   6.063   4.971  10.018 -0.2342  0.0592  0.1528
   43DOPE   C35 5507   6.148   4.781  10.076 -0.3328  0.5604 -0.1766
   43DOPE   H5X 5508   6.149   4.674  10.046 -3.0990 -0.9068  4.0181
   43DOPE   H5Y 5509   6.103   4.785  10.177 -1.4224 -0.8296 -0.5774
   43DOPE   C36 5510   6.286   4.832  10.095  0.7816  0.2782  0.6309
   43DOPE   H6X 5511   6.283   4.938  10.128  0.8296 -0.0293  1.6731
   43DOPE   H6Y 5512   6.345   4.840  10.001  0.5251  1.9314  0.5819
   43DOPE   C37 5513   6.358   4.751  10.199  0.0033  0.1803  0.0960
   43DOPE   H7X 5514   6.296   4.754  10.291 -0.4458 -0.8658 -0.1554
   43DOPE   H7Y 5515   6.377   4.649  10.160  0.8705  0.4867 -0.3143
   43DOPE   C38 5516   6.498   4.815  10.230  0.2077  0.3840  0.3944
   43DOPE   H8X 5517   6.553   4.836  10.136  0.8245  2.4058  1.1811
   43DOPE   H8Y 5518   6.561   4.739  10.282 -0.8249  0.9939  2.6703
   43DOPE   C39 5519   6.504   4.954  10.304  0.1494  0.8010  0.5260
   43DOPE   H9X 5520   6.515   5.045  10.242 -0.2316  1.3198  1.1974
   43DOPE  C310 5521   6.506   4.972  10.438 -0.2802  0.0090  0.3414
   43DOPE  H10X 5522   6.516   5.076  10.473  0.3225 -0.1975  0.8034
   43DOPE  C311 5523   6.504   4.867  10.537 -0.6534  0.2639 -0.4942
   43DOPE  H11X 5524   6.517   4.765  10.496 -0.3745  0.6859 -1.4603
   43DOPE  H11Y 5525   6.592   4.882  10.604 -0.6609 -0.8133 -0.2247
   43DOPE  C312 5526   6.384   4.878  10.628  0.6270  0.4552 -0.2000
   43DOPE  H12X 5527   6.288   4.860  10.576 -0.1647 -3.7994  2.2467
   43DOPE  H12Y 5528   6.381   4.977  10.678  1.1943 -0.5699  2.0134
   43DOPE  C313 5529   6.398   4.783  10.746 -0.2503 -0.3505 -0.5972
   43DOPE  H13X 5530   6.398   4.680  10.705  1.0128  0.5763 -3.1319
   43DOPE  H13Y 5531   6.503   4.800  10.781 -0.9890  2.6178  0.5212
   43DOPE  C314 5532   6.297   4.808  10.852  0.1012  0.6650 -0.5911
   43DOPE  H14X 5533   6.325   4.906  10.895  0.4078  0.4663 -0.3342
   43DOPE  H14Y 5534   6.322   4.739  10.936  0.2785 -0.6430 -1.6961
   43DOPE  C315 5535   6.156   4.814  10.808 -0.1431  0.0938  0.0771
   43DOPE  H15X 5536   6.140   4.719  10.753 -1.6533 -1.2717  2.6694
   43DOPE  H15Y 5537   6.140   4.900  10.740 -1.2176 -0.2945 -0.1810
   43DOPE  C316 5538   6.055   4.817  10.919 -0.4829 -0.2258  0.2315
   43DOPE  H16X 5539   6.080   4.897  10.993 -0.3244 -0.1121  0.0538
   43DOPE  H16Y 5540   6.066   4.720  10.972 -1.2666 -0.5937 -0.2698
   43DOPE  C317 5541   5.912   4.831  10.854  0.5745 -0.1081 -0.3531
   43DOPE  H17X 5542   5.913   4.905  10.771  1.3285  3.1725  2.3578
   43DOPE  H17Y 5543   5.891   4.731  10.810  2.3319 -1.5604  1.8832
   43DOPE  C318 5544   5.813   4.864  10.962  0.0812  0.0928 -0.0547
   43DOPE  H18X 5545   5.840   4.959  11.014  1.7701 -0.0406 -0.6515
   43DOPE  H18Y 5546   5.716   4.875  10.908 -0.0550  3.7816  0.6905
   43DOPE  H18Z 5547   5.800   4.780  11.034 -1.5882  0.7995  0.5252
   44DOPE     N 5548   2.779   2.940   9.508 -0.1734  0.5442 -0.7564
   44DOPE   HN1 5549   2.779   3.038   9.542 -0.3808  0.2251  0.1992
   44DOPE   HN2 5550   2.791   2.888   9.598 -1.1226  1.0533 -0.3264
   44DOPE   HN3 5551   2.864   2.920   9.451 -0.3348 -0.6609 -0.6097
   44DOPE   C12 5552   2.649   2.911   9.437 -0.1005  0.1562 -0.3960
   44DOPE  H12A 5553   2.634   2.802   9.420  0.1632  0.0500  0.0327
   44DOPE  H12B 5554   2.652   2.964   9.340 -1.5066  1.7893  0.3969
   44DOPE   C11 5555   2.528   2.956   9.515 -0.4305  0.4975 -0.1390
   44DOPE  H11A 5556   2.435   2.950   9.454  0.0357 -2.2016 -0.7532
   44DOPE  H11B 5557   2.542   3.060   9.550  0.0335  1.0240 -1.8128
   44DOPE     P 5558   2.393   2.877   9.719  0.0841 -0.3036 -0.1615
   44DOPE   O13 5559   2.404   2.772   9.827 -0.5011  0.0601 -0.1533
   44DOPE   O14 5560   2.267   2.884   9.639 -0.1639 -0.2340  0.6272
   44DOPE   O11 5561   2.429   3.013   9.789 -0.5323  0.3910 -0.3691
   44DOPE   O12 5562   2.519   2.857   9.614 -0.0000 -0.1877 -0.8459
   44DOPE    C1 5563   2.528   3.008   9.888 -0.0512 -0.1237  0.9393
   44DOPE    HA 5564   2.583   3.104   9.902 -0.5184  0.0491  1.6558
   44DOPE    HB 5565   2.608   2.936   9.861  1.3857  2.1509 -1.3920
   44DOPE    C2 5566   2.469   2.982  10.028  0.2867  0.3930 -0.8025
   44DOPE    HS 5567   2.384   2.911  10.018 -1.9915  2.9021 -0.5636
   44DOPE   O21 5568   2.429   3.110  10.084  0.0751 -0.1736 -0.0168
   44DOPE   C21 5569   2.335   3.110  10.189  0.1025 -0.2382 -0.3602
   44DOPE   O22 5570   2.270   3.013  10.220 -0.1269  0.3830 -0.1738
   44DOPE   C22 5571   2.329   3.254  10.246 -0.4921  0.8740 -0.0352
   44DOPE   H2R 5572   2.355   3.323  10.163  1.0505 -0.1747 -0.4833
   44DOPE   H2S 5573   2.411   3.246  10.322  0.0066 -0.9634 -0.7138
   44DOPE    C3 5574   2.582   2.920  10.110  0.5189  0.0143  0.2524
   44DOPE    HX 5575   2.667   2.989  10.098 -1.4779  2.6895  0.5783
   44DOPE    HY 5576   2.614   2.826  10.059 -0.1329  0.4877 -1.0708
   44DOPE   O31 5577   2.551   2.908  10.254  0.3607  0.2238 -0.3364
   44DOPE   C31 5578   2.485   2.799  10.281  0.4114  0.0848 -0.1819
   44DOPE   O32 5579   2.470   2.700  10.204  0.6824 -0.6311  0.2042
   44DOPE   C32 5580   2.427   2.804  10.418 -0.1950  0.5272  0.0275
   44DOPE   H2X 5581   2.506   2.848  10.482 -0.9021  0.2955  1.0967
   44DOPE   H2Y 5582   2.342   2.877  10.420 -0.7072  0.0280 -1.7134
   44DOPE   C23 5583   2.196   3.293  10.299 -0.5526 -0.0851  0.3101
   44DOPE   H3R 5584   2.202   3.399  10.333 -2.0005  0.1831 -0.1706
   44DOPE   H3S 5585   2.171   3.228  10.386 -0.5640 -0.8607 -0.2664
   44DOPE   C24 5586   2.090   3.295  10.190  0.6771 -0.0387 -0.4221
   44DOPE   H4R 5587   2.078   3.193  10.150 -0.1997 -0.3094  0.4868
   44DOPE   H4S 5588   2.116   3.366  10.108  1.3346  0.4965  0.2405
   44DOPE   C25 5589   1.949   3.354  10.233 -0.3323  0.6957 -0.2845
   44DOPE   H5R 5590   1.890   3.357  10.139  0.1456  0.4868 -0.5947
   44DOPE   H5S 5591   1.968   3.453  10.280 -1.0183  0.3542  0.7476
   44DOPE   C26 5592   1.873   3.266  10.332  0.3284 -0.0927  0.3745
   44DOPE   H6R 5593   1.933   3.251  10.424  1.1359 -0.8366 -0.2532
   44DOPE   H6S 5594   1.847   3.170  10.283  0.5905 -0.1582  0.3625
   44DOPE   C27 5595   1.740   3.339  10.384 -0.5095 -0.4308  0.0735
   44DOPE   H7R 5596   1.714   3.406  10.299  1.1662 -1.0869 -1.0102
   44DOPE   H7S 5597   1.767   3.402  10.471 -1.0523 -0.6960  0.4422
   44DOPE   C28 5598   1.631   3.243  10.420 -0.0520  0.6507  0.5336
   44DOPE   H8R 5599   1.607   3.187  10.327  0.4199  0.0483  0.7735
   44DOPE   H8S 5600   1.538   3.299  10.443  1.2022  2.2066  2.0624
   44DOPE   C29 5601   1.670   3.144  10.531 -0.1172 -0.2552  0.0842
   44DOPE   H9R 5602   1.752   3.080  10.498 -1.0541 -1.2815 -0.3128
   44DOPE  C210 5603   1.634   3.145  10.659  0.2874 -0.5157 -0.4859
   44DOPE  H10R 5604   1.692   3.082  10.729  1.4842  2.2127  1.1321
   44DOPE  C211 5605   1.524   3.233  10.707 -0.1112  0.6036 -0.1101
   44DOPE  H11R 5606   1.488   3.204  10.808  0.7959  0.0087  0.0607
   44DOPE  H11S 5607   1.434   3.236  10.643 -0.7356  1.5649  0.7882
   44DOPE  C212 5608   1.580   3.380  10.730 -0.3817  0.9645  0.0742
   44DOPE  H12R 5609   1.485   3.433  10.753 -1.4847 -1.1806  0.7144
   44DOPE  H12S 5610   1.622   3.414  10.633  0.2075  1.0264  0.3510
   44DOPE  C213 5611   1.677   3.387  10.844  0.6042  0.3200  0.0728
   44DOPE  H13R 5612   1.763   3.323  10.817  0.7510  0.4703  0.1839
   44DOPE  H13S 5613   1.646   3.350  10.944  4.3071 -1.0778  0.8491
   44DOPE  C214 5614   1.729   3.526  10.853 -0.6748  0.4640  0.0798
   44DOPE  H14R 5615   1.647   3.601  10.858 -1.7483 -0.7331  1.1396
   44DOPE  H14S 5616   1.773   3.549  10.754  0.5101  0.5497  0.6189
   44DOPE  C215 5617   1.827   3.547  10.975  0.1818  0.5198  0.0099
   44DOPE  H15R 5618   1.909   3.472  10.976  0.8848  1.2568  1.6082
   44DOPE  H15S 5619   1.773   3.543  11.072 -0.6357 -0.4004 -0.4602
   44DOPE  C216 5620   1.909   3.677  10.958  0.4708 -0.1607  0.0777
   44DOPE  H16R 5621   1.975   3.669  11.048 -0.5159 -0.8793  0.7621
   44DOPE  H16S 5622   1.842   3.765  10.959  0.1018 -0.4303 -0.6745
   44DOPE  C217 5623   2.007   3.700  10.840 -0.4644 -0.1846  0.0391
   44DOPE  H17R 5624   2.055   3.799  10.859  0.7443 -0.5679 -0.8892
   44DOPE  H17S 5625   1.939   3.716  10.753 -1.5229  1.3634  1.0983
   44DOPE  C218 5626   2.113   3.603  10.818 -0.0639 -0.1176  0.4097
   44DOPE  H18R 5627   2.080   3.505  10.777 -2.7619  1.6880 -2.1221
   44DOPE  H18S 5628   2.155   3.576  10.917 -1.4393 -1.9851  0.5363
   44DOPE  H18T 5629   2.190   3.643  10.749 -0.6031  0.5208  0.1655
   44DOPE   C33 5630   2.366   2.668  10.469  0.0089 -0.1791  0.7659
   44DOPE   H3X 5631   2.439   2.585  10.455  0.6244  0.5236 -0.3037
   44DOPE   H3Y 5632   2.275   2.654  10.407 -1.7554  2.5756  2.5450
   44DOPE   C34 5633   2.329   2.676  10.614  0.8706  0.1869 -0.6906
   44DOPE   H4X 5634   2.422   2.694  10.671  2.7878  0.4172 -3.7087
   44DOPE   H4Y 5635   2.266   2.764  10.638 -0.2856 -0.9326  0.6265
   44DOPE   C35 5636   2.250   2.553  10.664 -0.6015  0.4136  0.1852
   44DOPE   H5X 5637   2.322   2.468  10.665 -0.7851  0.2308  2.5495
   44DOPE   H5Y 5638   2.168   2.530  10.593  1.1685  0.3797 -1.9551
   44DOPE   C36 5639   2.213   2.586  10.810  0.4411 -0.1845  0.0304
   44DOPE   H6X 5640   2.128   2.657  10.813  2.5292  2.4215  1.1393
   44DOPE   H6Y 5641   2.302   2.624  10.864  0.7271 -0.0692 -0.5161
   44DOPE   C37 5642   2.146   2.471  10.886 -0.2775 -0.1086 -0.0971
   44DOPE   H7X 5643   2.066   2.439  10.816  0.7968 -2.1980 -0.4368
   44DOPE   H7Y 5644   2.219   2.389  10.899  0.7536  1.1913  3.6657
   44DOPE   C38 5645   2.113   2.509  11.029  0.5171 -0.7676  0.5604
   44DOPE   H8X 5646   2.062   2.608  11.031  0.1675 -0.8660 -1.2856
   44DOPE   H8Y 5647   2.206   2.512  11.089  1.0317  0.1720 -0.2471
   44DOPE   C39 5648   2.031   2.396  11.087 -0.1680  0.2818 -0.2839
   44DOPE   H9X 5649   2.056   2.296  11.048 -2.0465  0.0881 -1.1047
   44DOPE  C310 5650   1.919   2.404  11.164  0.2690  0.0101  0.6723
   44DOPE  H10X 5651   1.859   2.315  11.188 -0.6234 -0.1786 -1.9348
   44DOPE  C311 5652   1.859   2.533  11.221 -0.7635  0.1995  0.6780
   44DOPE  H11X 5653   1.885   2.620  11.157 -1.4591 -0.4541 -0.5423
   44DOPE  H11Y 5654   1.749   2.524  11.207 -0.3268 -1.5354 -2.8701
   44DOPE  C312 5655   1.912   2.563  11.360 -0.0130  0.0719 -0.9181
   44DOPE  H12X 5656   2.023   2.558  11.356  0.2159  2.1523  1.1968
   44DOPE  H12Y 5657   1.893   2.473  11.423 -0.3094 -0.1745 -1.3453
   44DOPE  C313 5658   1.878   2.695  11.431 -0.4112  0.7565  0.9547
   44DOPE  H13X 5659   1.932   2.709  11.527  1.3129 -0.6844  0.2644
   44DOPE  H13Y 5660   1.909   2.782  11.368  1.5078  0.2105  1.0635
   44DOPE  C314 5661   1.732   2.714  11.454  1.0397  0.2955 -0.5223
   44DOPE  H14X 5662   1.685   2.640  11.523 -0.8212  0.9186 -1.0525
   44DOPE  H14Y 5663   1.679   2.690  11.360 -0.0655 -1.3212  0.4647
   44DOPE  C315 5664   1.687   2.849  11.505 -0.3773  0.5643 -0.5653
   44DOPE  H15X 5665   1.576   2.850  11.499 -0.5467  2.5943  1.5576
   44DOPE  H15Y 5666   1.714   2.927  11.431 -2.6112  0.3003 -1.7639
   44DOPE  C316 5667   1.747   2.888  11.645  0.4365 -0.0434  0.4689
   44DOPE  H16X 5668   1.852   2.921  11.632  0.4528 -0.8492 -1.8635
   44DOPE  H16Y 5669   1.741   2.806  11.719 -1.5464 -0.3577  0.0090
   44DOPE  C317 5670   1.664   2.992  11.718 -0.2262 -0.7946  0.1039
   44DOPE  H17X 5671   1.566   2.948  11.745 -1.2344  1.8286  1.1150
   44DOPE  H17Y 5672   1.722   3.020  11.809  0.3400 -2.0419  0.1432
   44DOPE  C318 5673   1.637   3.119  11.628 -0.5624  0.1005 -0.1853
   44DOPE  H18X 5674   1.556   3.091  11.557 -0.0187  0.0658 -0.8002
   44DOPE  H18Y 5675   1.602   3.203  11.692 -2.5876  0.0886 -1.1908
   44DOPE  H18Z 5676   1.731   3.139  11.573 -0.0623 -1.4604  0.0569
   45DOPE     N 5677   3.855   3.041   9.206 -0.2184  0.1768 -0.1452
   45DOPE   HN1 5678   3.780   3.075   9.143 -0.8952  0.3103  0.7219
   45DOPE   HN2 5679   3.819   3.036   9.303  2.4122 -1.0126  0.8772
   45DOPE   HN3 5680   3.932   3.111   9.208  1.7778 -1.8639 -0.6727
   45DOPE   C12 5681   3.916   2.909   9.158  0.4249 -0.3580 -0.7295
   45DOPE  H12A 5682   3.924   2.901   9.047  2.7965  1.4156 -0.7575
   45DOPE  H12B 5683   3.843   2.830   9.186 -1.4140  1.5585  0.0613
   45DOPE   C11 5684   4.050   2.874   9.227 -0.3754  0.5759  0.0798
   45DOPE  H11A 5685   4.118   2.958   9.201  1.4530 -1.1559 -1.0166
   45DOPE  H11B 5686   4.091   2.785   9.175 -0.2788  1.3327 -1.1845
   45DOPE     P 5687   4.013   2.713   9.431 -0.1640  0.0375  0.0456
   45DOPE   O13 5688   4.136   2.632   9.424  0.8787 -0.2184 -0.5716
   45DOPE   O14 5689   3.893   2.662   9.361  0.5364  0.0890 -0.0486
   45DOPE   O11 5690   3.978   2.750   9.583 -0.2315  0.2609 -0.0298
   45DOPE   O12 5691   4.046   2.858   9.373 -0.1114  0.0910 -0.2562
   45DOPE    C1 5692   4.007   2.880   9.637  0.0062  0.4891  0.5901
   45DOPE    HA 5693   3.958   2.874   9.737 -2.1141  0.4483 -0.3868
   45DOPE    HB 5694   3.963   2.963   9.578 -0.3316  0.2836  0.5483
   45DOPE    C2 5695   4.163   2.903   9.666  0.0590 -0.6305  0.4032
   45DOPE    HS 5696   4.218   2.897   9.569  0.9129  0.8370  0.7621
   45DOPE   O21 5697   4.202   2.795   9.756  0.3206 -0.3879 -0.2099
   45DOPE   C21 5698   4.335   2.771   9.765  0.2637  0.3460  0.0716
   45DOPE   O22 5699   4.415   2.838   9.709 -0.2317 -0.8830  0.4563
   45DOPE   C22 5700   4.365   2.654   9.854 -0.4792 -0.0972  0.3322
   45DOPE   H2R 5701   4.469   2.622   9.829 -1.0169 -0.2766 -1.9003
   45DOPE   H2S 5702   4.285   2.577   9.848 -0.7457  0.1577  0.5891
   45DOPE    C3 5703   4.187   3.043   9.724  0.2375 -0.6121 -0.0062
   45DOPE    HX 5704   4.151   3.121   9.654 -1.0899 -2.3100 -1.3022
   45DOPE    HY 5705   4.296   3.057   9.740  0.7047 -1.6129 -1.9514
   45DOPE   O31 5706   4.112   3.053   9.843 -0.2874 -0.0688  0.2000
   45DOPE   C31 5707   4.178   3.090   9.954 -0.7154  0.3871  0.7305
   45DOPE   O32 5708   4.294   3.124   9.960  0.1226  0.3940  0.1261
   45DOPE   C32 5709   4.086   3.070  10.068  0.0461  0.4229 -0.3441
   45DOPE   H2X 5710   4.001   3.140  10.061 -1.2337 -1.1264 -0.9750
   45DOPE   H2Y 5711   4.054   2.965  10.053  1.4941  0.2649 -2.9715
   45DOPE   C23 5712   4.359   2.695  10.011 -0.2111  0.5931  0.1024
   45DOPE   H3R 5713   4.372   2.603  10.073  3.6730 -1.1526 -2.8529
   45DOPE   H3S 5714   4.256   2.725  10.037 -0.1123  0.1290  1.0810
   45DOPE   C24 5715   4.464   2.805  10.059  0.2153  0.0165  0.3939
   45DOPE   H4R 5716   4.434   2.900  10.009 -0.2943 -0.8604 -1.0241
   45DOPE   H4S 5717   4.568   2.777  10.031 -0.2473 -2.3216  0.8348
   45DOPE   C25 5718   4.447   2.828  10.209 -0.0915  0.0552  0.4357
   45DOPE   H5R 5719   4.342   2.815  10.243 -1.1178  1.8706 -1.8279
   45DOPE   H5S 5720   4.479   2.932  10.232 -1.9019  0.2267  2.4758
   45DOPE   C26 5721   4.544   2.733  10.291 -0.2782  0.4641 -0.0880
   45DOPE   H6R 5722   4.642   2.740  10.240 -0.2843 -1.9318 -0.5270
   45DOPE   H6S 5723   4.515   2.627  10.275 -0.3481  0.5109 -0.2773
   45DOPE   C27 5724   4.541   2.766  10.440  0.4833 -0.2964 -0.4543
   45DOPE   H7R 5725   4.561   2.872  10.465 -1.5272 -0.4891  2.4991
   45DOPE   H7S 5726   4.629   2.707  10.473  1.5040  0.4649 -1.7496
   45DOPE   C28 5727   4.412   2.719  10.515 -0.0211 -0.5522  0.2329
   45DOPE   H8R 5728   4.400   2.612  10.487  0.6230 -0.2155 -1.4195
   45DOPE   H8S 5729   4.328   2.781  10.479 -0.3494 -0.0400  1.8143
   45DOPE   C29 5730   4.421   2.738  10.663  0.2964  0.2789 -0.4670
   45DOPE   H9R 5731   4.461   2.837  10.689 -1.4527  1.4046 -1.7621
   45DOPE  C210 5732   4.395   2.647  10.758 -0.7130  0.4134 -0.2946
   45DOPE  H10R 5733   4.412   2.664  10.866  0.9278 -0.2294 -0.4155
   45DOPE  C211 5734   4.345   2.508  10.741 -0.4696 -0.1769 -0.0819
   45DOPE  H11R 5735   4.299   2.487  10.642 -2.0959 -0.1261  0.6319
   45DOPE  H11S 5736   4.281   2.482  10.828  1.7473  1.2687  2.0978
   45DOPE  C212 5737   4.451   2.392  10.759  0.1398  0.2103  0.5346
   45DOPE  H12R 5738   4.510   2.396  10.853  0.9189 -2.3784  0.2438
   45DOPE  H12S 5739   4.517   2.391  10.670 -1.8377 -0.1319 -1.0210
   45DOPE  C213 5740   4.390   2.248  10.766  0.0882  0.1545 -0.3431
   45DOPE  H13R 5741   4.315   2.232  10.846  2.2702  3.4702  2.6419
   45DOPE  H13S 5742   4.476   2.181  10.785  0.1972  0.1401 -0.8531
   45DOPE  C214 5743   4.334   2.196  10.635 -0.3020 -0.4855 -0.1296
   45DOPE  H14R 5744   4.399   2.228  10.551 -1.2371  1.3391 -0.2050
   45DOPE  H14S 5745   4.243   2.258  10.620 -0.7690 -1.0237  0.4485
   45DOPE  C215 5746   4.288   2.049  10.624 -0.2029 -0.1089  0.1947
   45DOPE  H15R 5747   4.246   2.040  10.522  0.2429 -0.2723  0.0246
   45DOPE  H15S 5748   4.205   2.035  10.696 -0.3799  1.5958  0.3784
   45DOPE  C216 5749   4.398   1.951  10.655  0.2041  0.1497 -0.2592
   45DOPE  H16R 5750   4.427   1.973  10.760 -3.4152  0.3499  0.8343
   45DOPE  H16S 5751   4.478   1.965  10.580 -0.7949 -0.6109 -1.5039
   45DOPE  C217 5752   4.350   1.806  10.646  0.3367  0.9789  0.4485
   45DOPE  H17R 5753   4.325   1.783  10.541 -1.3062  0.9143  0.8358
   45DOPE  H17S 5754   4.262   1.797  10.713 -0.0041 -3.8397 -0.3607
   45DOPE  C218 5755   4.465   1.710  10.683 -0.1894  0.5929 -0.8934
   45DOPE  H18R 5756   4.555   1.744  10.627  0.4228 -0.8240 -0.8294
   45DOPE  H18S 5757   4.426   1.611  10.650  0.3375  0.5357 -1.3564
   45DOPE  H18T 5758   4.480   1.720  10.792  0.1204  1.1404 -0.9824
   45DOPE   C33 5759   4.160   3.087  10.202 -0.2173  0.5571  0.3999
   45DOPE   H3X 5760   4.237   3.168  10.205 -1.0078  1.2861  2.7420
   45DOPE   H3Y 5761   4.212   2.991  10.222 -1.9213 -0.0635  2.0324
   45DOPE   C34 5762   4.055   3.109  10.304  0.2511  0.2055  0.0859
   45DOPE   H4X 5763   3.977   3.167  10.251  0.0025  0.6608  0.9333
   45DOPE   H4Y 5764   4.022   3.003  10.315  1.9539 -0.2372  1.4702
   45DOPE   C35 5765   4.101   3.168  10.435 -0.1996  0.5124 -0.2201
   45DOPE   H5X 5766   4.015   3.182  10.505  0.3853  0.3919  0.5315
   45DOPE   H5Y 5767   4.144   3.266  10.409  2.5299 -0.8098 -1.0420
   45DOPE   C36 5768   4.197   3.076  10.518 -0.7904  0.3804 -0.3517
   45DOPE   H6X 5769   4.294   3.076  10.464  1.0681 -0.7589  2.7075
   45DOPE   H6Y 5770   4.163   2.972  10.534 -0.2987  0.3180  0.3667
   45DOPE   C37 5771   4.239   3.134  10.656 -0.6963 -0.7246  0.1603
   45DOPE   H7X 5772   4.329   3.079  10.689  1.3760  2.5605  0.4112
   45DOPE   H7Y 5773   4.272   3.240  10.650 -0.5595 -0.7261  0.8670
   45DOPE   C38 5774   4.122   3.121  10.759 -0.4237 -0.0902  0.5776
   45DOPE   H8X 5775   4.094   3.014  10.751 -4.4823  0.9143 -1.1881
   45DOPE   H8Y 5776   4.028   3.164  10.720 -1.2452 -1.6645  0.7601
   45DOPE   C39 5777   4.165   3.173  10.894 -0.1013  0.5744  0.1276
   45DOPE   H9X 5778   4.255   3.236  10.887 -0.1617  0.5615 -0.8372
   45DOPE  C310 5779   4.097   3.154  11.010 -0.4122  0.2138  0.2370
   45DOPE  H10X 5780   4.159   3.188  11.094 -0.3248  1.1534 -0.1968
   45DOPE  C311 5781   3.973   3.067  11.027 -0.0308  0.0902 -0.7035
   45DOPE  H11X 5782   3.948   3.024  10.928 -0.2287  2.8791 -1.9447
   45DOPE  H11Y 5783   3.990   2.987  11.103  1.0975  1.2309  0.3025
   45DOPE  C312 5784   3.860   3.153  11.068 -0.6244 -0.3880  0.4599
   45DOPE  H12X 5785   3.831   3.213  10.980  1.7977  2.5250  1.4914
   45DOPE  H12Y 5786   3.891   3.233  11.139  1.2704  0.6561 -1.4498
   45DOPE  C313 5787   3.745   3.061  11.113  0.2922  0.6372 -0.2576
   45DOPE  H13X 5788   3.760   2.996  11.201  0.2676 -3.2060 -2.8644
   45DOPE  H13Y 5789   3.656   3.127  11.123 -1.2350 -1.3867  0.0641
   45DOPE  C314 5790   3.718   2.960  11.007 -0.1373 -0.5816  0.6246
   45DOPE  H14X 5791   3.801   2.887  11.003  0.7059  0.2943  1.5962
   45DOPE  H14Y 5792   3.708   3.015  10.911 -0.0622 -0.6454  0.5806
   45DOPE  C315 5793   3.589   2.875  11.032 -0.2973  0.1850 -0.2323
   45DOPE  H15X 5794   3.580   2.800  10.951  0.6950 -0.8056  0.5347
   45DOPE  H15Y 5795   3.504   2.945  11.021 -0.3981  0.1109  0.0692
   45DOPE  C316 5796   3.597   2.804  11.171 -0.1184 -0.5694 -0.4245
   45DOPE  H16X 5797   3.599   2.885  11.247 -0.2595 -0.2071 -0.8065
   45DOPE  H16Y 5798   3.691   2.746  11.166  0.3959  0.0978  0.9253
   45DOPE  C317 5799   3.480   2.711  11.193 -0.3454 -0.0455  0.5967
   45DOPE  H17X 5800   3.476   2.652  11.099 -1.0723 -2.4123  2.0207
   45DOPE  H17Y 5801   3.497   2.637  11.275  0.2247 -0.8272 -0.2051
   45DOPE  C318 5802   3.351   2.794  11.226 -0.0417 -0.0415 -0.2055
   45DOPE  H18X 5803   3.340   2.882  11.159 -1.7325 -0.1142 -0.0702
   45DOPE  H18Y 5804   3.267   2.724  11.208  0.0650  0.3624 -2.6079
   45DOPE  H18Z 5805   3.358   2.826  11.332 -3.7495  1.7847 -0.3774
   46DOPE     N 5806   3.078   0.259   9.189  0.3697  0.1364 -0.2919
   46DOPE   HN1 5807   3.133   0.327   9.245 -2.8294  0.8433  2.3085
   46DOPE   HN2 5808   3.119   0.167   9.215  1.3830  0.9163  0.9958
   46DOPE   HN3 5809   3.087   0.269   9.086  2.3078 -0.8395 -0.2685
   46DOPE   C12 5810   2.940   0.266   9.238 -0.3427 -0.0287  0.0872
   46DOPE  H12A 5811   2.884   0.191   9.179  0.2374 -0.6748  0.3374
   46DOPE  H12B 5812   2.908   0.369   9.211  1.6889  0.2382 -1.5432
   46DOPE   C11 5813   2.927   0.257   9.394 -0.5994 -0.8752  0.6510
   46DOPE  H11A 5814   2.819   0.265   9.419 -1.7043 -2.2934 -3.0016
   46DOPE  H11B 5815   2.978   0.344   9.441 -0.6126 -0.3625 -0.2504
   46DOPE     P 5816   2.928   0.040   9.546 -0.2447  0.1149  0.2016
   46DOPE   O13 5817   3.008  -0.080   9.572 -0.7992 -0.0891  0.0951
   46DOPE   O14 5818   2.788   0.015   9.523 -0.1078 -0.0269 -0.1782
   46DOPE   O11 5819   2.949   0.130   9.673 -0.2650 -0.5962 -0.0323
   46DOPE   O12 5820   2.984   0.131   9.430  0.1524  0.3441  0.1144
   46DOPE    C1 5821   2.839   0.138   9.762  0.2791  0.7745 -0.0843
   46DOPE    HA 5822   2.752   0.070   9.750  0.4088  0.8388 -1.4762
   46DOPE    HB 5823   2.804   0.244   9.766 -2.4440 -0.0611  0.1879
   46DOPE    C2 5824   2.891   0.101   9.905  0.0445 -0.4690 -0.4750
   46DOPE    HS 5825   2.811   0.114   9.982  0.4733  0.0044 -0.0959
   46DOPE   O21 5826   3.006   0.177   9.948  0.1003 -0.0648 -0.3432
   46DOPE   C21 5827   2.976   0.307   9.974  0.2108 -0.2611  0.0881
   46DOPE   O22 5828   2.867   0.358   9.968  0.2155 -0.3384  0.6852
   46DOPE   C22 5829   3.104   0.380   9.996  0.3582 -0.0242 -0.1592
   46DOPE   H2R 5830   3.158   0.409   9.904  0.3448  3.5688  0.8042
   46DOPE   H2S 5831   3.174   0.317  10.056  0.6450 -1.7207 -2.1844
   46DOPE    C3 5832   2.934  -0.053   9.907  0.0209 -0.5386 -0.5531
   46DOPE    HX 5833   3.010  -0.071   9.827  1.5791  1.6233  0.3487
   46DOPE    HY 5834   2.842  -0.104   9.873  0.1188 -1.9202  1.1398
   46DOPE   O31 5835   2.971  -0.100  10.035  0.7601 -0.2152 -0.3877
   46DOPE   C31 5836   3.101  -0.120  10.058 -0.2858  0.3506 -0.1403
   46DOPE   O32 5837   3.191  -0.091   9.977 -0.0751  0.2536  0.6985
   46DOPE   C32 5838   3.119  -0.198  10.188  0.0006  0.1150  0.2169
   46DOPE   H2X 5839   3.072  -0.141  10.271 -0.3745 -0.6374  0.5229
   46DOPE   H2Y 5840   3.073  -0.297  10.170 -0.6707  0.6944 -1.4870
   46DOPE   C23 5841   3.072   0.505  10.081 -0.6126  0.0078 -0.0240
   46DOPE   H3R 5842   3.043   0.471  10.183  3.1356  0.2960  1.3046
   46DOPE   H3S 5843   2.990   0.553  10.024  0.5380  2.0126 -0.0928
   46DOPE   C24 5844   3.194   0.594  10.100  0.3397 -0.1812 -0.2631
   46DOPE   H4R 5845   3.220   0.650  10.008  1.9382 -2.2825 -1.1757
   46DOPE   H4S 5846   3.277   0.521  10.116  0.4580 -0.2965 -1.3374
   46DOPE   C25 5847   3.198   0.695  10.219  0.6137 -0.1359  0.3328
   46DOPE   H5R 5848   3.170   0.645  10.314 -1.7692  0.6175  0.1066
   46DOPE   H5S 5849   3.106   0.755  10.200 -0.4444 -1.3452  1.4069
   46DOPE   C26 5850   3.321   0.778  10.234 -0.0208 -0.5986 -0.1335
   46DOPE   H6R 5851   3.295   0.882  10.265  1.9167  0.3537 -1.5153
   46DOPE   H6S 5852   3.361   0.796  10.132 -0.3554  1.0351 -0.0026
   46DOPE   C27 5853   3.431   0.711  10.323 -0.1269  0.2344 -0.1999
   46DOPE   H7R 5854   3.529   0.752  10.288 -1.3535  2.0697 -1.7010
   46DOPE   H7S 5855   3.425   0.602  10.305 -0.3868 -0.1703  2.0504
   46DOPE   C28 5856   3.410   0.717  10.477  0.7309  0.2645 -0.1483
   46DOPE   H8R 5857   3.317   0.658  10.495  1.1688 -0.3533  0.1243
   46DOPE   H8S 5858   3.380   0.821  10.505  0.0192 -0.0594  0.3396
   46DOPE   C29 5859   3.521   0.666  10.556  0.2752  0.2668 -0.8178
   46DOPE   H9R 5860   3.620   0.687  10.512  0.3867  0.8077 -0.3227
   46DOPE  C210 5861   3.519   0.591  10.671  0.7839 -0.9358 -0.4508
   46DOPE  H10R 5862   3.615   0.577  10.724  1.4948  2.1002 -0.7628
   46DOPE  C211 5863   3.387   0.561  10.745 -0.7617 -0.0978  0.3710
   46DOPE  H11R 5864   3.309   0.546  10.667 -0.1492  1.0847 -0.4871
   46DOPE  H11S 5865   3.359   0.634  10.823 -1.2085 -0.1452  0.2548
   46DOPE  C212 5866   3.400   0.432  10.815 -0.0138 -0.0635  0.0172
   46DOPE  H12R 5867   3.495   0.435  10.872 -0.4255  1.5090  0.6753
   46DOPE  H12S 5868   3.404   0.350  10.740 -2.0728 -0.1264 -0.0864
   46DOPE  C213 5869   3.274   0.392  10.905  0.2030 -0.4151 -0.3451
   46DOPE  H13R 5870   3.182   0.435  10.859 -0.7559 -1.2965  0.7068
   46DOPE  H13S 5871   3.292   0.449  10.998  1.6090 -1.1944 -0.1099
   46DOPE  C214 5872   3.268   0.244  10.928  0.9440  0.3179 -0.6364
   46DOPE  H14R 5873   3.201   0.225  11.015 -0.7015 -0.0997 -1.9498
   46DOPE  H14S 5874   3.361   0.211  10.979 -0.6284  0.1578  2.3674
   46DOPE  C215 5875   3.228   0.142  10.821 -0.1668  0.3595  0.4683
   46DOPE  H15R 5876   3.311   0.144  10.747 -1.1484 -0.6834 -0.6927
   46DOPE  H15S 5877   3.132   0.172  10.773 -0.4767 -2.2845 -0.7488
   46DOPE  C216 5878   3.211   0.002  10.881  0.0366  0.6293 -0.3826
   46DOPE  H16R 5879   3.128   0.002  10.955  0.2750  2.0487 -0.0736
   46DOPE  H16S 5880   3.311  -0.020  10.924 -0.5812  0.9128  1.2578
   46DOPE  C217 5881   3.179  -0.095  10.770  0.0843  0.1514  0.4179
   46DOPE  H17R 5882   3.193  -0.201  10.802  0.0731 -0.2597 -0.8823
   46DOPE  H17S 5883   3.254  -0.095  10.688  0.7704 -0.4423  1.0281
   46DOPE  C218 5884   3.032  -0.077  10.722 -0.1479 -0.0589  0.7366
   46DOPE  H18R 5885   3.026  -0.139  10.630 -1.3833  1.1656 -0.0420
   46DOPE  H18S 5886   3.013   0.022  10.674  2.0580  0.3307  0.5290
   46DOPE  H18T 5887   2.954  -0.107  10.795 -0.4021  2.6203  1.6735
   46DOPE   C33 5888   3.269  -0.227  10.222  0.2074 -0.0769  0.1868
   46DOPE   H3X 5889   3.322  -0.136  10.187 -0.8857  0.1126 -1.0688
   46DOPE   H3Y 5890   3.317  -0.301  10.155 -0.7688 -1.6743  1.1918
   46DOPE   C34 5891   3.285  -0.267  10.366 -0.1836  0.1721 -0.0867
   46DOPE   H4X 5892   3.390  -0.302  10.375 -0.5284 -0.7053  0.6110
   46DOPE   H4Y 5893   3.280  -0.179  10.433  0.9586 -0.8243  1.3564
   46DOPE   C35 5894   3.195  -0.382  10.416 -0.2865 -0.6976 -0.6996
   46DOPE   H5X 5895   3.203  -0.473  10.354  1.1944 -0.8696 -0.2998
   46DOPE   H5Y 5896   3.091  -0.344  10.431 -0.6007 -1.5925 -0.5226
   46DOPE   C36 5897   3.240  -0.437  10.551 -0.0526  0.4636 -0.1647
   46DOPE   H6X 5898   3.156  -0.488  10.603  0.6729  0.0923  0.6570
   46DOPE   H6Y 5899   3.280  -0.355  10.614 -2.4996  0.8665  0.9790
   46DOPE   C37 5900   3.358  -0.540  10.538 -0.0219  0.0092  0.3953
   46DOPE   H7X 5901   3.416  -0.523  10.445 -0.3029 -2.4864 -0.3225
   46DOPE   H7Y 5902   3.415  -0.524  10.632 -1.4889  0.1303  1.2932
   46DOPE   C38 5903   3.287  -0.681  10.533 -0.1922 -0.4319  0.0860
   46DOPE   H8X 5904   3.229  -0.678  10.439  0.1519  0.1757 -0.1174
   46DOPE   H8Y 5905   3.214  -0.681  10.617  0.6715 -0.9038  0.8559
   46DOPE   C39 5906   3.390  -0.795  10.547  0.4579  0.0517  0.0094
   46DOPE   H9X 5907   3.487  -0.784  10.496 -1.0402  1.7167 -2.7065
   46DOPE  C310 5908   3.367  -0.908  10.618 -0.1926  0.4871 -0.2056
   46DOPE  H10X 5909   3.443  -0.987  10.629 -2.8130 -2.0416  1.2167
   46DOPE  C311 5910   3.249  -0.944  10.701  0.5868 -1.3619  0.0294
   46DOPE  H11X 5911   3.161  -0.877  10.699  0.1369 -1.8107  2.1591
   46DOPE  H11Y 5912   3.219  -1.046  10.667  0.0616 -1.3022  0.2973
   46DOPE  C312 5913   3.292  -0.956  10.847 -0.2345 -0.0981  0.3303
   46DOPE  H12X 5914   3.321  -0.854  10.883 -0.6750  0.2017 -0.1584
   46DOPE  H12Y 5915   3.380  -1.020  10.865 -0.2110 -0.0226  0.4897
   46DOPE  C313 5916   3.187  -0.987  10.953  0.1742 -0.8136  0.2700
   46DOPE  H13X 5917   3.229  -0.960  11.052  0.6425  0.4383 -0.2528
   46DOPE  H13Y 5918   3.090  -0.938  10.934 -0.5146 -2.2621 -0.1253
   46DOPE  C314 5919   3.153  -1.137  10.959  0.3158 -0.1277 -0.4117
   46DOPE  H14X 5920   3.247  -1.190  10.983  1.4157  1.5390 -0.8337
   46DOPE  H14Y 5921   3.120  -1.167  10.857 -1.1349  0.7778 -0.2501
   46DOPE  C315 5922   3.045  -1.168  11.060 -0.0261  0.4460 -0.0404
   46DOPE  H15X 5923   2.949  -1.114  11.045  0.1134  1.0555  1.1779
   46DOPE  H15Y 5924   3.085  -1.155  11.163  1.8996  0.1032 -0.6949
   46DOPE  C316 5925   3.006  -1.313  11.057 -0.3646  0.1084  0.4054
   46DOPE  H16X 5926   3.097  -1.370  11.086  1.2840  1.0217 -2.6039
   46DOPE  H16Y 5927   2.983  -1.342  10.952  1.3240  0.6019 -0.1234
   46DOPE  C317 5928   2.886  -1.334  11.151 -0.3399 -0.1774  0.4257
   46DOPE  H17X 5929   2.926  -1.306  11.251 -0.5631  0.1413  0.4251
   46DOPE  H17Y 5930   2.802  -1.265  11.127  0.4174  0.9662  0.9813
   46DOPE  C318 5931   2.838  -1.475  11.150 -0.4417  0.1215  0.2971
   46DOPE  H18X 5932   2.764  -1.483  11.232  0.7419  1.9317  1.6090
   46DOPE  H18Y 5933   2.789  -1.492  11.052  0.7827  0.8366 -0.4661
   46DOPE  H18Z 5934   2.920  -1.550  11.160 -0.2419  0.2158 -0.5512
   47DOPE     N 5935   8.151   8.225  10.030  0.7682 -0.5862 -0.1440
   47DOPE   HN1 5936   8.128   8.240  10.131 -0.5304  4.1047 -0.9328
   47DOPE   HN2 5937   8.086   8.152   9.993 -0.0807  1.8900 -3.9910
   47DOPE   HN3 5938   8.250   8.196  10.016  1.3457  0.2965  1.7292
   47DOPE   C12 5939   8.107   8.349   9.952  0.1643 -0.0007 -0.1553
   47DOPE  H12A 5940   8.125   8.434  10.020  0.6609 -1.1290  1.1684
   47DOPE  H12B 5941   7.997   8.335   9.940  0.0796  0.0380  0.5492
   47DOPE   C11 5942   8.172   8.353   9.812  0.1770  0.0410  0.3919
   47DOPE  H11A 5943   8.123   8.424   9.742 -0.3320  0.9525  1.6298
   47DOPE  H11B 5944   8.156   8.255   9.763 -0.8780  0.3750  0.0524
   47DOPE     P 5945   8.428   8.281   9.794 -0.3054 -0.0122 -0.2343
   47DOPE   O13 5946   8.554   8.351   9.820 -0.7369 -0.3416 -0.1824
   47DOPE   O14 5947   8.414   8.219   9.662 -0.0881  0.3420  0.4258
   47DOPE   O11 5948   8.382   8.179   9.906 -0.3022  0.3770  0.1777
   47DOPE   O12 5949   8.309   8.384   9.811 -0.0089  0.4129 -0.1909
   47DOPE    C1 5950   8.479   8.121   9.995  0.7611 -0.7082  0.1206
   47DOPE    HA 5951   8.473   8.190  10.082  1.8736 -1.1104  0.5402
   47DOPE    HB 5952   8.585   8.131   9.962  1.6729 -0.5827  2.7964
   47DOPE    C2 5953   8.438   7.981  10.041  0.4171 -0.0422  0.3043
   47DOPE    HS 5954   8.423   7.912   9.956  2.0794 -1.3658  1.0328
   47DOPE   O21 5955   8.310   7.997  10.114 -0.4537  0.2811  0.1392
   47DOPE   C21 5956   8.259   7.885  10.156  0.4727 -0.8571 -0.5691
   47DOPE   O22 5957   8.295   7.772  10.126 -0.8842 -0.2880 -0.0471
   47DOPE   C22 5958   8.161   7.913  10.266  0.2135  0.5647 -0.1370
   47DOPE   H2R 5959   8.129   7.818  10.314 -1.9674 -0.6686 -3.6879
   47DOPE   H2S 5960   8.068   7.961  10.228  0.5069  1.2721  0.0137
   47DOPE    C3 5961   8.548   7.926  10.133  0.4818 -0.7769 -0.1489
   47DOPE    HX 5962   8.632   7.898  10.066 -0.8601 -4.3840 -0.5707
   47DOPE    HY 5963   8.521   7.828  10.177 -1.2233 -0.7823 -1.1372
   47DOPE   O31 5964   8.599   8.009  10.236 -0.3255 -0.7217 -0.4320
   47DOPE   C31 5965   8.705   8.089  10.212  0.2395 -0.9533 -0.4118
   47DOPE   O32 5966   8.772   8.091  10.112  0.4771  0.1763  0.4965
   47DOPE   C32 5967   8.728   8.181  10.322  0.1025 -0.4494 -0.3328
   47DOPE   H2X 5968   8.680   8.277  10.293  1.9156  0.9635  1.0929
   47DOPE   H2Y 5969   8.675   8.141  10.411  0.3070  1.6070  0.7786
   47DOPE   C23 5970   8.219   8.015  10.362 -0.1745 -0.2916 -0.0491
   47DOPE   H3R 5971   8.137   8.052  10.427 -0.6157 -3.2945  1.2825
   47DOPE   H3S 5972   8.266   8.107  10.322 -0.2311 -1.0533 -1.9734
   47DOPE   C24 5973   8.324   7.948  10.456  0.3133  0.6916 -0.0084
   47DOPE   H4R 5974   8.404   7.903  10.394  0.3575  0.7756 -0.0148
   47DOPE   H4S 5975   8.268   7.860  10.495 -2.1911  2.7664  1.3545
   47DOPE   C25 5976   8.392   8.033  10.558  0.7769  0.9054 -0.8274
   47DOPE   H5R 5977   8.327   8.028  10.647 -0.9121  2.5950 -1.8990
   47DOPE   H5S 5978   8.391   8.139  10.523 -0.6952  0.4008 -2.4404
   47DOPE   C26 5979   8.529   7.971  10.586 -0.6484 -0.1858  0.3420
   47DOPE   H6R 5980   8.585   7.949  10.493 -2.0482 -0.0957 -0.5471
   47DOPE   H6S 5981   8.511   7.874  10.637 -0.0169  0.3560  1.6387
   47DOPE   C27 5982   8.613   8.072  10.672 -0.1805 -0.3619  0.4006
   47DOPE   H7R 5983   8.563   8.078  10.771 -1.2867 -3.0534  0.1053
   47DOPE   H7S 5984   8.603   8.173  10.628 -0.0743 -0.7473 -0.5426
   47DOPE   C28 5985   8.759   8.037  10.685  0.4718 -0.1509 -0.4577
   47DOPE   H8R 5986   8.805   8.026  10.584 -0.0837 -0.6713 -0.6579
   47DOPE   H8S 5987   8.784   7.940  10.733 -0.2470 -0.1206 -0.0121
   47DOPE   C29 5988   8.834   8.142  10.771 -0.6914 -0.4849 -0.6600
   47DOPE   H9R 5989   8.864   8.230  10.712 -0.1603 -0.7257 -0.7476
   47DOPE  C210 5990   8.817   8.159  10.903  0.4296 -0.2461  0.6078
   47DOPE  H10R 5991   8.870   8.241  10.953 -0.0883  1.7553 -1.9203
   47DOPE  C211 5992   8.756   8.063  10.998 -0.0386 -0.5199  0.1788
   47DOPE  H11R 5993   8.694   7.985  10.948 -1.5172  0.1311  0.9184
   47DOPE  H11S 5994   8.699   8.127  11.069  1.5670  0.7062  0.4020
   47DOPE  C212 5995   8.863   7.988  11.086  0.1370  0.1828 -0.7536
   47DOPE  H12R 5996   8.941   8.061  11.117  0.0850 -0.7914  2.0123
   47DOPE  H12S 5997   8.914   7.916  11.020  2.3572  1.0842 -0.1210
   47DOPE  C213 5998   8.795   7.923  11.209 -0.3126  0.4960  0.4051
   47DOPE  H13R 5999   8.697   7.889  11.168 -0.4606  2.6715 -1.2276
   47DOPE  H13S 6000   8.774   8.003  11.283 -1.6915  1.6298 -1.1299
   47DOPE  C214 6001   8.871   7.810  11.282  0.4466  0.3063  0.0679
   47DOPE  H14R 6002   8.943   7.868  11.344  0.2691 -1.3778  1.9356
   47DOPE  H14S 6003   8.925   7.744  11.211 -0.7633 -0.3394 -0.2854
   47DOPE  C215 6004   8.776   7.727  11.367 -0.5133  0.3443 -0.2081
   47DOPE  H15R 6005   8.732   7.647  11.303 -0.2865  1.7448 -2.2133
   47DOPE  H15S 6006   8.698   7.798  11.405  0.0353  1.1287 -0.5249
   47DOPE  C216 6007   8.844   7.652  11.487 -0.2961  0.1343  0.8331
   47DOPE  H16R 6008   8.939   7.612  11.446  0.1688  1.0245  1.0154
   47DOPE  H16S 6009   8.778   7.576  11.534 -0.4045  0.3336  1.0032
   47DOPE  C217 6010   8.886   7.751  11.597  0.4546 -0.3818  0.2307
   47DOPE  H17R 6011   8.793   7.804  11.625 -0.0609 -1.6603  1.0600
   47DOPE  H17S 6012   8.960   7.827  11.563 -0.0531 -0.7393 -1.8326
   47DOPE  C218 6013   8.948   7.693  11.726 -0.4787  0.2939 -0.8027
   47DOPE  H18R 6014   9.038   7.635  11.697  1.1103  1.4364  1.5082
   47DOPE  H18S 6015   8.873   7.636  11.785  0.5165  0.4302  0.6687
   47DOPE  H18T 6016   8.986   7.781  11.782  1.1052 -1.5952  1.2998
   47DOPE   C33 6017   8.876   8.217  10.346 -0.1689 -0.2044  0.4008
   47DOPE   H3X 6018   8.915   8.235  10.243  1.1028 -1.5467  0.6079
   47DOPE   H3Y 6019   8.933   8.129  10.383  1.9633  1.2428  0.7496
   47DOPE   C34 6020   8.900   8.343  10.430 -0.2790 -0.2002 -0.5134
   47DOPE   H4X 6021   8.839   8.434  10.411 -0.4046  0.0158  0.8186
   47DOPE   H4Y 6022   8.871   8.314  10.533 -0.7966 -0.8396 -0.8384
   47DOPE   C35 6023   9.052   8.389  10.412  0.3509 -0.0271  0.4946
   47DOPE   H5X 6024   9.067   8.443  10.316 -0.3876 -0.1539  0.3012
   47DOPE   H5Y 6025   9.117   8.298  10.406  1.1176  0.4349  1.4467
   47DOPE   C36 6026   9.094   8.489  10.526  0.1449  0.5118  0.2078
   47DOPE   H6X 6027   9.018   8.569  10.534 -0.9033 -0.2055 -1.9202
   47DOPE   H6Y 6028   9.193   8.533  10.499  0.5425  0.0038  0.7959
   47DOPE   C37 6029   9.096   8.416  10.663 -0.1152 -0.7078 -0.3390
   47DOPE   H7X 6030   8.999   8.441  10.710  0.7686  1.1761  0.6029
   47DOPE   H7Y 6031   9.098   8.306  10.652 -0.1180 -0.8290  0.7034
   47DOPE   C38 6032   9.207   8.465  10.760 -0.0334  0.2993  0.0551
   47DOPE   H8X 6033   9.205   8.574  10.778 -2.5319  0.5235 -1.1569
   47DOPE   H8Y 6034   9.300   8.439  10.705 -0.5409 -0.7086 -0.3563
   47DOPE   C39 6035   9.208   8.384  10.890 -0.6833  0.3766  0.0812
   47DOPE   H9X 6036   9.223   8.275  10.879  1.0163  0.5728  0.2174
   47DOPE  C310 6037   9.219   8.422  11.017  0.0250 -0.4069  0.9159
   47DOPE  H10X 6038   9.208   8.342  11.091  0.7474 -0.8890  0.5190
   47DOPE  C311 6039   9.213   8.565  11.074  0.3535  0.3257  0.4260
   47DOPE  H11X 6040   9.230   8.646  11.000 -0.7377  0.3958  0.2323
   47DOPE  H11Y 6041   9.114   8.586  11.119  0.6046  0.0744  1.1023
   47DOPE  C312 6042   9.310   8.585  11.193 -0.1236  0.2768  0.0503
   47DOPE  H12X 6043   9.327   8.693  11.209  1.0551  0.1520 -0.2450
   47DOPE  H12Y 6044   9.409   8.547  11.159  0.3444  0.4423  1.1660
   47DOPE  C313 6045   9.283   8.511  11.320  0.3877 -0.0016 -0.2545
   47DOPE  H13X 6046   9.186   8.544  11.363  0.0143 -1.9324  0.4716
   47DOPE  H13Y 6047   9.262   8.404  11.301  1.1769 -0.1318 -0.4165
   47DOPE  C314 6048   9.400   8.526  11.418  0.2599  0.0506 -0.4674
   47DOPE  H14X 6049   9.438   8.628  11.441  2.0112 -1.1589  2.7661
   47DOPE  H14Y 6050   9.483   8.478  11.363 -0.3878 -1.9630  0.1943
   47DOPE  C315 6051   9.384   8.448  11.557 -0.4207 -0.3274 -0.0235
   47DOPE  H15X 6052   9.420   8.344  11.543 -2.5673 -1.2621  0.9058
   47DOPE  H15Y 6053   9.277   8.423  11.573 -0.7119 -0.7042 -2.2357
   47DOPE  C316 6054   9.452   8.510  11.680 -0.4840 -0.1925  0.2474
   47DOPE  H16X 6055   9.408   8.612  11.675 -0.2139 -0.1298 -1.4631
   47DOPE  H16Y 6056   9.560   8.511  11.653 -0.6672  1.9716 -0.6427
   47DOPE  C317 6057   9.414   8.430  11.808 -0.0649  0.2414  0.1123
   47DOPE  H17X 6058   9.439   8.494  11.895 -1.0114  1.4349 -0.4556
   47DOPE  H17Y 6059   9.304   8.416  11.808 -0.1700  1.0058  0.4397
   47DOPE  C318 6060   9.474   8.293  11.830  0.1305 -0.2276 -0.0464
   47DOPE  H18X 6061   9.585   8.294  11.833  0.1141  0.6739  1.9826
   47DOPE  H18Y 6062   9.440   8.259  11.930 -0.6474 -1.3005 -0.6615
   47DOPE  H18Z 6063   9.443   8.217  11.755  0.5382 -1.3887  0.9404
   48DOPE     N 6064   4.472   4.531   9.653  0.2188  0.1182  0.2989
   48DOPE   HN1 6065   4.499   4.431   9.662 -2.2854 -0.8634 -1.9551
   48DOPE   HN2 6066   4.377   4.551   9.691 -0.3347 -1.7611 -0.0158
   48DOPE   HN3 6067   4.480   4.562   9.554  0.2899 -1.0341 -0.0676
   48DOPE   C12 6068   4.567   4.608   9.742 -0.2612 -0.1808  0.4068
   48DOPE  H12A 6069   4.529   4.711   9.751 -2.3188 -0.7015 -1.4826
   48DOPE  H12B 6070   4.666   4.608   9.691 -0.3488 -1.4848  0.1952
   48DOPE   C11 6071   4.581   4.529   9.875  0.4439 -0.5055  0.1777
   48DOPE  H11A 6072   4.483   4.493   9.914  1.1189 -2.8276 -0.1297
   48DOPE  H11B 6073   4.618   4.609   9.942  0.6268  0.2969 -0.8470
   48DOPE     P 6074   4.639   4.282   9.837 -0.1468  0.0171 -0.1600
   48DOPE   O13 6075   4.765   4.205   9.824  0.0994 -0.2592  0.2447
   48DOPE   O14 6076   4.551   4.287   9.721 -0.0431 -0.3250  0.3504
   48DOPE   O11 6077   4.550   4.224   9.965 -0.3233 -0.0916  0.1045
   48DOPE   O12 6078   4.681   4.428   9.874  0.2971 -0.0334  0.0037
   48DOPE    C1 6079   4.617   4.229  10.091 -0.2790  0.2107  0.3345
   48DOPE    HA 6080   4.651   4.332  10.118  0.4064 -0.1531  0.8854
   48DOPE    HB 6081   4.707   4.164  10.097  1.8129  2.8037 -0.7328
   48DOPE    C2 6082   4.526   4.175  10.212 -0.1201  0.7853  0.2912
   48DOPE    HS 6083   4.529   4.067  10.189 -1.5252  1.0666 -1.4550
   48DOPE   O21 6084   4.382   4.219  10.201 -0.2942 -0.5167  0.2534
   48DOPE   C21 6085   4.290   4.134  10.238  0.2325 -0.2045  0.9596
   48DOPE   O22 6086   4.316   4.013  10.248  0.1374  0.4374 -0.0743
   48DOPE   C22 6087   4.151   4.199  10.257  0.1510  0.5566  0.1598
   48DOPE   H2R 6088   4.113   4.197  10.153 -0.6903 -1.5716  0.4628
   48DOPE   H2S 6089   4.148   4.306  10.286 -2.3757  0.7122 -0.4846
   48DOPE    C3 6090   4.591   4.196  10.359  0.4358  0.1068  1.4082
   48DOPE    HX 6091   4.559   4.300  10.382 -2.8766 -0.6359  0.7318
   48DOPE    HY 6092   4.701   4.198  10.343  0.1627  0.5673 -0.7260
   48DOPE   O31 6093   4.540   4.103  10.457  0.4246  0.4092  0.2227
   48DOPE   C31 6094   4.580   3.978  10.437 -0.7019  0.2515 -0.9212
   48DOPE   O32 6095   4.668   3.946  10.357  0.3601 -0.1616 -0.4067
   48DOPE   C32 6096   4.519   3.874  10.538  0.2846  0.3957 -0.0020
   48DOPE   H2X 6097   4.601   3.802  10.559  0.3783  0.3860 -0.3868
   48DOPE   H2Y 6098   4.488   3.922  10.633  0.8174  0.9452 -0.0917
   48DOPE   C23 6099   4.052   4.116  10.340 -0.1916 -0.3974 -0.6613
   48DOPE   H3R 6100   4.073   4.010  10.314 -1.0295 -0.9168  0.6890
   48DOPE   H3S 6101   3.946   4.126  10.307 -0.7204 -0.5126  0.9288
   48DOPE   C24 6102   4.072   4.155  10.490 -0.3694  0.0213  0.5345
   48DOPE   H4R 6103   4.053   4.263  10.509 -1.7642 -0.1521  0.2112
   48DOPE   H4S 6104   4.176   4.134  10.525 -1.1325 -0.0324  2.9452
   48DOPE   C25 6105   3.986   4.069  10.579 -0.2944 -0.4331 -0.0028
   48DOPE   H5R 6106   3.973   3.966  10.539 -1.3498 -0.1995 -0.2774
   48DOPE   H5S 6107   3.885   4.115  10.581 -0.4889 -0.8175  2.3568
   48DOPE   C26 6108   4.037   4.078  10.719 -0.8551 -0.6911 -0.2646
   48DOPE   H6R 6109   3.966   4.034  10.793 -0.5788  1.3194  1.3212
   48DOPE   H6S 6110   4.059   4.183  10.751 -1.7844  0.0357 -1.8912
   48DOPE   C27 6111   4.160   3.991  10.747  0.0222  0.1227  0.5876
   48DOPE   H7R 6112   4.241   4.032  10.683 -1.4345  0.8652 -0.8444
   48DOPE   H7S 6113   4.138   3.889  10.709  2.2873  0.0767 -0.7966
   48DOPE   C28 6114   4.203   3.976  10.896  0.6078  0.8036  0.5264
   48DOPE   H8R 6115   4.111   3.945  10.950  1.3349 -1.4439  0.5885
   48DOPE   H8S 6116   4.248   4.074  10.923  0.6328  0.8164  0.4390
   48DOPE   C29 6117   4.313   3.889  10.929  0.2359 -0.7167  0.5302
   48DOPE   H9R 6118   4.416   3.929  10.921 -0.5005  1.0905 -0.7693
   48DOPE  C210 6119   4.291   3.761  10.951  0.0851  0.1424 -0.3238
   48DOPE  H10R 6120   4.374   3.705  10.996 -1.2172 -0.1624  1.8459
   48DOPE  C211 6121   4.161   3.696  10.931  0.2927  0.1165  0.7208
   48DOPE  H11R 6122   4.145   3.702  10.821  0.2589 -1.6671  0.5864
   48DOPE  H11S 6123   4.077   3.752  10.977 -1.4468 -1.1704 -0.7479
   48DOPE  C212 6124   4.149   3.549  10.979  0.5332 -0.8076  0.0219
   48DOPE  H12R 6125   4.244   3.503  10.944  0.9117  0.9201 -1.3411
   48DOPE  H12S 6126   4.064   3.489  10.939  1.3284 -0.4405 -2.3673
   48DOPE  C213 6127   4.133   3.538  11.133  0.4338  0.1573  0.6079
   48DOPE  H13R 6128   4.058   3.458  11.152 -0.2663  0.3764 -1.0282
   48DOPE  H13S 6129   4.089   3.627  11.183  1.0190 -0.3232  2.0448
   48DOPE  C214 6130   4.265   3.505  11.207  0.1250 -0.3883  0.2227
   48DOPE  H14R 6131   4.348   3.565  11.164  0.2608 -3.0390 -3.8113
   48DOPE  H14S 6132   4.280   3.397  11.184 -0.5464 -0.5958  0.7198
   48DOPE  C215 6133   4.250   3.520  11.357  0.0636  0.0136  0.2467
   48DOPE  H15R 6134   4.170   3.457  11.401 -0.2868 -0.0427 -0.4624
   48DOPE  H15S 6135   4.199   3.618  11.371  0.2829  0.0971  0.4789
   48DOPE  C216 6136   4.380   3.519  11.444  0.0747  0.2207 -0.0086
   48DOPE  H16R 6137   4.450   3.591  11.397  0.5285  0.5840  1.1841
   48DOPE  H16S 6138   4.423   3.417  11.427  0.2215 -0.0488  1.7929
   48DOPE  C217 6139   4.349   3.543  11.592  0.0897 -0.3113 -0.1857
   48DOPE  H17R 6140   4.263   3.480  11.623 -0.9261  1.4617  0.7190
   48DOPE  H17S 6141   4.334   3.652  11.602 -0.3206 -0.4659  1.1458
   48DOPE  C218 6142   4.462   3.512  11.695  0.2519 -1.2479  0.2284
   48DOPE  H18R 6143   4.414   3.524  11.795  1.3199 -2.8977  0.9840
   48DOPE  H18S 6144   4.541   3.589  11.678 -0.0066 -0.7773  1.0677
   48DOPE  H18T 6145   4.506   3.411  11.688  1.0258 -0.8933 -0.1042
   48DOPE   C33 6146   4.411   3.791  10.467  0.3348 -0.8858 -0.4515
   48DOPE   H3X 6147   4.437   3.745  10.369  2.4069  0.3047 -0.5298
   48DOPE   H3Y 6148   4.322   3.852  10.441  0.6614  0.1325  0.7029
   48DOPE   C34 6149   4.353   3.673  10.556 -0.0700  0.3902  0.9645
   48DOPE   H4X 6150   4.432   3.622  10.615 -2.7643 -2.2374  2.6236
   48DOPE   H4Y 6151   4.297   3.715  10.643 -1.5577 -1.5201  1.0182
   48DOPE   C35 6152   4.263   3.581  10.484 -0.1009 -0.1842  0.3045
   48DOPE   H5X 6153   4.258   3.480  10.529  2.2641 -0.9693 -1.0235
   48DOPE   H5Y 6154   4.305   3.559  10.383 -0.2904 -1.7042  0.5296
   48DOPE   C36 6155   4.120   3.637  10.460  0.0596 -0.1743 -0.4917
   48DOPE   H6X 6156   4.124   3.720  10.387  1.6895 -0.3108 -0.5826
   48DOPE   H6Y 6157   4.084   3.672  10.559  0.2458 -2.6334  0.5308
   48DOPE   C37 6158   4.022   3.534  10.405  0.1384 -0.2388 -0.2885
   48DOPE   H7X 6159   4.036   3.506  10.299  0.3579  1.4994 -0.7495
   48DOPE   H7Y 6160   4.046   3.442  10.464 -2.2489 -1.1753 -0.6874
   48DOPE   C38 6161   3.870   3.559  10.422 -0.2924 -0.1410 -0.2732
   48DOPE   H8X 6162   3.812   3.491  10.355  0.3151  0.1243 -1.0896
   48DOPE   H8Y 6163   3.870   3.665  10.389  3.3444  0.6054  1.6079
   48DOPE   C39 6164   3.831   3.555  10.566 -0.5782  0.3390  0.1661
   48DOPE   H9X 6165   3.889   3.612  10.641 -1.5526 -0.3247  1.4726
   48DOPE  C310 6166   3.732   3.481  10.615  0.0674  0.5446  0.1038
   48DOPE  H10X 6167   3.726   3.483  10.725 -0.3322 -0.1711  0.0972
   48DOPE  C311 6168   3.646   3.374  10.540 -0.2759 -0.3900 -0.2683
   48DOPE  H11X 6169   3.538   3.393  10.561  0.0399  0.9306  0.2405
   48DOPE  H11Y 6170   3.663   3.366  10.430  0.8565 -2.2625  0.0052
   48DOPE  C312 6171   3.683   3.236  10.599 -0.1128  0.1903 -0.1420
   48DOPE  H12X 6172   3.650   3.235  10.705  0.7339 -1.0489  0.1277
   48DOPE  H12Y 6173   3.793   3.239  10.612 -0.2085 -2.6782  2.4851
   48DOPE  C313 6174   3.649   3.106  10.522  1.1017  0.2762 -0.8351
   48DOPE  H13X 6175   3.539   3.097  10.506  0.6457 -1.8275  2.5373
   48DOPE  H13Y 6176   3.694   3.115  10.422  1.3477  1.5960 -0.6306
   48DOPE  C314 6177   3.684   2.973  10.590  0.0276  0.6038  0.2649
   48DOPE  H14X 6178   3.674   2.901  10.507  1.3242  1.8505 -1.0295
   48DOPE  H14Y 6179   3.612   2.953  10.673  0.4622 -2.6403 -0.0237
   48DOPE  C315 6180   3.826   2.964  10.645  0.2232  0.0636 -0.2077
   48DOPE  H15X 6181   3.840   3.046  10.719  0.9666 -1.2326  1.1478
   48DOPE  H15Y 6182   3.896   2.981  10.561  1.2466  0.0480  0.6310
   48DOPE  C316 6183   3.848   2.820  10.707  0.4661  0.6551  0.3894
   48DOPE  H16X 6184   3.778   2.809  10.792 -1.4773  3.9317 -0.6127
   48DOPE  H16Y 6185   3.954   2.810  10.741  0.3812 -0.0923  0.4426
   48DOPE  C317 6186   3.828   2.697  10.614  0.1948 -0.2483 -0.6977
   48DOPE  H17X 6187   3.871   2.608  10.664  0.6047  0.0959 -0.4269
   48DOPE  H17Y 6188   3.721   2.681  10.589  0.4342 -0.6693 -1.5148
   48DOPE  C318 6189   3.909   2.716  10.482  0.2041  0.0937  0.0068
   48DOPE  H18X 6190   3.859   2.789  10.414 -0.7309  0.2575  0.8403
   48DOPE  H18Y 6191   4.010   2.759  10.497 -0.2306  0.7544  1.2105
   48DOPE  H18Z 6192   3.927   2.622  10.426  3.7235 -0.2273  1.4114
   49DOPE     N 6193   8.308   0.238  10.163 -0.2021  0.0504  0.3765
   49DOPE   HN1 6194   8.220   0.195  10.200 -0.6183 -0.8534 -1.5709
   49DOPE   HN2 6195   8.300   0.295  10.077 -1.2355  1.4954  1.3741
   49DOPE   HN3 6196   8.378   0.167  10.136 -0.4947  0.6092 -2.0611
   49DOPE   C12 6197   8.357   0.324  10.277  0.0812 -0.7647 -0.0404
   49DOPE  H12A 6198   8.395   0.260  10.360  0.7067  1.0696  1.1496
   49DOPE  H12B 6199   8.266   0.379  10.310 -0.8869 -2.2297 -0.1651
   49DOPE   C11 6200   8.478   0.417  10.247 -0.2485 -0.1376  0.0712
   49DOPE  H11A 6201   8.569   0.356  10.232  1.0075  1.8625 -1.0295
   49DOPE  H11B 6202   8.506   0.466  10.343 -1.8071  0.8970  0.0338
   49DOPE     P 6203   8.361   0.631  10.151 -0.0430  0.2147 -0.3417
   49DOPE   O13 6204   8.227   0.570  10.147  0.1734 -0.4991  0.4844
   49DOPE   O14 6205   8.390   0.723  10.039 -0.4780 -0.0143 -0.0768
   49DOPE   O11 6206   8.383   0.699  10.294 -0.1190 -0.3736 -0.0347
   49DOPE   O12 6207   8.463   0.516  10.151 -0.2128  0.0394  0.4085
   49DOPE    C1 6208   8.280   0.774  10.365  0.1525  0.1458  0.2895
   49DOPE    HA 6209   8.258   0.724  10.462 -0.7900 -0.3883 -0.1846
   49DOPE    HB 6210   8.187   0.756  10.307  0.7786 -1.0244 -0.3811
   49DOPE    C2 6211   8.302   0.921  10.409 -0.4896 -0.2388  0.0783
   49DOPE    HS 6212   8.310   0.974  10.311 -2.3086 -1.8461 -1.0210
   49DOPE   O21 6213   8.434   0.924  10.479  0.2262 -0.3484  0.2317
   49DOPE   C21 6214   8.481   1.044  10.499  0.2143  0.8468  0.9933
   49DOPE   O22 6215   8.450   1.145  10.440 -0.1961  0.4277 -0.2623
   49DOPE   C22 6216   8.596   1.034  10.597  0.4414  0.5584  0.1170
   49DOPE   H2R 6217   8.583   1.120  10.666 -1.6908  0.5946 -0.2501
   49DOPE   H2S 6218   8.695   1.055  10.552  0.6207 -1.0314 -0.2900
   49DOPE    C3 6219   8.199   0.984  10.501 -0.4253  0.2741  0.1611
   49DOPE    HX 6220   8.098   0.970  10.455  0.4072 -2.5062 -1.0366
   49DOPE    HY 6221   8.227   1.090  10.512  1.9000 -0.4897  2.8747
   49DOPE   O31 6222   8.197   0.923  10.632  0.5729 -0.3911 -0.2039
   49DOPE   C31 6223   8.100   0.830  10.662  0.6352  0.0581 -0.1612
   49DOPE   O32 6224   8.003   0.799  10.592  0.0952 -0.2732  0.3077
   49DOPE   C32 6225   8.131   0.774  10.796  0.4389  0.9600 -0.3980
   49DOPE   H2X 6226   8.230   0.805  10.834  0.5287  1.9142 -1.3609
   49DOPE   H2Y 6227   8.056   0.819  10.865  0.1390  0.9645 -0.7264
   49DOPE   C23 6228   8.596   0.906  10.680 -0.1592  0.0198  1.0359
   49DOPE   H3R 6229   8.620   0.815  10.620  0.5312  0.3103  0.8683
   49DOPE   H3S 6230   8.499   0.888  10.732 -1.2835  1.5465 -0.4383
   49DOPE   C24 6231   8.694   0.912  10.795 -0.5702 -0.4272 -0.1587
   49DOPE   H4R 6232   8.682   1.004  10.856  1.4617 -0.2843  0.1064
   49DOPE   H4S 6233   8.799   0.923  10.760  0.5980 -1.6310  2.6677
   49DOPE   C25 6234   8.673   0.799  10.898 -0.1558  0.1503 -0.8167
   49DOPE   H5R 6235   8.696   0.702  10.849 -0.6242  0.3187 -1.3791
   49DOPE   H5S 6236   8.565   0.796  10.925 -0.1841 -0.9993 -1.0080
   49DOPE   C26 6237   8.759   0.808  11.028 -0.3650  0.1765  0.1215
   49DOPE   H6R 6238   8.758   0.722  11.099  1.8424  0.3567  0.4147
   49DOPE   H6S 6239   8.717   0.888  11.094 -1.7165 -0.4679  0.0907
   49DOPE   C27 6240   8.902   0.843  10.986  0.2519 -0.6707 -0.3866
   49DOPE   H7R 6241   8.919   0.950  10.963  0.3164 -1.0390 -2.1387
   49DOPE   H7S 6242   8.927   0.785  10.895  4.1873 -1.2523  0.8715
   49DOPE   C28 6243   9.007   0.802  11.093  0.4588  0.1125  0.4639
   49DOPE   H8R 6244   9.011   0.692  11.106 -0.3498  0.2352  2.0187
   49DOPE   H8S 6245   8.963   0.841  11.188  2.4232  1.0228  1.0512
   49DOPE   C29 6246   9.147   0.858  11.079  0.1694 -0.2268  0.1007
   49DOPE   H9R 6247   9.148   0.968  11.074 -1.1619 -0.1891  0.1558
   49DOPE  C210 6248   9.269   0.797  11.076 -0.1421 -0.2914 -0.2067
   49DOPE  H10R 6249   9.356   0.861  11.096  0.7049 -2.2698  3.3200
   49DOPE  C211 6250   9.299   0.653  11.074 -0.1667  0.3059  0.2811
   49DOPE  H11R 6251   9.398   0.638  11.026 -1.3904 -0.1125 -2.2846
   49DOPE  H11S 6252   9.214   0.608  11.019  1.3874 -0.8333 -1.2603
   49DOPE  C212 6253   9.316   0.591  11.214 -0.5141  0.0089 -0.2499
   49DOPE  H12R 6254   9.313   0.481  11.200 -1.3755 -0.0807  0.5293
   49DOPE  H12S 6255   9.238   0.623  11.287  1.9575  1.3889  1.9299
   49DOPE  C213 6256   9.445   0.635  11.291  0.2588 -0.0251  0.0958
   49DOPE  H13R 6257   9.431   0.742  11.315 -0.4260  0.5293 -2.5531
   49DOPE  H13S 6258   9.526   0.626  11.216  1.0380  2.0650  0.6251
   49DOPE  C214 6259   9.472   0.552  11.417  0.6459 -0.4082  0.1188
   49DOPE  H14R 6260   9.569   0.580  11.464  1.0854  1.0838 -1.5703
   49DOPE  H14S 6261   9.475   0.448  11.377 -0.0830 -0.4837  0.2473
   49DOPE  C215 6262   9.366   0.566  11.521 -0.1032 -0.5566 -0.9468
   49DOPE  H15R 6263   9.264   0.538  11.487 -0.7602  1.1865 -0.4872
   49DOPE  H15S 6264   9.367   0.673  11.550  2.2350  0.1097 -3.0628
   49DOPE  C216 6265   9.387   0.484  11.656 -0.0501 -0.0730 -0.0865
   49DOPE  H16R 6266   9.495   0.501  11.678 -0.5506  0.5717  2.1270
   49DOPE  H16S 6267   9.371   0.375  11.642  0.0847  0.2960 -4.3695
   49DOPE  C217 6268   9.312   0.547  11.774  0.0141 -0.4792  0.1707
   49DOPE  H17R 6269   9.205   0.534  11.748  0.4279 -0.5907 -1.5795
   49DOPE  H17S 6270   9.336   0.654  11.794  1.7736 -0.9169  0.5924
   49DOPE  C218 6271   9.345   0.477  11.904  0.5310  0.2750  0.3044
   49DOPE  H18R 6272   9.263   0.492  11.977  0.0931 -0.4539 -0.0300
   49DOPE  H18S 6273   9.435   0.520  11.953 -0.1298 -0.1070  1.9151
   49DOPE  H18T 6274   9.358   0.368  11.889 -0.3082  0.3743 -1.4753
   49DOPE   C33 6275   8.118   0.616  10.793 -0.3403  0.0398  0.0331
   49DOPE   H3X 6276   8.023   0.576  10.751 -0.1542 -1.5122  1.0080
   49DOPE   H3Y 6277   8.124   0.574  10.895  0.0764 -0.4884 -0.2018
   49DOPE   C34 6278   8.234   0.545  10.718  0.1784 -0.8558 -0.1916
   49DOPE   H4X 6279   8.228   0.435  10.718  0.5920 -0.8872 -1.1413
   49DOPE   H4Y 6280   8.230   0.587  10.615 -1.3324  2.0855  0.9337
   49DOPE   C35 6281   8.372   0.576  10.772  0.0244  0.8344 -0.3560
   49DOPE   H5X 6282   8.389   0.685  10.756 -0.2562  0.9197 -0.0874
   49DOPE   H5Y 6283   8.441   0.514  10.711 -0.9923 -1.0324  0.3123
   49DOPE   C36 6284   8.391   0.546  10.922  0.0514 -0.1730  0.0170
   49DOPE   H6X 6285   8.319   0.597  10.990  1.1772  1.9652 -0.2835
   49DOPE   H6Y 6286   8.494   0.579  10.950 -0.2154 -0.1668  1.0261
   49DOPE   C37 6287   8.389   0.395  10.965  0.6658 -0.3808  0.5138
   49DOPE   H7X 6288   8.290   0.350  10.944 -0.8665  2.6864  0.5050
   49DOPE   H7Y 6289   8.469   0.347  10.905  1.5005  2.9001 -1.2653
   49DOPE   C38 6290   8.428   0.385  11.121 -0.3320  0.0996  0.3713
   49DOPE   H8X 6291   8.418   0.281  11.159 -1.6730 -0.2237 -0.7937
   49DOPE   H8Y 6292   8.357   0.437  11.187 -1.5212 -0.4456 -0.4410
   49DOPE   C39 6293   8.566   0.441  11.159  0.3602  0.2441 -0.0168
   49DOPE   H9X 6294   8.645   0.399  11.095 -1.7976 -1.1982 -1.9017
   49DOPE  C310 6295   8.596   0.545  11.237  0.0820  0.3100 -0.4009
   49DOPE  H10X 6296   8.698   0.576  11.266 -1.0948  2.0009  2.3945
   49DOPE  C311 6297   8.492   0.621  11.314 -0.0780 -0.5837 -0.3826
   49DOPE  H11X 6298   8.391   0.599  11.272  0.3680 -1.1598 -1.1880
   49DOPE  H11Y 6299   8.494   0.596  11.422 -0.6593 -1.3921 -0.5480
   49DOPE  C312 6300   8.531   0.775  11.314 -0.0853 -0.1295  0.2753
   49DOPE  H12X 6301   8.434   0.815  11.349  0.4994  0.2012  1.5736
   49DOPE  H12Y 6302   8.549   0.825  11.216 -0.0208 -2.3831 -0.9242
   49DOPE  C313 6303   8.642   0.824  11.414  0.3103  0.4055 -0.0938
   49DOPE  H13X 6304   8.646   0.754  11.500  0.7058 -0.4774 -0.8063
   49DOPE  H13Y 6305   8.738   0.801  11.362  0.7932  1.2077  0.4276
   49DOPE  C314 6306   8.607   0.960  11.467  0.6967 -0.3800  0.5263
   49DOPE  H14X 6307   8.508   0.947  11.516 -0.1002  0.3557 -0.8405
   49DOPE  H14Y 6308   8.580   1.033  11.387 -0.9552 -1.1871  0.3020
   49DOPE  C315 6309   8.715   1.032  11.545  0.4526 -0.7196 -0.2510
   49DOPE  H15X 6310   8.809   1.045  11.488  0.1396 -0.5240 -0.7261
   49DOPE  H15Y 6311   8.747   0.968  11.630  1.8415  1.3220  0.8363
   49DOPE  C316 6312   8.669   1.162  11.621  0.2712 -0.2491  0.0386
   49DOPE  H16X 6313   8.597   1.132  11.700  0.5469 -0.7788  0.0907
   49DOPE  H16Y 6314   8.612   1.219  11.544 -0.1993 -1.2118 -0.3439
   49DOPE  C317 6315   8.784   1.246  11.674  0.0909  0.9138  0.6057
   49DOPE  H17X 6316   8.844   1.197  11.754 -0.3055  0.6965  0.7704
   49DOPE  H17Y 6317   8.857   1.258  11.591  2.0893  0.0073  2.1247
   49DOPE  C318 6318   8.744   1.389  11.724 -0.1100  0.2622 -0.3264
   49DOPE  H18X 6319   8.831   1.456  11.745 -0.4026  0.1166  1.5045
   49DOPE  H18Y 6320   8.699   1.437  11.635  0.8359  2.1337  0.1334
   49DOPE  H18Z 6321   8.661   1.387  11.798 -1.2573 -1.6064 -1.5909
   50DOPE     N 6322   6.070   5.943  10.076 -0.6167  0.2169  0.0934
   50DOPE   HN1 6323   5.980   5.994  10.086 -0.9181 -0.6350  2.2497
   50DOPE   HN2 6324   6.060   5.846  10.111 -1.3633 -0.1062 -0.9578
   50DOPE   HN3 6325   6.147   5.988  10.130 -0.7581 -0.3776  0.7947
   50DOPE   C12 6326   6.115   5.933   9.931  0.7299  0.1499  0.0198
   50DOPE  H12A 6327   6.149   6.035   9.905 -0.9640  0.6442 -0.3689
   50DOPE  H12B 6328   6.025   5.897   9.875  2.0495 -1.7723 -0.9854
   50DOPE   C11 6329   6.229   5.836   9.913 -0.8401 -0.2077 -0.0003
   50DOPE  H11A 6330   6.311   5.879   9.973 -1.7709 -0.6476  1.6663
   50DOPE  H11B 6331   6.271   5.830   9.811 -1.1785 -0.6997 -0.1168
   50DOPE     P 6332   6.305   5.600   9.976  0.0479  0.4558  0.5688
   50DOPE   O13 6333   6.415   5.628   9.890  0.3113  0.2257 -0.5043
   50DOPE   O14 6334   6.237   5.471   9.948 -0.3218 -0.0360  0.0897
   50DOPE   O11 6335   6.370   5.602  10.121  0.0369  0.2990  0.1716
   50DOPE   O12 6336   6.196   5.709   9.961  0.1593  0.1388 -0.2448
   50DOPE    C1 6337   6.339   5.704  10.217 -0.2264 -0.4139 -0.4123
   50DOPE    HA 6338   6.239   5.752  10.208  1.1232  3.0230  0.9705
   50DOPE    HB 6339   6.408   5.790  10.205 -0.6872 -0.0191 -0.2986
   50DOPE    C2 6340   6.383   5.650  10.358  0.1687  0.2232  0.0300
   50DOPE    HS 6341   6.373   5.735  10.429  0.2920  3.7682 -3.7993
   50DOPE   O21 6342   6.523   5.600  10.353  0.4160  0.1092 -0.5842
   50DOPE   C21 6343   6.614   5.695  10.374 -0.0511  0.8341 -0.5251
   50DOPE   O22 6344   6.593   5.810  10.407  0.0230 -0.0389 -0.0947
   50DOPE   C22 6345   6.751   5.639  10.359  0.2989  0.4146  0.0774
   50DOPE   H2R 6346   6.828   5.718  10.353  0.1233  0.6492  0.8523
   50DOPE   H2S 6347   6.767   5.588  10.261  2.8755 -0.2176  0.7472
   50DOPE    C3 6348   6.302   5.530  10.404  0.0423  0.0551  0.1935
   50DOPE    HX 6349   6.286   5.459  10.320 -1.3121  0.4810  0.0646
   50DOPE    HY 6350   6.197   5.566  10.413  0.0746 -0.2979  2.4850
   50DOPE   O31 6351   6.349   5.469  10.529  0.3775 -0.1398  0.4842
   50DOPE   C31 6352   6.400   5.345  10.530  0.3151 -0.0656 -0.0867
   50DOPE   O32 6353   6.422   5.277  10.429  0.4534 -0.0638 -0.1940
   50DOPE   C32 6354   6.437   5.309  10.671  0.6338 -0.2720  0.2864
   50DOPE   H2X 6355   6.387   5.379  10.742  1.8340  0.6537  0.2611
   50DOPE   H2Y 6356   6.407   5.203  10.686 -1.1438 -0.0509 -1.3651
   50DOPE   C23 6357   6.781   5.543  10.474 -0.2048 -0.2663  0.2103
   50DOPE   H3R 6358   6.705   5.461  10.480  1.4966 -1.8241  2.5389
   50DOPE   H3S 6359   6.783   5.599  10.570 -1.3756  1.3388 -0.6575
   50DOPE   C24 6360   6.910   5.476  10.448 -0.0538  0.6759  0.8934
   50DOPE   H4R 6361   6.990   5.553  10.438 -0.9782  1.6707  0.8936
   50DOPE   H4S 6362   6.906   5.422  10.352 -1.2305  0.6814  0.9238
   50DOPE   C25 6363   6.946   5.386  10.571  0.2466 -0.1852  0.4352
   50DOPE   H5R 6364   7.038   5.330  10.542 -0.2825 -0.6439 -0.4080
   50DOPE   H5S 6365   6.872   5.305  10.557 -0.9229  1.2465 -2.6402
   50DOPE   C26 6366   6.952   5.445  10.710  0.3351  0.2638 -0.0020
   50DOPE   H6R 6367   6.849   5.481  10.733  0.2740 -1.1162  2.2079
   50DOPE   H6S 6368   7.026   5.527  10.701  0.1645  0.4609  0.3521
   50DOPE   C27 6369   7.009   5.348  10.814  0.0383  1.2041  0.7806
   50DOPE   H7R 6370   7.103   5.303  10.776 -0.4820  1.3404 -0.7478
   50DOPE   H7S 6371   6.937   5.264  10.826  1.5305 -0.2485 -0.0998
   50DOPE   C28 6372   7.028   5.404  10.952 -0.2131  0.2684  0.4067
   50DOPE   H8R 6373   7.093   5.494  10.945 -0.3309  0.2515 -1.6305
   50DOPE   H8S 6374   7.084   5.337  11.020 -0.2744 -0.0108  0.1846
   50DOPE   C29 6375   6.901   5.439  11.027 -0.2248  0.3792  0.0191
   50DOPE   H9R 6376   6.821   5.486  10.968  0.2327 -1.1699 -1.9468
   50DOPE  C210 6377   6.881   5.429  11.164 -0.2460  0.4951 -0.9645
   50DOPE  H10R 6378   6.778   5.431  11.202 -0.1823 -0.9025 -0.6731
   50DOPE  C211 6379   6.976   5.371  11.267  0.5928 -0.0376  0.0294
   50DOPE  H11R 6380   6.969   5.439  11.355  2.8073 -0.8843  0.9239
   50DOPE  H11S 6381   7.085   5.371  11.243  0.8409 -0.8214  1.0638
   50DOPE  C212 6382   6.942   5.224  11.302  0.1858 -0.5653  0.3025
   50DOPE  H12R 6383   6.979   5.160  11.219  1.4403 -0.6953  0.9331
   50DOPE  H12S 6384   6.834   5.221  11.326  0.1933  2.4545  1.1283
   50DOPE  C213 6385   7.022   5.192  11.429 -0.4247 -0.0349  0.5190
   50DOPE  H13R 6386   7.116   5.251  11.429 -0.7956  0.6556 -1.8157
   50DOPE  H13S 6387   7.039   5.082  11.434 -2.4660 -0.3670  0.9955
   50DOPE  C214 6388   6.953   5.220  11.563 -0.4615  0.6677 -0.0471
   50DOPE  H14R 6389   6.849   5.181  11.567 -0.3726  0.4857  0.8210
   50DOPE  H14S 6390   6.940   5.329  11.575  1.2081  0.9381 -0.4146
   50DOPE  C215 6391   7.036   5.161  11.679 -1.0666 -0.1496 -0.5571
   50DOPE  H15R 6392   7.142   5.192  11.677 -1.0213 -0.2127  0.3388
   50DOPE  H15S 6393   7.033   5.053  11.656  0.3304 -0.5349  0.9264
   50DOPE  C216 6394   6.979   5.172  11.823 -0.0693 -0.3630 -0.2278
   50DOPE  H16R 6395   6.879   5.123  11.822 -0.5508  0.4885  1.5314
   50DOPE  H16S 6396   6.972   5.278  11.855 -1.1445 -0.5290  0.1233
   50DOPE  C217 6397   7.058   5.093  11.929 -0.3394  0.8170  0.3777
   50DOPE  H17R 6398   7.018   5.110  12.031 -1.2538 -4.7628  1.2776
   50DOPE  H17S 6399   7.164   5.127  11.926 -0.6502  1.8123  0.3338
   50DOPE  C218 6400   7.038   4.940  11.912 -0.1570 -0.1416 -0.1177
   50DOPE  H18R 6401   7.100   4.904  11.827 -0.5103  0.1957 -0.5281
   50DOPE  H18S 6402   6.933   4.906  11.897  0.5554 -1.7454 -1.7210
   50DOPE  H18T 6403   7.086   4.892  11.999 -1.1554  1.0584  1.1492
   50DOPE   C33 6404   6.584   5.328  10.694  0.4806  0.5595 -0.0397
   50DOPE   H3X 6405   6.600   5.438  10.688 -1.5725  0.9085  0.0253
   50DOPE   H3Y 6406   6.646   5.277  10.617  1.1132  0.8152  0.2975
   50DOPE   C34 6407   6.620   5.270  10.834 -0.1314 -0.8325  0.6667
   50DOPE   H4X 6408   6.728   5.295  10.830 -0.6187  1.3904 -2.1579
   50DOPE   H4Y 6409   6.590   5.315  10.931  2.2345 -1.3952  1.7375
   50DOPE   C35 6410   6.612   5.123  10.840 -0.8713  0.1653 -0.4922
   50DOPE   H5X 6411   6.624   5.081  10.738 -0.3943  1.3940 -0.9573
   50DOPE   H5Y 6412   6.513   5.097  10.883  0.1643  0.6989  2.4757
   50DOPE   C36 6413   6.728   5.061  10.921  0.5007  0.2143 -0.3045
   50DOPE   H6X 6414   6.741   5.112  11.019  1.0465 -2.2712  1.0227
   50DOPE   H6Y 6415   6.814   5.069  10.851 -0.2038 -1.4132 -1.4369
   50DOPE   C37 6416   6.714   4.907  10.956  0.0520 -0.0976 -0.0934
   50DOPE   H7X 6417   6.619   4.883  11.009 -0.3592  0.5676 -0.4937
   50DOPE   H7Y 6418   6.703   4.841  10.867 -2.5377 -0.7125  0.5962
   50DOPE   C38 6419   6.834   4.866  11.045  0.2533 -0.0575  0.0495
   50DOPE   H8X 6420   6.857   4.944  11.120 -1.4322  0.9932 -0.4850
   50DOPE   H8Y 6421   6.924   4.875  10.981  0.3961 -0.2363  0.2240
   50DOPE   C39 6422   6.830   4.725  11.106  0.4834  0.5332  0.3928
   50DOPE   H9X 6423   6.864   4.645  11.038  0.1027  1.4885 -0.9585
   50DOPE  C310 6424   6.772   4.698  11.231  0.0326  0.6061  0.2833
   50DOPE  H10X 6425   6.750   4.593  11.256 -0.5933  0.9466  1.1968
   50DOPE  C311 6426   6.709   4.797  11.326 -0.7915  0.0664  0.0705
   50DOPE  H11X 6427   6.652   4.871  11.265 -0.2898  0.0099 -0.4749
   50DOPE  H11Y 6428   6.621   4.744  11.368 -0.6835  1.5144  2.2829
   50DOPE  C312 6429   6.803   4.865  11.428 -0.5784 -0.3568 -1.1694
   50DOPE  H12X 6430   6.737   4.933  11.486  1.9255  1.1012  0.1713
   50DOPE  H12Y 6431   6.887   4.932  11.399  0.0996  0.0758  1.4909
   50DOPE  C313 6432   6.881   4.772  11.508  0.1192 -0.1477  0.1572
   50DOPE  H13X 6433   6.947   4.705  11.448  2.1162  0.8910  1.1052
   50DOPE  H13Y 6434   6.949   4.825  11.577  0.5763 -0.6579  0.1085
   50DOPE  C314 6435   6.793   4.672  11.586  0.6247 -0.0206  0.0184
   50DOPE  H14X 6436   6.853   4.587  11.624 -0.5906 -0.1957  1.6780
   50DOPE  H14Y 6437   6.704   4.637  11.530  1.6737  0.6237 -2.1540
   50DOPE  C315 6438   6.743   4.727  11.725  0.0127 -0.9302  0.1681
   50DOPE  H15X 6439   6.674   4.813  11.709 -1.4652 -2.0577  0.2493
   50DOPE  H15Y 6440   6.832   4.775  11.772  0.0596  0.2173 -1.0245
   50DOPE  C316 6441   6.678   4.620  11.809  0.6188  0.5303 -0.7109
   50DOPE  H16X 6442   6.746   4.533  11.798  2.3862  1.5782  1.2975
   50DOPE  H16Y 6443   6.580   4.611  11.758  0.8619 -0.8590 -0.9726
   50DOPE  C317 6444   6.662   4.644  11.960  0.1721 -0.9583  0.0765
   50DOPE  H17X 6445   6.583   4.720  11.979  0.9410 -0.4001  1.1476
   50DOPE  H17Y 6446   6.617   4.552  12.004 -1.0125 -0.4436  0.0020
   50DOPE  C318 6447   6.783   4.690  12.036  0.0494 -0.4440 -0.2361
   50DOPE  H18X 6448   6.870   4.627  12.009  0.7205 -0.4696  1.8050
   50DOPE  H18Y 6449   6.820   4.794  12.021  0.4340 -0.4789  0.4565
   50DOPE  H18Z 6450   6.756   4.682  12.143  0.5356  0.5010 -0.0337
   51DOPE     N 6451   1.813   7.207   9.057  0.0324 -0.6664  0.3411
   51DOPE   HN1 6452   1.911   7.217   9.091 -0.4170  1.3138  1.2076
   51DOPE   HN2 6453   1.773   7.149   9.133 -0.5496  0.0205  0.5669
   51DOPE   HN3 6454   1.814   7.152   8.969 -0.4726  1.4415 -1.0714
   51DOPE   C12 6455   1.745   7.344   9.049  0.6570  0.2731 -0.1749
   51DOPE  H12A 6456   1.636   7.327   9.044  0.2634  2.5085 -0.0803
   51DOPE  H12B 6457   1.781   7.395   8.957  1.0152 -0.1134 -0.2536
   51DOPE   C11 6458   1.786   7.432   9.164 -0.1604 -0.0890 -0.0909
   51DOPE  H11A 6459   1.743   7.533   9.147  0.0996  0.0596  0.1230
   51DOPE  H11B 6460   1.897   7.434   9.170 -0.1799  0.2427  0.1632
   51DOPE     P 6461   1.590   7.377   9.344  0.5118 -0.3926  0.0983
   51DOPE   O13 6462   1.571   7.247   9.410  0.2356  0.0166  0.1027
   51DOPE   O14 6463   1.506   7.412   9.229 -0.1104 -0.2958 -0.0714
   51DOPE   O11 6464   1.607   7.491   9.454 -0.2901  0.1923  0.2600
   51DOPE   O12 6465   1.740   7.376   9.285 -0.3766  0.0888  0.5144
   51DOPE    C1 6466   1.534   7.610   9.452  0.1439 -0.4061  0.5031
   51DOPE    HA 6467   1.429   7.591   9.423 -0.5474  1.7798  1.3869
   51DOPE    HB 6468   1.580   7.679   9.378 -2.0471  1.3245  0.6595
   51DOPE    C2 6469   1.532   7.685   9.591 -0.0753 -0.5830  0.5364
   51DOPE    HS 6470   1.640   7.704   9.613 -0.1947  0.7263  0.0788
   51DOPE   O21 6471   1.489   7.602   9.701 -0.1917 -0.6305 -0.3307
   51DOPE   C21 6472   1.364   7.551   9.710  0.2846 -0.1628 -0.1538
   51DOPE   O22 6473   1.277   7.566   9.628  0.0426 -0.5472  0.3614
   51DOPE   C22 6474   1.343   7.491   9.848 -0.4781  0.1064  0.4367
   51DOPE   H2R 6475   1.384   7.562   9.922 -0.6111 -0.2709  0.8769
   51DOPE   H2S 6476   1.392   7.392   9.851  0.2519  0.3302 -2.0264
   51DOPE    C3 6477   1.455   7.822   9.574  0.1370  0.8480  0.0396
   51DOPE    HX 6478   1.347   7.804   9.557 -0.2149  0.8450  2.0260
   51DOPE    HY 6479   1.485   7.873   9.480  1.8405  0.5279  0.3743
   51DOPE   O31 6480   1.479   7.900   9.692  0.4033  0.5095 -0.2064
   51DOPE   C31 6481   1.538   8.015   9.684  0.3184  0.4362  0.2525
   51DOPE   O32 6482   1.576   8.069   9.581  0.5462  0.2694 -0.5789
   51DOPE   C32 6483   1.553   8.081   9.825  0.1124  0.3187 -0.3449
   51DOPE   H2X 6484   1.459   8.106   9.879  0.1701  0.2987 -0.2331
   51DOPE   H2Y 6485   1.611   8.003   9.880 -0.7008  0.5390  0.8596
   51DOPE   C23 6486   1.195   7.460   9.877  0.1933  0.0861 -0.0685
   51DOPE   H3R 6487   1.147   7.406   9.793  0.4571 -0.8220  0.3531
   51DOPE   H3S 6488   1.128   7.548   9.878 -0.7728 -0.6313  0.1197
   51DOPE   C24 6489   1.164   7.375  10.000  1.0968 -0.4365  0.3210
   51DOPE   H4R 6490   1.236   7.291   9.996  0.2720 -1.1057 -1.8580
   51DOPE   H4S 6491   1.063   7.329   9.997  0.5256  0.7023  1.4396
   51DOPE   C25 6492   1.178   7.455  10.125  0.0076  0.1676  0.0984
   51DOPE   H5R 6493   1.134   7.556  10.112  1.7113  1.1200  1.2644
   51DOPE   H5S 6494   1.285   7.477  10.146  0.3116  0.1381 -1.3193
   51DOPE   C26 6495   1.114   7.395  10.249 -0.1564 -0.1141  0.0226
   51DOPE   H6R 6496   1.140   7.287  10.255  1.2510  0.1137 -1.2980
   51DOPE   H6S 6497   1.006   7.400  10.223 -0.1864  0.6976  0.2848
   51DOPE   C27 6498   1.153   7.467  10.381 -0.3041  0.2394  0.3742
   51DOPE   H7R 6499   1.114   7.571  10.370 -0.6332  0.2465  1.4454
   51DOPE   H7S 6500   1.264   7.468  10.385 -0.3136  0.5715  0.6212
   51DOPE   C28 6501   1.088   7.390  10.504 -0.8039 -0.5962  0.2775
   51DOPE   H8R 6502   1.110   7.282  10.498 -1.6024 -0.6992 -1.6624
   51DOPE   H8S 6503   0.977   7.396  10.494 -0.8581 -1.5239  0.2490
   51DOPE   C29 6504   1.137   7.443  10.639  1.0697  0.1765 -0.3546
   51DOPE   H9R 6505   1.235   7.491  10.650  0.6094  1.3092 -1.0206
   51DOPE  C210 6506   1.058   7.470  10.742 -0.7162 -0.6203  0.4292
   51DOPE  H10R 6507   1.098   7.504  10.839  1.7260  0.0933 -0.7267
   51DOPE  C211 6508   0.906   7.467  10.739 -0.2420  0.0911  0.3923
   51DOPE  H11R 6509   0.860   7.380  10.689  0.6354 -0.9321  1.3118
   51DOPE  H11S 6510   0.862   7.560  10.695 -0.8643  0.7370  2.2824
   51DOPE  C212 6511   0.853   7.470  10.886  0.0325  0.4655  0.4040
   51DOPE  H12R 6512   0.745   7.489  10.872 -0.8538 -1.9615  2.9201
   51DOPE  H12S 6513   0.885   7.563  10.937 -2.1268  1.2421  0.4473
   51DOPE  C213 6514   0.887   7.352  10.968  0.4564 -0.1421  0.4068
   51DOPE  H13R 6515   0.998   7.344  10.972  0.4835  0.5277  1.1485
   51DOPE  H13S 6516   0.845   7.260  10.921 -2.0820  0.6437  1.0357
   51DOPE  C214 6517   0.817   7.362  11.104 -0.4651 -0.2140  0.6555
   51DOPE  H14R 6518   0.854   7.450  11.160 -1.6667  0.1430  0.9128
   51DOPE  H14S 6519   0.854   7.273  11.159 -0.3136 -0.5519  0.0225
   51DOPE  C215 6520   0.663   7.362  11.093  0.6191  0.2907 -0.6322
   51DOPE  H15R 6521   0.622   7.269  11.048 -1.1939  1.4439 -1.4612
   51DOPE  H15S 6522   0.622   7.451  11.040 -0.7454 -0.1221 -0.3246
   51DOPE  C216 6523   0.599   7.374  11.236  0.3144 -0.3344 -0.1369
   51DOPE  H16R 6524   0.610   7.483  11.255  0.7724 -0.3422 -0.3437
   51DOPE  H16S 6525   0.663   7.307  11.297 -2.0891 -0.8322  2.0289
   51DOPE  C217 6526   0.450   7.335  11.241  0.5752 -0.1022  0.2293
   51DOPE  H17R 6527   0.411   7.361  11.341  1.2165  4.1098 -0.4152
   51DOPE  H17S 6528   0.429   7.227  11.227  0.0497 -0.0977  0.9334
   51DOPE  C218 6529   0.368   7.406  11.133 -0.4367 -0.1312  0.3266
   51DOPE  H18R 6530   0.259   7.391  11.144 -0.7052  0.6123 -1.0274
   51DOPE  H18S 6531   0.398   7.370  11.032  1.4870 -1.1147  1.1911
   51DOPE  H18T 6532   0.385   7.516  11.142 -1.1455 -0.0248  0.3614
   51DOPE   C33 6533   1.622   8.217   9.814  0.2565 -0.2816  0.0295
   51DOPE   H3X 6534   1.571   8.269   9.730  0.1770 -0.2262  0.1114
   51DOPE   H3Y 6535   1.726   8.206   9.777  0.5516  2.6729 -0.2370
   51DOPE   C34 6536   1.633   8.286   9.953 -0.5418  0.0082  0.2459
   51DOPE   H4X 6537   1.531   8.295   9.997 -0.4184  0.1747  0.4934
   51DOPE   H4Y 6538   1.689   8.212  10.014 -0.3400 -0.7013 -0.7798
   51DOPE   C35 6539   1.719   8.421   9.945  0.7384 -0.4283  0.0477
   51DOPE   H5X 6540   1.654   8.496   9.895  2.2693 -0.6552 -2.3903
   51DOPE   H5Y 6541   1.814   8.420   9.888  1.9763  2.9390  1.7396
   51DOPE   C36 6542   1.761   8.473  10.086  0.4021 -0.1414 -0.9241
   51DOPE   H6X 6543   1.845   8.419  10.133  0.6271  1.5395  0.7331
   51DOPE   H6Y 6544   1.668   8.462  10.147  0.4415 -0.9095 -0.9979
   51DOPE   C37 6545   1.799   8.620  10.080 -0.1086  0.2298  0.1299
   51DOPE   H7X 6546   1.910   8.619  10.070 -0.0990  0.9314  0.1220
   51DOPE   H7Y 6547   1.746   8.672   9.998 -0.1375 -2.1621 -1.4571
   51DOPE   C38 6548   1.765   8.703  10.204  0.3038  0.0030  0.1303
   51DOPE   H8X 6549   1.804   8.658  10.298 -1.2759  1.9389  1.8447
   51DOPE   H8Y 6550   1.657   8.723  10.220  0.3893  1.5251 -0.9285
   51DOPE   C39 6551   1.823   8.842  10.196  0.1153  0.6117 -0.2241
   51DOPE   H9X 6552   1.797   8.887  10.099 -2.2163 -0.7469 -0.3093
   51DOPE  C310 6553   1.892   8.913  10.285 -0.7082  0.1275  0.3512
   51DOPE  H10X 6554   1.934   9.010  10.253  0.0380  0.5748  2.5003
   51DOPE  C311 6555   1.933   8.863  10.419  0.2953  0.0099  0.2114
   51DOPE  H11X 6556   1.914   8.756  10.440  0.2495 -0.0196  0.0243
   51DOPE  H11Y 6557   2.040   8.888  10.438  0.7978  1.7694 -3.8566
   51DOPE  C312 6558   1.857   8.946  10.520  0.5372 -0.0098  0.0145
   51DOPE  H12X 6559   1.884   9.051  10.499  1.9771 -0.2074  0.7607
   51DOPE  H12Y 6560   1.892   8.920  10.622  1.1228  1.0815  0.1066
   51DOPE  C313 6561   1.700   8.934  10.523 -0.2686 -0.2604  0.2841
   51DOPE  H13X 6562   1.657   8.962  10.425 -1.7774  0.1301  1.0200
   51DOPE  H13Y 6563   1.663   8.833  10.552 -0.5213 -0.1912  0.2122
   51DOPE  C314 6564   1.657   9.025  10.630 -0.1862 -0.0286  0.7261
   51DOPE  H14X 6565   1.718   9.033  10.723 -0.0940 -1.3671  0.8004
   51DOPE  H14Y 6566   1.554   8.996  10.659  0.0820 -1.5138  0.2977
   51DOPE  C315 6567   1.644   9.168  10.577  0.0448  0.2142  0.1478
   51DOPE  H15X 6568   1.604   9.173  10.473  1.7357  3.9895 -0.4849
   51DOPE  H15Y 6569   1.741   9.223  10.579  0.1973 -0.0080 -0.6706
   51DOPE  C316 6570   1.545   9.246  10.663  0.1583  0.0335  0.5778
   51DOPE  H16X 6571   1.576   9.257  10.769  1.9446 -0.5113  0.1453
   51DOPE  H16Y 6572   1.452   9.186  10.647  0.6658 -1.5903  3.1132
   51DOPE  C317 6573   1.521   9.379  10.602  0.4392 -0.3261  0.0628
   51DOPE  H17X 6574   1.621   9.424  10.586  0.6354 -1.4642 -2.2342
   51DOPE  H17Y 6575   1.479   9.359  10.501 -2.1593 -0.4826  1.0711
   51DOPE  C318 6576   1.416   9.475  10.676  0.1907  0.1051  0.2809
   51DOPE  H18X 6577   1.430   9.581  10.645 -1.5008 -0.2509 -1.8719
   51DOPE  H18Y 6578   1.316   9.457  10.632  0.0513  2.3453 -0.4424
   51DOPE  H18Z 6579   1.418   9.466  10.787  0.7642 -0.0975  0.2579
   52DOPE     N 6580   6.969   5.270   9.828 -0.0639  0.1082 -0.0885
   52DOPE   HN1 6581   6.952   5.336   9.750 -0.8088  0.9979  0.8137
   52DOPE   HN2 6582   6.972   5.173   9.791 -0.2150  0.6034 -1.4507
   52DOPE   HN3 6583   6.884   5.278   9.886 -0.8841 -0.9028 -1.0973
   52DOPE   C12 6584   7.096   5.303   9.907  0.4323  0.2548  0.5689
   52DOPE  H12A 6585   7.180   5.290   9.835  0.2039 -1.6079  0.5730
   52DOPE  H12B 6586   7.109   5.230   9.990  0.7474  0.4954  0.7299
   52DOPE   C11 6587   7.079   5.447   9.958 -0.0888  0.2592 -0.4919
   52DOPE  H11A 6588   7.159   5.463  10.033  0.3110 -0.2351 -0.8084
   52DOPE  H11B 6589   6.992   5.453  10.027  1.2502  2.0858  1.1411
   52DOPE     P 6590   7.203   5.595   9.773 -0.1275 -0.2307  0.2132
   52DOPE   O13 6591   7.159   5.696   9.678  0.3312  0.2985 -0.1489
   52DOPE   O14 6592   7.286   5.480   9.725 -0.3322  0.4124  0.0838
   52DOPE   O11 6593   7.278   5.664   9.887 -0.3878 -0.2368  0.0104
   52DOPE   O12 6594   7.075   5.544   9.854  0.2527 -0.5339 -0.6187
   52DOPE    C1 6595   7.220   5.773   9.967  0.4663  0.1217 -0.2842
   52DOPE    HA 6596   7.129   5.744  10.024 -0.0575  2.4714  0.1988
   52DOPE    HB 6597   7.188   5.844   9.888 -1.4992 -2.3726 -1.8989
   52DOPE    C2 6598   7.325   5.831  10.065 -0.2612  0.2643 -0.1335
   52DOPE    HS 6599   7.366   5.742  10.117  1.3036  1.3579  0.5738
   52DOPE   O21 6600   7.264   5.918  10.162 -0.4510 -0.1085 -0.2056
   52DOPE   C21 6601   7.183   5.869  10.252 -0.1335  1.1665  0.2061
   52DOPE   O22 6602   7.164   5.749  10.268 -0.0428 -0.6230  0.2498
   52DOPE   C22 6603   7.118   5.995  10.328 -0.6816  0.2566 -0.3712
   52DOPE   H2R 6604   7.043   6.034  10.256  0.1921 -0.2640 -1.5872
   52DOPE   H2S 6605   7.195   6.073  10.349  1.2915 -1.8691  0.8220
   52DOPE    C3 6606   7.429   5.907   9.981 -0.3200 -0.0809 -0.7971
   52DOPE    HX 6607   7.370   5.987   9.930 -1.3583 -1.2353 -1.4716
   52DOPE    HY 6608   7.471   5.848   9.897  0.1950 -0.3968 -0.3254
   52DOPE   O31 6609   7.538   5.954  10.062 -0.3772  0.2733  0.5124
   52DOPE   C31 6610   7.580   6.080  10.041 -0.0748 -1.1495  0.3275
   52DOPE   O32 6611   7.523   6.156   9.962  0.0406  0.5379 -0.1107
   52DOPE   C32 6612   7.686   6.121  10.132  0.2421  0.0800 -0.1441
   52DOPE   H2X 6613   7.651   6.105  10.236 -1.0632  1.6987 -0.2903
   52DOPE   H2Y 6614   7.777   6.059  10.119 -0.3527 -1.5411  2.5846
   52DOPE   C23 6615   7.049   5.951  10.459  0.0663  0.0293  0.2978
   52DOPE   H3R 6616   6.974   5.874  10.430 -0.8704 -0.0901  2.7944
   52DOPE   H3S 6617   6.982   6.034  10.491 -1.5862 -1.3690  0.6603
   52DOPE   C24 6618   7.139   5.904  10.570 -0.2238 -0.2323 -0.1375
   52DOPE   H4R 6619   7.220   5.977  10.587 -0.7013  0.2668  0.0162
   52DOPE   H4S 6620   7.181   5.805  10.541  2.6062  0.4792  1.1877
   52DOPE   C25 6621   7.053   5.877  10.707 -0.0023  0.5662  0.1435
   52DOPE   H5R 6622   6.973   5.801  10.693  0.9376 -0.1573 -1.6885
   52DOPE   H5S 6623   7.016   5.977  10.737 -0.1078  1.1759 -1.8768
   52DOPE   C26 6624   7.134   5.818  10.821 -0.0516 -0.2864  0.2402
   52DOPE   H6R 6625   7.231   5.872  10.823 -0.6559  0.8761 -0.4997
   52DOPE   H6S 6626   7.169   5.713  10.811  0.3619 -0.0334 -1.2413
   52DOPE   C27 6627   7.055   5.832  10.958  0.8620 -0.5873  0.4432
   52DOPE   H7R 6628   6.964   5.768  10.954  0.0278  0.3892  2.6493
   52DOPE   H7S 6629   7.012   5.932  10.978 -0.2888 -0.7732 -0.9520
   52DOPE   C28 6630   7.133   5.777  11.075 -0.2663 -0.2740 -0.0572
   52DOPE   H8R 6631   7.134   5.667  11.054 -1.8638 -0.4717  0.7124
   52DOPE   H8S 6632   7.083   5.799  11.171  2.2294  2.0108  0.8188
   52DOPE   C29 6633   7.271   5.830  11.095  0.6824  0.4780 -0.2591
   52DOPE   H9R 6634   7.271   5.940  11.089  0.4544  0.4368 -1.2348
   52DOPE  C210 6635   7.385   5.754  11.108  0.7557  0.1276 -0.5634
   52DOPE  H10R 6636   7.483   5.805  11.107 -0.1126  1.9474  0.5391
   52DOPE  C211 6637   7.404   5.612  11.130 -1.0976  0.4210 -0.5060
   52DOPE  H11R 6638   7.312   5.566  11.172 -2.3752  1.0266 -2.4983
   52DOPE  H11S 6639   7.475   5.607  11.215 -0.8317 -1.9859 -0.8057
   52DOPE  C212 6640   7.464   5.540  11.017  0.4387  0.6040  0.2753
   52DOPE  H12R 6641   7.513   5.448  11.054  0.0453  0.1692 -0.2703
   52DOPE  H12S 6642   7.553   5.586  10.970  1.6997 -3.0147 -1.1997
   52DOPE  C213 6643   7.362   5.508  10.913 -0.1824  0.6836  0.2791
   52DOPE  H13R 6644   7.279   5.582  10.908 -1.4672 -0.7562 -0.9634
   52DOPE  H13S 6645   7.317   5.408  10.928  0.2373  0.5546  0.7198
   52DOPE  C214 6646   7.429   5.506  10.784  1.1195  0.2670  0.5218
   52DOPE  H14R 6647   7.529   5.459  10.781  1.7305  1.5459 -0.4131
   52DOPE  H14S 6648   7.446   5.614  10.762 -0.4441  0.4948  0.3299
   52DOPE  C215 6649   7.349   5.437  10.663 -0.1898 -0.2347 -0.1420
   52DOPE  H15R 6650   7.251   5.489  10.656 -0.3435 -0.4557  0.3574
   52DOPE  H15S 6651   7.315   5.334  10.687 -0.7563  0.0264  0.2059
   52DOPE  C216 6652   7.416   5.450  10.523 -0.3738  0.1169 -0.1879
   52DOPE  H16R 6653   7.521   5.416  10.513 -1.0894 -1.9123 -1.5093
   52DOPE  H16S 6654   7.408   5.559  10.503 -0.7253  0.2199  0.4782
   52DOPE  C217 6655   7.331   5.363  10.424  0.2435  0.3382  0.4091
   52DOPE  H17R 6656   7.224   5.385  10.446  0.0720  0.9646 -0.9660
   52DOPE  H17S 6657   7.358   5.258  10.448 -3.2838 -1.1450 -1.2794
   52DOPE  C218 6658   7.356   5.392  10.275  0.1768  0.0773 -0.0573
   52DOPE  H18R 6659   7.343   5.501  10.254 -0.5114 -0.0936 -0.5590
   52DOPE  H18S 6660   7.455   5.360  10.236 -0.4313  0.7996 -2.3109
   52DOPE  H18T 6661   7.275   5.342  10.218 -0.1829  1.6014 -0.9343
   52DOPE   C33 6662   7.727   6.265  10.109 -0.0448 -0.0877  0.9561
   52DOPE   H3X 6663   7.636   6.329  10.106 -0.6554 -0.6615  3.8081
   52DOPE   H3Y 6664   7.787   6.273  10.017  2.0417  0.0122  2.2602
   52DOPE   C34 6665   7.828   6.307  10.227 -0.0711  0.0533  0.2220
   52DOPE   H4X 6666   7.778   6.292  10.326 -0.1898 -0.3872  0.0976
   52DOPE   H4Y 6667   7.921   6.249  10.211  0.1488  0.9525 -1.9811
   52DOPE   C35 6668   7.861   6.457  10.218 -0.0012 -0.2306  0.7271
   52DOPE   H5X 6669   7.779   6.521  10.256  1.5511  1.8726  0.6888
   52DOPE   H5Y 6670   7.875   6.484  10.112 -2.5233  3.9385  1.2260
   52DOPE   C36 6671   7.983   6.508  10.298  0.5043  0.5591  0.0064
   52DOPE   H6X 6672   8.064   6.432  10.302 -0.8101 -0.8436  1.1629
   52DOPE   H6Y 6673   7.947   6.511  10.403 -3.3053  0.0616 -1.1133
   52DOPE   C37 6674   8.045   6.640  10.258 -0.0714 -0.7473 -0.0305
   52DOPE   H7X 6675   8.118   6.671  10.336 -1.1753  2.1609 -0.0273
   52DOPE   H7Y 6676   8.094   6.641  10.159  2.1884  0.6993  1.0315
   52DOPE   C38 6677   7.943   6.754  10.251  0.2124 -0.0261 -0.7906
   52DOPE   H8X 6678   7.902   6.763  10.354  1.6536  1.1248 -0.2816
   52DOPE   H8Y 6679   7.865   6.718  10.181  1.4544 -1.8076 -1.3182
   52DOPE   C39 6680   8.014   6.876  10.212  0.1851 -0.1890 -0.4603
   52DOPE   H9X 6681   8.014   6.881  10.102 -1.4400 -1.0496 -0.5322
   52DOPE  C310 6682   8.069   6.983  10.278 -0.3120  0.2432  0.2398
   52DOPE  H10X 6683   8.130   7.057  10.225  0.9263  0.3977  1.8041
   52DOPE  C311 6684   8.070   6.991  10.429 -0.0444 -0.1873  0.1243
   52DOPE  H11X 6685   8.072   7.097  10.461 -2.0054 -0.0831  0.0335
   52DOPE  H11Y 6686   7.985   6.943  10.482  0.1829 -1.6952 -0.8021
   52DOPE  C312 6687   8.194   6.935  10.488 -0.4483  0.4770 -0.2288
   52DOPE  H12X 6688   8.280   6.999  10.460  0.8567 -1.7120 -1.5007
   52DOPE  H12Y 6689   8.217   6.828  10.469 -2.0721  0.2183 -0.8999
   52DOPE  C313 6690   8.180   6.942  10.643  0.0753 -0.4601  0.3784
   52DOPE  H13X 6691   8.089   6.883  10.665  0.3797 -2.4580 -2.9966
   52DOPE  H13Y 6692   8.268   6.895  10.691  0.3575  2.5158  3.0984
   52DOPE  C314 6693   8.151   7.083  10.703  0.1699 -1.0619 -0.4099
   52DOPE  H14X 6694   8.052   7.131  10.686  0.9985  0.0230 -2.4683
   52DOPE  H14Y 6695   8.219   7.162  10.666 -0.4417  0.9333  2.3349
   52DOPE  C315 6696   8.165   7.080  10.859  0.0699  0.3615  0.6936
   52DOPE  H15X 6697   8.109   6.995  10.903 -0.7138  0.3633 -0.2785
   52DOPE  H15Y 6698   8.121   7.172  10.903 -1.2720  1.0787 -1.9805
   52DOPE  C316 6699   8.311   7.088  10.919 -0.2250  0.4098  0.1853
   52DOPE  H16X 6700   8.359   7.178  10.874 -1.6998  1.1973  0.1374
   52DOPE  H16Y 6701   8.370   6.999  10.886  0.1326  0.8786 -0.4687
   52DOPE  C317 6702   8.320   7.097  11.074 -0.1916  0.1676 -0.0263
   52DOPE  H17X 6703   8.279   7.191  11.118  1.1867  1.0239 -0.4894
   52DOPE  H17Y 6704   8.250   7.018  11.110 -0.9072  0.6715 -0.2932
   52DOPE  C318 6705   8.459   7.066  11.120  0.0845  0.2014 -0.0747
   52DOPE  H18X 6706   8.526   7.144  11.079 -1.4827  1.1661 -0.8988
   52DOPE  H18Y 6707   8.458   7.077  11.231 -0.9562 -2.0323  0.1999
   52DOPE  H18Z 6708   8.495   6.965  11.090  2.3693  0.4295  1.6270
   53DOPE     N 6709   5.688   0.173   9.611 -0.1832  0.2084 -0.2884
   53DOPE   HN1 6710   5.675   0.070   9.619  2.4019 -0.3621 -2.1371
   53DOPE   HN2 6711   5.717   0.188   9.513 -0.9410  0.6855 -0.4462
   53DOPE   HN3 6712   5.772   0.200   9.666  0.4815 -1.4335 -0.4297
   53DOPE   C12 6713   5.558   0.261   9.625 -0.3787  0.3728  0.2905
   53DOPE  H12A 6714   5.482   0.193   9.581  1.4657 -1.1675 -0.7162
   53DOPE  H12B 6715   5.564   0.340   9.547  0.2265  1.6640  1.5950
   53DOPE   C11 6716   5.537   0.333   9.762  0.5893 -0.1534 -0.1973
   53DOPE  H11A 6717   5.446   0.395   9.761 -0.5705 -1.8030 -0.5656
   53DOPE  H11B 6718   5.620   0.407   9.774 -0.5208  1.8518 -3.7199
   53DOPE     P 6719   5.418   0.166   9.933  0.0121 -0.1748  0.2113
   53DOPE   O13 6720   5.453   0.119  10.070 -0.0423  0.4387 -0.0093
   53DOPE   O14 6721   5.375   0.070   9.832  0.0859 -0.1048  0.6702
   53DOPE   O11 6722   5.311   0.282   9.944  0.2368  0.0333 -0.1016
   53DOPE   O12 6723   5.546   0.249   9.879  0.1855  0.0408 -0.3959
   53DOPE    C1 6724   5.323   0.393  10.035  0.2499  0.0836  0.0866
   53DOPE    HA 6725   5.280   0.489   9.998 -1.3224 -0.6247 -0.0168
   53DOPE    HB 6726   5.429   0.407  10.066  0.4672 -0.1114 -0.5645
   53DOPE    C2 6727   5.220   0.371  10.151  0.0643 -0.0409  0.2659
   53DOPE    HS 6728   5.247   0.268  10.182 -0.6293 -1.3208 -2.9383
   53DOPE   O21 6729   5.086   0.375  10.098  0.1067  0.4723  0.3657
   53DOPE   C21 6730   4.996   0.294  10.152  0.3641 -0.2964 -0.0402
   53DOPE   O22 6731   5.026   0.206  10.232 -0.2147 -0.5092 -0.3671
   53DOPE   C22 6732   4.853   0.340  10.120  0.2970  0.0251  0.3030
   53DOPE   H2R 6733   4.806   0.346  10.221 -0.7955 -2.1267 -0.0139
   53DOPE   H2S 6734   4.804   0.257  10.063  0.8164 -0.1642  0.1276
   53DOPE    C3 6735   5.232   0.468  10.278  0.5129  0.1184 -0.4802
   53DOPE    HX 6736   5.169   0.425  10.358  2.3880 -0.2338  0.8778
   53DOPE    HY 6737   5.186   0.563  10.243  1.3996  0.7026 -0.0862
   53DOPE   O31 6738   5.370   0.477  10.317 -0.7300  0.0004 -0.4525
   53DOPE   C31 6739   5.427   0.599  10.308  0.0576  0.7876  0.0393
   53DOPE   O32 6740   5.363   0.706  10.291 -1.2250 -0.0532  0.2384
   53DOPE   C32 6741   5.573   0.588  10.340 -0.6836  0.4823 -0.6996
   53DOPE   H2X 6742   5.613   0.536  10.251 -0.3246  0.8828 -0.7793
   53DOPE   H2Y 6743   5.616   0.691  10.342 -2.9835  1.5347  1.8952
   53DOPE   C23 6744   4.820   0.477  10.046  0.3448  0.5294  0.7539
   53DOPE   H3R 6745   4.781   0.446   9.948  1.7321  2.0236 -0.3303
   53DOPE   H3S 6746   4.906   0.546  10.029 -0.1596  1.3041  1.2410
   53DOPE   C24 6747   4.709   0.550  10.128 -0.0540  0.2976 -0.2396
   53DOPE   H4R 6748   4.753   0.593  10.221  0.8081 -2.0899  0.5275
   53DOPE   H4S 6749   4.630   0.477  10.157  0.9888 -1.2347 -1.1047
   53DOPE   C25 6750   4.622   0.659  10.059 -0.3898  0.4769  0.1881
   53DOPE   H5R 6751   4.581   0.616   9.965  0.8805 -2.7024  0.9633
   53DOPE   H5S 6752   4.688   0.739  10.019  0.9559 -0.4261  0.5244
   53DOPE   C26 6753   4.513   0.713  10.151 -0.4637 -0.0952  0.1546
   53DOPE   H6R 6754   4.534   0.684  10.257  0.7008 -0.7563 -0.2350
   53DOPE   H6S 6755   4.417   0.667  10.119  0.6931  0.0688 -4.1042
   53DOPE   C27 6756   4.496   0.866  10.163 -0.3441  0.1256  0.6200
   53DOPE   H7R 6757   4.593   0.905  10.201 -0.0928 -1.0984  1.2588
   53DOPE   H7S 6758   4.417   0.894  10.237  0.5971  3.6207  0.5031
   53DOPE   C28 6759   4.454   0.937  10.031 -0.0387 -0.4292  0.0569
   53DOPE   H8R 6760   4.350   0.911  10.004  0.6126 -2.3949 -0.7108
   53DOPE   H8S 6761   4.527   0.894   9.959 -1.7103 -0.1434 -1.9048
   53DOPE   C29 6762   4.466   1.086  10.042 -0.7655 -0.5501 -0.2711
   53DOPE   H9R 6763   4.555   1.134  10.086 -1.4918  0.5320  0.0617
   53DOPE  C210 6764   4.377   1.176   9.997  0.3801  0.1849  0.1569
   53DOPE  H10R 6765   4.400   1.284   9.999 -1.7288  0.7033 -0.7296
   53DOPE  C211 6766   4.249   1.142   9.923  0.7365 -0.4974 -0.0611
   53DOPE  H11R 6767   4.233   1.033   9.906 -0.2100  0.0054 -2.7782
   53DOPE  H11S 6768   4.252   1.193   9.824  2.4626  0.1352  0.2714
   53DOPE  C212 6769   4.128   1.185  10.003  0.1930  0.0553 -0.0899
   53DOPE  H12R 6770   4.044   1.182   9.929  1.6568 -1.3161 -1.7848
   53DOPE  H12S 6771   4.130   1.286  10.048 -1.3834 -0.4903  1.2909
   53DOPE  C213 6772   4.111   1.078  10.116 -0.9835 -0.1566 -0.5000
   53DOPE  H13R 6773   4.169   0.984  10.103 -1.9975 -0.7335 -0.9681
   53DOPE  H13S 6774   4.005   1.047  10.113 -0.7554 -0.8855 -1.7087
   53DOPE  C214 6775   4.146   1.130  10.259 -0.1015  0.1648 -0.1348
   53DOPE  H14R 6776   4.072   1.206  10.291 -0.9824 -0.6083 -0.2949
   53DOPE  H14S 6777   4.248   1.175  10.261  0.3351 -0.7573 -1.0612
   53DOPE  C215 6778   4.129   1.020  10.365 -0.1093 -0.4467  0.4525
   53DOPE  H15R 6779   4.197   0.935  10.343 -0.7536 -0.6172 -1.0434
   53DOPE  H15S 6780   4.025   0.985  10.347 -0.5672  1.7372 -1.8107
   53DOPE  C216 6781   4.151   1.078  10.506  0.3594 -0.2848 -0.7799
   53DOPE  H16R 6782   4.066   1.148  10.525  0.3781 -0.6324  0.7063
   53DOPE  H16S 6783   4.250   1.128  10.505 -0.1066  0.7892  1.1384
   53DOPE  C217 6784   4.152   0.986  10.634  0.5971  0.2501 -0.0593
   53DOPE  H17R 6785   4.209   0.893  10.611 -0.8730 -0.1036 -2.6785
   53DOPE  H17S 6786   4.049   0.951  10.657  0.8104 -1.3080 -1.2449
   53DOPE  C218 6787   4.206   1.058  10.763 -0.5418  0.5054  0.0138
   53DOPE  H18R 6788   4.214   0.980  10.841  0.4217 -1.8022 -2.2591
   53DOPE  H18S 6789   4.141   1.144  10.790  1.2441  2.0083 -0.2969
   53DOPE  H18T 6790   4.309   1.095  10.742  0.0388 -0.5352  0.9153
   53DOPE   C33 6791   5.604   0.510  10.472 -0.1285 -0.5203 -0.3205
   53DOPE   H3X 6792   5.710   0.476  10.475 -0.4846 -1.6413  0.4074
   53DOPE   H3Y 6793   5.554   0.412  10.489 -0.1497 -0.5211 -0.3851
   53DOPE   C34 6794   5.596   0.587  10.607 -0.7600 -0.3736  0.0607
   53DOPE   H4X 6795   5.693   0.572  10.659 -0.5088 -0.0623 -0.3155
   53DOPE   H4Y 6796   5.580   0.692  10.575 -0.5003 -0.8042 -1.5371
   53DOPE   C35 6797   5.477   0.539  10.692  0.2607 -0.1021  0.6854
   53DOPE   H5X 6798   5.503   0.442  10.738  3.1096  1.3046  2.3429
   53DOPE   H5Y 6799   5.394   0.519  10.621  0.8110  1.9958 -0.6711
   53DOPE   C36 6800   5.433   0.636  10.797 -0.7910  0.0970 -0.4903
   53DOPE   H6X 6801   5.511   0.658  10.872  0.1200 -0.8167 -1.1342
   53DOPE   H6Y 6802   5.339   0.600  10.845 -1.7864  0.2726 -2.2238
   53DOPE   C37 6803   5.384   0.770  10.733 -0.3105 -0.2979 -0.2026
   53DOPE   H7X 6804   5.463   0.844  10.708  2.1699 -2.6139  0.2745
   53DOPE   H7Y 6805   5.334   0.738  10.640  0.8685  0.5051 -1.1528
   53DOPE   C38 6806   5.277   0.843  10.828 -1.1755  0.1943 -0.2981
   53DOPE   H8X 6807   5.202   0.771  10.869 -2.2510  1.1608 -0.4979
   53DOPE   H8Y 6808   5.219   0.908  10.759 -0.2049  0.4853 -0.8434
   53DOPE   C39 6809   5.345   0.927  10.937  0.2377  0.5938 -0.3091
   53DOPE   H9X 6810   5.392   0.875  11.022 -2.2701 -0.2437  0.6864
   53DOPE  C310 6811   5.322   1.059  10.968  1.2177  0.0205 -0.6298
   53DOPE  H10X 6812   5.374   1.105  11.053  2.3124 -0.5869 -0.9386
   53DOPE  C311 6813   5.235   1.163  10.896 -0.1343 -0.4306  0.0336
   53DOPE  H11X 6814   5.158   1.114  10.833  0.7894  0.8569 -2.2239
   53DOPE  H11Y 6815   5.178   1.231  10.963  0.3786  1.7874 -1.6775
   53DOPE  C312 6816   5.321   1.242  10.795 -0.3145 -0.2286 -1.2052
   53DOPE  H12X 6817   5.424   1.258  10.835 -0.5975  0.7005 -0.8153
   53DOPE  H12Y 6818   5.277   1.342  10.774 -0.2102  0.3235  0.9341
   53DOPE  C313 6819   5.337   1.182  10.649  0.5683  1.4428 -0.6469
   53DOPE  H13X 6820   5.393   1.086  10.653 -1.8419 -0.0289 -0.1223
   53DOPE  H13Y 6821   5.232   1.165  10.616  0.2646 -0.4662  1.0666
   53DOPE  C314 6822   5.408   1.279  10.563  0.4462  0.1457 -0.1545
   53DOPE  H14X 6823   5.512   1.294  10.599  0.6760 -2.7231  0.6084
   53DOPE  H14Y 6824   5.358   1.377  10.578 -0.2540 -0.4152  1.4039
   53DOPE  C315 6825   5.407   1.240  10.416 -0.4823 -0.6106 -0.2836
   53DOPE  H15X 6826   5.301   1.230  10.384 -0.2951  0.5972 -1.3552
   53DOPE  H15Y 6827   5.462   1.144  10.405 -1.1397 -1.3383  2.1354
   53DOPE  C316 6828   5.474   1.348  10.336 -0.3263  0.0308 -0.0404
   53DOPE  H16X 6829   5.566   1.373  10.392  0.7894  2.0889 -2.6092
   53DOPE  H16Y 6830   5.411   1.440  10.335 -2.0239 -1.0608 -2.2908
   53DOPE  C317 6831   5.494   1.302  10.193  0.2106  0.6651  0.2783
   53DOPE  H17X 6832   5.569   1.370  10.147 -0.4565  0.6812 -0.8187
   53DOPE  H17Y 6833   5.524   1.195  10.188 -0.2107  0.5949 -1.0898
   53DOPE  C318 6834   5.366   1.303  10.108 -0.5406 -0.2769 -0.5270
   53DOPE  H18X 6835   5.381   1.285  10.000 -0.8074 -2.5294 -0.2343
   53DOPE  H18Y 6836   5.303   1.219  10.144 -1.3325 -1.0251 -3.4152
   53DOPE  H18Z 6837   5.317   1.402  10.121 -0.7129 -0.4117 -0.1298
   54DOPE     N 6838   6.092   5.252  10.027  0.2260  0.9195  0.1163
   54DOPE   HN1 6839   6.164   5.197  10.078 -2.1322 -1.8184  0.7581
   54DOPE   HN2 6840   6.065   5.208   9.937  0.7720 -2.1713  1.3220
   54DOPE   HN3 6841   6.119   5.353  10.024 -2.4268  1.7509  1.4445
   54DOPE   C12 6842   5.968   5.248  10.117  0.0745  0.8384  0.2785
   54DOPE  H12A 6843   5.999   5.270  10.221  0.1005  1.4142  0.1502
   54DOPE  H12B 6844   5.924   5.146  10.123 -0.6667  1.0529 -1.0872
   54DOPE   C11 6845   5.876   5.358  10.066 -0.4245 -0.3791  0.0474
   54DOPE  H11A 6846   5.776   5.355  10.115 -1.1104  1.4705 -1.1548
   54DOPE  H11B 6847   5.868   5.356   9.956 -0.5458  3.0528 -0.1132
   54DOPE     P 6848   5.895   5.582  10.195 -0.2758  0.0036  0.2439
   54DOPE   O13 6849   5.745   5.611  10.189  0.0194  0.4355 -1.0229
   54DOPE   O14 6850   5.980   5.701  10.191  0.4156 -0.3831  0.2571
   54DOPE   O11 6851   5.923   5.490  10.317  0.1691  0.0808  0.1656
   54DOPE   O12 6852   5.943   5.481  10.078  0.1376 -0.3571  0.2211
   54DOPE    C1 6853   5.835   5.486  10.429  0.4784 -0.3610 -0.9440
   54DOPE    HA 6854   5.754   5.416  10.398  1.4747 -2.0004  0.0194
   54DOPE    HB 6855   5.790   5.585  10.448 -0.5561 -0.7951 -1.0631
   54DOPE    C2 6856   5.906   5.436  10.555  0.7708 -0.3392  0.8053
   54DOPE    HS 6857   5.827   5.399  10.623 -0.9997 -1.4515 -1.7226
   54DOPE   O21 6858   5.981   5.542  10.607 -0.3760 -0.1946 -0.1134
   54DOPE   C21 6859   5.906   5.626  10.678  0.4189 -0.5574 -0.4044
   54DOPE   O22 6860   5.787   5.619  10.704  0.5576  0.4295 -0.0509
   54DOPE   C22 6861   5.986   5.744  10.715  0.3756  0.2917  0.3965
   54DOPE   H2R 6862   6.030   5.789  10.623  0.3192  2.2248  1.2554
   54DOPE   H2S 6863   6.081   5.715  10.765  0.2559 -1.7532 -0.4670
   54DOPE    C3 6864   5.989   5.305  10.536 -0.2850 -0.3840  0.1345
   54DOPE    HX 6865   6.060   5.346  10.461 -0.3813  0.2770  0.3955
   54DOPE    HY 6866   5.922   5.225  10.499 -0.8270 -0.2451  0.7928
   54DOPE   O31 6867   6.052   5.271  10.660 -0.2042 -0.2381 -0.0876
   54DOPE   C31 6868   5.998   5.184  10.742  0.2431  0.4064 -0.1364
   54DOPE   O32 6869   5.886   5.133  10.731 -0.1483  0.2900 -0.2477
   54DOPE   C32 6870   6.106   5.171  10.847 -0.4773  0.4003  0.1768
   54DOPE   H2X 6871   6.079   5.099  10.927 -1.8514  0.0646 -0.5615
   54DOPE   H2Y 6872   6.196   5.131  10.795  1.9901  2.8968  2.1800
   54DOPE   C23 6873   5.907   5.853  10.790  0.9182  0.5234  1.3390
   54DOPE   H3R 6874   5.862   5.812  10.883 -0.2112  0.0335  0.5945
   54DOPE   H3S 6875   5.829   5.885  10.718  0.0739 -0.6332  1.7216
   54DOPE   C24 6876   5.996   5.975  10.824  0.0468  0.0226 -0.4819
   54DOPE   H4R 6877   5.924   6.056  10.851  0.7532  0.1737  1.1121
   54DOPE   H4S 6878   6.049   6.016  10.736  0.8395  2.1545  0.8894
   54DOPE   C25 6879   6.090   5.945  10.942 -0.7024  0.1650  0.1298
   54DOPE   H5R 6880   6.171   5.873  10.920 -1.1975 -0.3043 -0.1856
   54DOPE   H5S 6881   6.024   5.896  11.017  0.6698 -3.9614 -1.0799
   54DOPE   C26 6882   6.145   6.075  11.004 -0.2023 -0.2146  0.6418
   54DOPE   H6R 6883   6.065   6.133  11.054  1.1166  1.9654  0.3266
   54DOPE   H6S 6884   6.176   6.139  10.919 -0.6908 -0.4071  0.3145
   54DOPE   C27 6885   6.274   6.066  11.086 -0.1632 -0.5389  0.9695
   54DOPE   H7R 6886   6.351   6.043  11.009 -2.3658  0.9881 -1.8896
   54DOPE   H7S 6887   6.262   5.982  11.158  0.0057 -0.3904  1.1710
   54DOPE   C28 6888   6.309   6.195  11.162 -0.6619  0.7325 -0.1508
   54DOPE   H8R 6889   6.396   6.195  11.231 -0.9296 -0.7832  0.2151
   54DOPE   H8S 6890   6.218   6.226  11.220  0.0953  1.5003  0.6719
   54DOPE   C29 6891   6.324   6.302  11.059 -0.2672 -0.3848 -0.3406
   54DOPE   H9R 6892   6.369   6.278  10.962  1.1317 -1.5011  0.5223
   54DOPE  C210 6893   6.287   6.433  11.069  1.0497  0.4637 -0.1606
   54DOPE  H10R 6894   6.321   6.496  10.985  0.6755 -1.2450 -1.6690
   54DOPE  C211 6895   6.219   6.493  11.189 -0.2684  0.0190 -0.2752
   54DOPE  H11R 6896   6.133   6.429  11.219 -1.8467  1.2247 -1.9592
   54DOPE  H11S 6897   6.172   6.589  11.158 -0.6751  0.4336  1.5254
   54DOPE  C212 6898   6.318   6.514  11.304 -0.3465  0.1756 -0.6491
   54DOPE  H12R 6899   6.384   6.592  11.260  0.2188  0.2586  0.3156
   54DOPE  H12S 6900   6.373   6.419  11.322 -0.0143  0.0416 -2.2513
   54DOPE  C213 6901   6.262   6.568  11.441 -0.3296 -1.3145  0.6202
   54DOPE  H13R 6902   6.170   6.511  11.466 -0.3256 -1.2745  0.7287
   54DOPE  H13S 6903   6.232   6.675  11.441 -1.0459 -1.5063  0.9727
   54DOPE  C214 6904   6.367   6.562  11.555  0.6529 -0.4452  0.0462
   54DOPE  H14R 6905   6.453   6.627  11.530 -0.1597  0.2794 -0.9877
   54DOPE  H14S 6906   6.398   6.456  11.568 -1.1061 -1.3682 -2.4364
   54DOPE  C215 6907   6.321   6.619  11.691  0.4025  0.2891  0.0127
   54DOPE  H15R 6908   6.245   6.553  11.739  0.6807 -0.0942 -0.0783
   54DOPE  H15S 6909   6.271   6.716  11.670  3.0339  1.3438 -1.9439
   54DOPE  C216 6910   6.441   6.652  11.787  0.5607 -0.8794 -0.0576
   54DOPE  H16R 6911   6.518   6.713  11.736  0.8449 -0.2777  1.0573
   54DOPE  H16S 6912   6.493   6.557  11.813 -5.0118 -3.7837  2.1087
   54DOPE  C217 6913   6.411   6.737  11.913 -0.8619  0.3129  0.2865
   54DOPE  H17R 6914   6.337   6.692  11.982 -1.1609  2.1636  1.2224
   54DOPE  H17S 6915   6.370   6.833  11.875  0.2576  0.4663 -0.6006
   54DOPE  C218 6916   6.543   6.752  11.988 -0.6812  0.5009  0.0519
   54DOPE  H18R 6917   6.624   6.792  11.923  2.2464  1.8868  4.1074
   54DOPE  H18S 6918   6.578   6.649  12.013  1.5245  1.0331 -0.5998
   54DOPE  H18T 6919   6.543   6.814  12.081 -0.4623  0.2515  0.2225
   54DOPE   C33 6920   6.135   5.301  10.915  0.5229 -0.8209  1.1655
   54DOPE   H3X 6921   6.041   5.358  10.926 -0.4088 -1.6597 -1.7702
   54DOPE   H3Y 6922   6.202   5.365  10.853 -0.1956  0.1693  1.3859
   54DOPE   C34 6923   6.189   5.288  11.058  0.5142 -0.3801  0.1367
   54DOPE   H4X 6924   6.208   5.390  11.097 -0.8648  0.0331 -0.2317
   54DOPE   H4Y 6925   6.116   5.248  11.131  3.1511 -0.5413  2.8803
   54DOPE   C35 6926   6.316   5.209  11.061  0.3194 -0.1386 -0.0507
   54DOPE   H5X 6927   6.388   5.284  11.024 -0.9283  0.2010 -1.9417
   54DOPE   H5Y 6928   6.316   5.117  10.998 -0.9105 -1.2831  1.5316
   54DOPE   C36 6929   6.345   5.166  11.210 -0.3292 -0.0412 -0.3127
   54DOPE   H6X 6930   6.277   5.086  11.245 -0.7399 -0.1962 -1.4243
   54DOPE   H6Y 6931   6.330   5.252  11.279 -0.8430 -1.4631  1.4151
   54DOPE   C37 6932   6.489   5.119  11.219  0.5483 -0.1821  0.3583
   54DOPE   H7X 6933   6.501   5.022  11.165 -0.1740  0.5652 -1.2321
   54DOPE   H7Y 6934   6.558   5.188  11.167  1.5616 -1.7006 -0.3990
   54DOPE   C38 6935   6.529   5.091  11.369 -0.6881 -0.5370  0.0898
   54DOPE   H8X 6936   6.637   5.065  11.375 -0.9370 -1.9935 -1.1611
   54DOPE   H8Y 6937   6.471   5.002  11.401 -2.2113  0.3030 -0.2244
   54DOPE   C39 6938   6.513   5.212  11.453 -0.5758 -0.3983  0.1049
   54DOPE   H9X 6939   6.548   5.304  11.404 -1.5110  1.1762  2.1982
   54DOPE  C310 6940   6.469   5.217  11.581  0.2427  0.3252 -0.4757
   54DOPE  H10X 6941   6.459   5.313  11.635  0.5501  0.3911 -0.5361
   54DOPE  C311 6942   6.429   5.093  11.666  0.0209 -0.6297  0.6995
   54DOPE  H11X 6943   6.331   5.103  11.716 -0.2004 -2.1618  0.6180
   54DOPE  H11Y 6944   6.422   5.007  11.595  0.1200  0.0317 -0.1210
   54DOPE  C312 6945   6.526   5.047  11.775  0.0523  0.0203  0.2121
   54DOPE  H12X 6946   6.629   5.063  11.735  0.2939 -0.5942  0.5680
   54DOPE  H12Y 6947   6.509   4.942  11.809  0.8993  0.0610  0.8015
   54DOPE  C313 6948   6.505   5.134  11.900 -0.3778 -0.0306 -0.8783
   54DOPE  H13X 6949   6.522   5.240  11.871  0.1148 -0.1289 -0.9637
   54DOPE  H13Y 6950   6.403   5.127  11.942 -0.5963  0.1295 -1.3877
   54DOPE  C314 6951   6.607   5.081  12.008 -0.1800 -0.2708 -0.1356
   54DOPE  H14X 6952   6.707   5.122  11.982  2.0271 -3.1559  2.9439
   54DOPE  H14Y 6953   6.602   4.970  12.004  1.0638 -0.3116 -1.2744
   54DOPE  C315 6954   6.587   5.121  12.157 -0.2146  0.1084 -0.7857
   54DOPE  H15X 6955   6.488   5.077  12.183  0.2604 -1.2675 -1.2118
   54DOPE  H15Y 6956   6.575   5.230  12.173 -2.0726 -0.1016 -0.5219
   54DOPE  C316 6957   6.702   5.059  12.249 -1.3208  0.8179 -0.0340
   54DOPE  H16X 6958   6.804   5.086  12.217 -1.3106  0.7154 -0.0891
   54DOPE  H16Y 6959   6.690   4.948  12.244 -3.3540  0.8953  1.5338
   54DOPE  C317 6960   6.695   5.117  12.392 -0.1265 -0.2548 -0.5853
   54DOPE  H17X 6961   6.716   5.226  12.389 -1.6641  0.2342  2.2305
   54DOPE  H17Y 6962   6.591   5.113  12.432  0.5325 -1.7753  1.1505
   54DOPE  C318 6963   6.792   5.057  12.496  0.1949 -0.2432  0.1180
   54DOPE  H18X 6964   6.808   5.121  12.585 -0.0561 -0.1441  0.0946
   54DOPE  H18Y 6965   6.752   4.955  12.517 -5.1905  1.2587 -1.1168
   54DOPE  H18Z 6966   6.886   5.039  12.441  0.0977  0.0920 -0.1633
   55DOPE     N 6967   0.281   0.953  10.086  0.3357  0.3034 -0.3474
   55DOPE   HN1 6968   0.234   0.917  10.172 -0.2369  1.3404 -0.2063
   55DOPE   HN2 6969   0.223   1.023  10.036  0.2319  0.0567 -0.5750
   55DOPE   HN3 6970   0.289   0.865  10.032 -1.6413 -0.7521  0.9512
   55DOPE   C12 6971   0.418   0.999  10.131  0.3803  0.3025  0.7650
   55DOPE  H12A 6972   0.397   1.072  10.212  0.0822  1.7101 -0.5461
   55DOPE  H12B 6973   0.457   1.059  10.046  5.8826 -0.0433  2.6483
   55DOPE   C11 6974   0.521   0.896  10.177  0.0975  0.1931  0.2693
   55DOPE  H11A 6975   0.500   0.857  10.278  2.0523 -0.8783  0.3131
   55DOPE  H11B 6976   0.621   0.945  10.184 -0.2320  0.7260  1.3505
   55DOPE     P 6977   0.634   0.760   9.987  1.0238  0.0874 -0.3116
   55DOPE   O13 6978   0.683   0.879   9.912  0.4228 -1.1057  0.3500
   55DOPE   O14 6979   0.600   0.640   9.900 -0.2944  0.3773  0.2135
   55DOPE   O11 6980   0.749   0.717  10.086 -0.1408 -0.2275 -0.5077
   55DOPE   O12 6981   0.518   0.784  10.087  0.6335  0.1324 -0.5329
   55DOPE    C1 6982   0.761   0.597  10.160  0.5422 -0.4150 -0.0947
   55DOPE    HA 6983   0.859   0.552  10.133  0.1248 -0.6335 -1.3029
   55DOPE    HB 6984   0.683   0.524  10.129 -0.7791  0.7350  0.4086
   55DOPE    C2 6985   0.747   0.616  10.313  0.3308 -0.6851 -0.7015
   55DOPE    HS 6986   0.637   0.627  10.329 -0.0353 -1.6600 -2.3793
   55DOPE   O21 6987   0.834   0.720  10.356  0.2384 -0.0053 -0.1824
   55DOPE   C21 6988   0.774   0.806  10.437  0.1362 -0.0081 -0.4687
   55DOPE   O22 6989   0.653   0.807  10.465  0.1477 -0.0040 -0.4824
   55DOPE   C22 6990   0.892   0.893  10.500 -0.2083 -0.0812  0.1247
   55DOPE   H2R 6991   0.975   0.922  10.432  0.3039  0.0429  0.7886
   55DOPE   H2S 6992   0.949   0.830  10.572  2.7306  1.3451 -0.8194
   55DOPE    C3 6993   0.787   0.486  10.385 -0.4063  0.1033 -0.5612
   55DOPE    HX 6994   0.893   0.457  10.366  0.3739  0.9334  2.0736
   55DOPE    HY 6995   0.732   0.399  10.345  0.0069  0.3631 -1.7552
   55DOPE   O31 6996   0.773   0.499  10.526  0.1156  0.4144  0.6184
   55DOPE   C31 6997   0.652   0.483  10.574  0.0110  0.2255 -0.7136
   55DOPE   O32 6998   0.550   0.464  10.512  0.0546  0.2197  0.7805
   55DOPE   C32 6999   0.666   0.505  10.725  0.3847 -0.1177 -0.1948
   55DOPE   H2X 7000   0.737   0.430  10.764 -0.7814 -1.3412 -0.3402
   55DOPE   H2Y 7001   0.712   0.601  10.757  0.5242 -0.8247  1.8836
   55DOPE   C23 7002   0.843   1.024  10.574 -0.8535  0.4401 -0.0599
   55DOPE   H3R 7003   0.755   1.075  10.531  0.6985  4.8606  1.4834
   55DOPE   H3S 7004   0.928   1.095  10.566 -0.7394  0.3452  0.2843
   55DOPE   C24 7005   0.806   0.988  10.720  0.4893  0.4903 -0.1453
   55DOPE   H4R 7006   0.878   0.907  10.745  1.1250  0.7764 -0.9780
   55DOPE   H4S 7007   0.702   0.952  10.708  0.0535  1.8192 -0.5338
   55DOPE   C25 7008   0.826   1.104  10.822  0.5461  0.2834 -0.0842
   55DOPE   H5R 7009   0.936   1.123  10.819  0.9803 -2.0562 -0.9556
   55DOPE   H5S 7010   0.809   1.058  10.921 -1.1102  1.6047  0.2862
   55DOPE   C26 7011   0.743   1.234  10.813  0.2943 -0.0547  0.1892
   55DOPE   H6R 7012   0.647   1.208  10.861  0.2387  1.0528  0.7016
   55DOPE   H6S 7013   0.722   1.251  10.705  0.1403  1.2499  0.4141
   55DOPE   C27 7014   0.792   1.360  10.881 -0.2978 -1.0210  0.1651
   55DOPE   H7R 7015   0.877   1.400  10.822 -1.7432  0.2047 -1.1767
   55DOPE   H7S 7016   0.813   1.334  10.987  0.2216 -0.0821  0.3012
   55DOPE   C28 7017   0.682   1.461  10.865  0.0446  0.0665 -0.8543
   55DOPE   H8R 7018   0.585   1.411  10.842 -0.1271  0.1985 -0.4235
   55DOPE   H8S 7019   0.711   1.527  10.781  2.1965 -0.0826 -0.2682
   55DOPE   C29 7020   0.665   1.570  10.974 -0.2440  0.9324 -0.7689
   55DOPE   H9R 7021   0.745   1.576  11.049 -0.5212 -1.6565 -0.1697
   55DOPE  C210 7022   0.566   1.657  10.990 -0.4226 -0.0782 -0.3982
   55DOPE  H10R 7023   0.575   1.740  11.061  1.2918  1.0342 -1.8495
   55DOPE  C211 7024   0.449   1.659  10.894  0.5668  0.7145 -0.5269
   55DOPE  H11R 7025   0.358   1.626  10.949 -0.8129  0.2623 -2.9562
   55DOPE  H11S 7026   0.456   1.595  10.804  0.8895 -0.7391  0.4846
   55DOPE  C212 7027   0.429   1.807  10.845 -0.6454  0.6436 -0.0114
   55DOPE  H12R 7028   0.387   1.878  10.919 -1.9508  0.9497 -1.0181
   55DOPE  H12S 7029   0.351   1.811  10.767 -0.7511 -1.2940 -0.0469
   55DOPE  C213 7030   0.557   1.875  10.786 -0.0820  0.5790 -0.0376
   55DOPE  H13R 7031   0.628   1.889  10.870 -0.4759 -1.8215  0.7558
   55DOPE  H13S 7032   0.521   1.971  10.741 -0.4342  0.1097 -0.7912
   55DOPE  C214 7033   0.630   1.801  10.667 -0.6597 -0.2449  0.2401
   55DOPE  H14R 7034   0.552   1.774  10.593 -0.6809  1.2633 -0.3297
   55DOPE  H14S 7035   0.670   1.701  10.694 -0.2255 -0.7166 -1.9586
   55DOPE  C215 7036   0.741   1.884  10.590  0.0372  0.3687 -0.0554
   55DOPE  H15R 7037   0.799   1.927  10.675  1.0102 -0.1811 -0.4230
   55DOPE  H15S 7038   0.702   1.975  10.540  2.1157  0.0747 -2.4283
   55DOPE  C216 7039   0.830   1.795  10.508  0.0288  0.1704 -0.0890
   55DOPE  H16R 7040   0.769   1.728  10.444  0.1259 -0.5533  0.5495
   55DOPE  H16S 7041   0.884   1.717  10.567 -1.4102 -1.7901 -1.2237
   55DOPE  C217 7042   0.929   1.884  10.425  0.1330  0.4399  0.2937
   55DOPE  H17R 7043   1.003   1.928  10.496  0.1129 -3.3784  3.0035
   55DOPE  H17S 7044   0.870   1.966  10.378  0.1521  0.3083  0.0402
   55DOPE  C218 7045   0.994   1.800  10.309  0.7270 -0.3745  0.3187
   55DOPE  H18R 7046   1.086   1.844  10.264  1.5821 -3.4109 -1.2167
   55DOPE  H18S 7047   0.922   1.776  10.228  0.9472  2.1145 -0.6890
   55DOPE  H18T 7048   1.015   1.698  10.349  0.8879  0.0132  1.2491
   55DOPE   C33 7049   0.543   0.482  10.810  1.3379 -0.3165 -0.2239
   55DOPE   H3X 7050   0.453   0.532  10.766  0.4118 -2.2308 -0.5995
   55DOPE   H3Y 7051   0.553   0.530  10.910 -1.1614 -0.6975  0.2755
   55DOPE   C34 7052   0.516   0.334  10.814  1.2505  0.0510 -0.3538
   55DOPE   H4X 7053   0.477   0.301  10.716  1.0496 -1.4900  0.2025
   55DOPE   H4Y 7054   0.614   0.287  10.837  2.2949  1.1715 -2.2676
   55DOPE   C35 7055   0.407   0.290  10.914  0.2334  0.5199 -0.3054
   55DOPE   H5X 7056   0.316   0.349  10.887  0.5161  0.3748 -1.6879
   55DOPE   H5Y 7057   0.447   0.320  11.013  0.9361  1.4936 -0.8655
   55DOPE   C36 7058   0.381   0.133  10.910  0.2968 -0.0136 -0.0813
   55DOPE   H6X 7059   0.473   0.073  10.893  0.6081  0.6142 -0.6667
   55DOPE   H6Y 7060   0.324   0.106  10.820 -0.5718  0.1140  0.4218
   55DOPE   C37 7061   0.303   0.086  11.038  0.0605 -0.5285 -0.7294
   55DOPE   H7X 7062   0.203   0.135  11.048  0.5898  0.4558 -0.1228
   55DOPE   H7Y 7063   0.286  -0.024  11.039  1.0112 -0.7013  1.4360
   55DOPE   C38 7064   0.373   0.131  11.170  0.1171  0.8400  0.1612
   55DOPE   H8X 7065   0.356   0.240  11.188  2.0503  0.9235  1.9188
   55DOPE   H8Y 7066   0.480   0.104  11.169  0.8529  3.3328 -2.8991
   55DOPE   C39 7067   0.310   0.061  11.289  0.6850  0.2918 -0.7899
   55DOPE   H9X 7068   0.219   0.112  11.324 -0.1312 -0.5213 -1.6516
   55DOPE  C310 7069   0.340  -0.054  11.347  0.5380 -0.8000  0.0101
   55DOPE  H10X 7070   0.283  -0.089  11.435 -1.8584  1.9003 -0.3010
   55DOPE  C311 7071   0.458  -0.128  11.307  0.2172  0.3883 -0.3371
   55DOPE  H11X 7072   0.435  -0.182  11.213  0.8854  0.2212 -0.4100
   55DOPE  H11Y 7073   0.545  -0.063  11.284  0.3288  0.7078  0.9311
   55DOPE  C312 7074   0.496  -0.218  11.426  0.5920 -0.4290  0.6288
   55DOPE  H12X 7075   0.406  -0.281  11.443 -0.5872  1.5750  2.2793
   55DOPE  H12Y 7076   0.507  -0.154  11.516 -1.4565  1.5187 -0.4045
   55DOPE  C313 7077   0.623  -0.293  11.400 -0.5975 -0.8652  0.4027
   55DOPE  H13X 7078   0.596  -0.354  11.312  0.4694  0.2385 -0.7221
   55DOPE  H13Y 7079   0.703  -0.221  11.372 -1.7073 -0.3504 -1.6541
   55DOPE  C314 7080   0.671  -0.384  11.511 -0.2000 -0.1280  0.0371
   55DOPE  H14X 7081   0.743  -0.453  11.463 -1.1714 -1.6386  0.6746
   55DOPE  H14Y 7082   0.595  -0.450  11.558 -2.2051  1.7180 -0.4703
   55DOPE  C315 7083   0.741  -0.316  11.625  0.0887 -0.2878  0.4043
   55DOPE  H15X 7084   0.668  -0.236  11.652 -0.4905 -0.0446 -1.7284
   55DOPE  H15Y 7085   0.825  -0.258  11.583 -1.4262  1.9511  0.2809
   55DOPE  C316 7086   0.765  -0.415  11.743 -0.4031 -0.5617 -0.1173
   55DOPE  H16X 7087   0.673  -0.474  11.761 -0.5252 -1.0949 -2.1785
   55DOPE  H16Y 7088   0.793  -0.351  11.829  0.4396 -0.0752 -0.7404
   55DOPE  C317 7089   0.879  -0.518  11.723 -0.0145 -0.2088 -0.4374
   55DOPE  H17X 7090   0.837  -0.588  11.648  1.8704 -2.7697  0.7652
   55DOPE  H17Y 7091   0.970  -0.467  11.684  0.4683 -0.4835  0.3015
   55DOPE  C318 7092   0.908  -0.590  11.856  0.6804 -0.4934  0.1833
   55DOPE  H18X 7093   0.920  -0.521  11.942 -2.1647 -0.6319  0.8000
   55DOPE  H18Y 7094   0.824  -0.655  11.891  0.0016  0.7283  0.9062
   55DOPE  H18Z 7095   1.001  -0.651  11.851  0.9989 -0.1988  1.9905
   56DOPE     N 7096   7.297   1.524   9.524  0.0773 -0.1487 -0.4855
   56DOPE   HN1 7097   7.246   1.599   9.473  0.4421  0.7954  0.4857
   56DOPE   HN2 7098   7.400   1.541   9.518  0.0534 -0.0496 -0.6210
   56DOPE   HN3 7099   7.269   1.430   9.490 -1.9389 -0.2384  1.2367
   56DOPE   C12 7100   7.271   1.529   9.674 -0.3627  0.2240 -0.3852
   56DOPE  H12A 7101   7.284   1.634   9.709  0.6367 -0.2378  0.6868
   56DOPE  H12B 7102   7.352   1.466   9.716  0.7405  1.2137 -0.9770
   56DOPE   C11 7103   7.126   1.489   9.715 -0.0162  0.0205 -0.1368
   56DOPE  H11A 7104   7.054   1.573   9.725  0.7361  0.6290  0.2074
   56DOPE  H11B 7105   7.136   1.457   9.821 -0.8694  0.4560  0.0853
   56DOPE     P 7106   7.023   1.246   9.680 -0.0150  0.5292 -0.0043
   56DOPE   O13 7107   7.065   1.147   9.575  0.6078 -0.1797  0.0431
   56DOPE   O14 7108   6.880   1.248   9.718 -0.6365  0.2514 -0.4578
   56DOPE   O11 7109   7.113   1.219   9.811  0.6887  0.0244  0.6832
   56DOPE   O12 7110   7.064   1.391   9.623 -0.1118 -0.0825  0.0695
   56DOPE    C1 7111   7.244   1.156   9.789 -0.0610  0.4997 -0.0178
   56DOPE    HA 7112   7.306   1.216   9.718 -0.2174  1.5191  0.6884
   56DOPE    HB 7113   7.239   1.053   9.746  1.2287  0.2879  0.2902
   56DOPE    C2 7114   7.327   1.152   9.913  0.4125 -0.0947 -0.5628
   56DOPE    HS 7115   7.287   1.073   9.981 -1.3568 -0.0205 -1.4579
   56DOPE   O21 7116   7.321   1.278   9.980 -0.0921 -0.4554 -0.1356
   56DOPE   C21 7117   7.242   1.298  10.088  0.2330 -0.2683 -0.2496
   56DOPE   O22 7118   7.181   1.220  10.155  0.1845 -0.1479  0.7815
   56DOPE   C22 7119   7.246   1.448  10.113  0.5310 -0.2078 -0.0605
   56DOPE   H2R 7120   7.169   1.488  10.043  0.1522  0.9691  0.9883
   56DOPE   H2S 7121   7.347   1.486  10.086  1.5232 -0.0276  3.4770
   56DOPE    C3 7122   7.481   1.120   9.880  0.0545 -0.5519 -0.3355
   56DOPE    HX 7123   7.528   1.197   9.815  0.8236  0.9889  1.9406
   56DOPE    HY 7124   7.484   1.022   9.827 -1.6442 -0.3401 -0.8970
   56DOPE   O31 7125   7.568   1.125   9.997 -0.3430 -0.0481  0.6246
   56DOPE   C31 7126   7.553   1.018  10.070 -0.6424 -0.2668 -0.2351
   56DOPE   O32 7127   7.481   0.919  10.047  0.0874  0.0880 -0.4362
   56DOPE   C32 7128   7.655   1.034  10.185  0.7372 -0.5100  0.2644
   56DOPE   H2X 7129   7.741   0.973  10.150 -1.1835 -2.9178 -0.4906
   56DOPE   H2Y 7130   7.691   1.138  10.203  0.9987 -0.5342 -0.1239
   56DOPE   C23 7131   7.225   1.494  10.258  0.4757  0.2368 -0.3505
   56DOPE   H3R 7132   7.136   1.446  10.305  0.5334 -0.5916 -1.0639
   56DOPE   H3S 7133   7.204   1.604  10.255 -0.2135  0.0957 -1.5564
   56DOPE   C24 7134   7.361   1.476  10.338  0.0734 -0.6413  0.3410
   56DOPE   H4R 7135   7.432   1.555  10.307  0.8587 -1.0032  1.1766
   56DOPE   H4S 7136   7.406   1.379  10.305 -0.2589 -1.1187  1.2561
   56DOPE   C25 7137   7.333   1.451  10.484  0.6421  0.5144 -0.2313
   56DOPE   H5R 7138   7.263   1.365  10.493  2.2078 -0.8168 -0.3298
   56DOPE   H5S 7139   7.277   1.540  10.521 -0.5681 -1.5187  3.2922
   56DOPE   C26 7140   7.452   1.416  10.582 -0.4826 -1.1696 -0.0500
   56DOPE   H6R 7141   7.509   1.325  10.554 -1.9296 -3.1514  2.8805
   56DOPE   H6S 7142   7.397   1.390  10.675 -1.8618  0.9745 -0.1767
   56DOPE   C27 7143   7.532   1.551  10.601  0.0496  0.4117 -0.1832
   56DOPE   H7R 7144   7.455   1.629  10.616 -1.3218 -0.8965 -0.2017
   56DOPE   H7S 7145   7.592   1.576  10.511  2.2729  0.6512  1.2865
   56DOPE   C28 7146   7.626   1.531  10.721  0.2100  0.7288  0.2595
   56DOPE   H8R 7147   7.665   1.427  10.714 -0.2601  0.4234  1.8864
   56DOPE   H8S 7148   7.571   1.540  10.817  1.4849  1.0435  0.9876
   56DOPE   C29 7149   7.751   1.616  10.720 -0.1026  0.2209 -0.0936
   56DOPE   H9R 7150   7.783   1.644  10.619  0.6276  4.0470  1.0598
   56DOPE  C210 7151   7.808   1.673  10.831 -0.3570 -0.0615  0.1277
   56DOPE  H10R 7152   7.897   1.735  10.811 -1.4053  0.6920 -2.7434
   56DOPE  C211 7153   7.772   1.680  10.970  0.4594  0.5322 -0.0683
   56DOPE  H11R 7154   7.662   1.670  10.985  0.7989 -1.6406  1.4835
   56DOPE  H11S 7155   7.789   1.779  11.017 -3.6075  2.7444 -2.6741
   56DOPE  C212 7156   7.840   1.558  11.043 -0.7195  0.4370 -0.5397
   56DOPE  H12R 7157   7.950   1.555  11.028 -0.1737  3.0940  1.8915
   56DOPE  H12S 7158   7.802   1.461  11.005  1.1015 -0.5061 -0.0406
   56DOPE  C213 7159   7.824   1.558  11.200 -0.0929 -0.3178  0.1526
   56DOPE  H13R 7160   7.725   1.597  11.231 -0.2973 -1.0266  0.4034
   56DOPE  H13S 7161   7.906   1.623  11.240  1.0688 -1.6000 -0.0701
   56DOPE  C214 7162   7.846   1.426  11.260  0.3559  0.1132  0.1362
   56DOPE  H14R 7163   7.756   1.362  11.252 -0.7373  1.5390  0.5511
   56DOPE  H14S 7164   7.853   1.444  11.370 -1.2100  1.0024  0.1240
   56DOPE  C215 7165   7.950   1.336  11.204 -0.3609  0.6410  0.0881
   56DOPE  H15R 7166   8.045   1.392  11.187  0.0471 -0.1989 -0.4799
   56DOPE  H15S 7167   7.915   1.292  11.109 -0.9389 -2.9703  1.8035
   56DOPE  C216 7168   7.981   1.218  11.303 -0.0281 -0.3992  0.9795
   56DOPE  H16R 7169   7.896   1.147  11.301  0.6759 -1.2787  1.8620
   56DOPE  H16S 7170   8.005   1.265  11.401 -0.7565  2.1792  0.0004
   56DOPE  C217 7171   8.106   1.139  11.267  0.5094  0.6501 -0.1255
   56DOPE  H17R 7172   8.199   1.199  11.277  1.8190 -0.6711 -3.1075
   56DOPE  H17S 7173   8.099   1.108  11.161 -1.4940 -1.5120  0.5600
   56DOPE  C218 7174   8.123   1.001  11.345  0.4787  0.2367 -0.1564
   56DOPE  H18R 7175   8.105   1.025  11.452 -0.8918  0.4124 -0.4158
   56DOPE  H18S 7176   8.228   0.967  11.335  1.5546  2.8743  1.2532
   56DOPE  H18T 7177   8.048   0.935  11.298  1.3498 -0.9587  0.0819
   56DOPE   C33 7178   7.586   0.975  10.315 -0.4193 -0.6116 -0.3937
   56DOPE   H3X 7179   7.664   0.917  10.368  0.8542  2.1884  1.0271
   56DOPE   H3Y 7180   7.503   0.903  10.301 -0.6387 -0.7310  1.2575
   56DOPE   C34 7181   7.523   1.075  10.412  0.2236 -0.6361 -0.1358
   56DOPE   H4X 7182   7.590   1.159  10.439 -1.5150  1.1359 -1.1005
   56DOPE   H4Y 7183   7.431   1.118  10.368 -1.0497 -0.7919  2.2331
   56DOPE   C35 7184   7.487   1.008  10.543 -0.4900  0.8958 -0.3364
   56DOPE   H5X 7185   7.461   0.905  10.510  0.2725  1.2404 -2.1202
   56DOPE   H5Y 7186   7.403   1.060  10.594  1.3072  2.5943  1.0137
   56DOPE   C36 7187   7.605   1.005  10.640  0.2989  0.1754  0.4072
   56DOPE   H6X 7188   7.614   1.107  10.683 -2.7989  0.8364 -0.2733
   56DOPE   H6Y 7189   7.701   0.982  10.591  0.4887 -0.5712  1.1056
   56DOPE   C37 7190   7.592   0.929  10.770  0.1534 -0.0419  0.0183
   56DOPE   H7X 7191   7.515   0.976  10.835 -0.4662  0.6749 -1.2005
   56DOPE   H7Y 7192   7.547   0.831  10.743 -0.2359  0.5796 -1.7233
   56DOPE   C38 7193   7.729   0.909  10.844  0.2697 -1.0681  0.8504
   56DOPE   H8X 7194   7.733   0.981  10.928 -0.8681 -1.6407  1.4197
   56DOPE   H8Y 7195   7.814   0.913  10.773 -1.0738 -3.6104 -1.0557
   56DOPE   C39 7196   7.740   0.767  10.888  0.2699  0.5567 -0.7615
   56DOPE   H9X 7197   7.814   0.702  10.840  0.4144  1.1253 -1.3283
   56DOPE  C310 7198   7.688   0.719  11.006 -0.1832 -0.1883 -0.5548
   56DOPE  H10X 7199   7.716   0.621  11.046  1.3030 -0.2352 -1.6567
   56DOPE  C311 7200   7.585   0.789  11.092  0.9351  0.5227 -0.2599
   56DOPE  H11X 7201   7.551   0.885  11.047 -1.3183 -0.1274 -0.0945
   56DOPE  H11Y 7202   7.491   0.731  11.106  1.1410 -0.1089 -1.3796
   56DOPE  C312 7203   7.644   0.833  11.227 -0.1040 -0.1976 -0.1928
   56DOPE  H12X 7204   7.735   0.896  11.213  0.4316 -0.7905  0.5214
   56DOPE  H12Y 7205   7.684   0.756  11.297 -0.3430 -0.1814 -0.0356
   56DOPE  C313 7206   7.550   0.929  11.297 -0.4876  0.7207 -0.1464
   56DOPE  H13X 7207   7.613   0.987  11.368  0.0565  1.0840 -0.9124
   56DOPE  H13Y 7208   7.497   0.995  11.224 -1.2114  1.9267  1.4059
   56DOPE  C314 7209   7.442   0.848  11.376 -0.0442  0.0673  0.3523
   56DOPE  H14X 7210   7.504   0.785  11.444  0.1742 -0.7680 -0.5941
   56DOPE  H14Y 7211   7.380   0.789  11.305  0.5708  0.9028 -0.9169
   56DOPE  C315 7212   7.344   0.935  11.456 -0.0976  0.3309 -0.9876
   56DOPE  H15X 7213   7.290   1.002  11.386 -0.8184 -0.1697 -0.9246
   56DOPE  H15Y 7214   7.408   0.992  11.526  0.3053  0.5775 -1.5479
   56DOPE  C316 7215   7.245   0.851  11.539  0.2130  0.1201  0.5190
   56DOPE  H16X 7216   7.183   0.794  11.467  2.6903 -2.8636  0.5062
   56DOPE  H16Y 7217   7.183   0.920  11.599 -1.0869  0.3545 -1.0246
   56DOPE  C317 7218   7.307   0.756  11.642 -0.0627  0.2106 -0.4056
   56DOPE  H17X 7219   7.222   0.702  11.689  1.5924 -2.2531 -0.0718
   56DOPE  H17Y 7220   7.366   0.678  11.589  0.2564  0.2453 -0.1007
   56DOPE  C318 7221   7.388   0.821  11.752  0.0222 -0.0964  0.7669
   56DOPE  H18X 7222   7.460   0.897  11.717  0.7769 -0.4748  1.4686
   56DOPE  H18Y 7223   7.326   0.878  11.824 -1.5776 -0.7448 -0.0321
   56DOPE  H18Z 7224   7.444   0.742  11.807  0.5615 -1.2609 -1.3532
   57DOPE     N 7225   5.026   3.261   9.420 -0.1125 -0.2949  0.1792
   57DOPE   HN1 7226   5.076   3.304   9.501  1.6520  0.3952 -1.2153
   57DOPE   HN2 7227   5.075   3.173   9.395 -0.0339  0.1432 -1.2743
   57DOPE   HN3 7228   5.031   3.322   9.336 -0.2489 -1.3041 -0.5804
   57DOPE   C12 7229   4.882   3.241   9.460  0.2753 -0.3653 -0.6451
   57DOPE  H12A 7230   4.820   3.208   9.373 -2.2896 -0.8813  1.2515
   57DOPE  H12B 7231   4.843   3.342   9.487 -1.0532 -1.1285  0.4204
   57DOPE   C11 7232   4.868   3.148   9.581  0.3181 -0.2768 -0.3575
   57DOPE  H11A 7233   4.759   3.135   9.599 -0.6700  3.4608 -2.5125
   57DOPE  H11B 7234   4.915   3.196   9.670  0.9582  0.2258 -0.9574
   57DOPE     P 7235   4.960   2.924   9.670 -0.2232 -0.0525 -0.0955
   57DOPE   O13 7236   5.100   2.876   9.646  0.2643  0.0655 -0.5717
   57DOPE   O14 7237   4.855   2.823   9.664 -0.1269 -0.0392 -0.1207
   57DOPE   O11 7238   4.944   3.006   9.805  0.3971  0.5070  0.2807
   57DOPE   O12 7239   4.926   3.024   9.557 -0.5366 -0.2312 -0.3416
   57DOPE    C1 7240   5.044   3.086   9.862 -0.6094  0.4975  0.2622
   57DOPE    HA 7241   4.991   3.169   9.914 -1.2970 -0.5503  1.2835
   57DOPE    HB 7242   5.121   3.125   9.791 -0.1428 -0.2577  0.3435
   57DOPE    C2 7243   5.125   3.011   9.978  0.7422 -0.1140  0.2806
   57DOPE    HS 7244   5.177   2.927   9.927 -0.0083  0.6521 -1.8551
   57DOPE   O21 7245   5.046   2.940  10.077  0.1537  0.4321  0.0385
   57DOPE   C21 7246   4.964   3.009  10.156 -0.7513 -0.3286  0.6193
   57DOPE   O22 7247   4.929   3.126  10.140 -0.3995  0.0948  0.0109
   57DOPE   C22 7248   4.898   2.922  10.269 -0.4198  0.7610 -0.0086
   57DOPE   H2R 7249   4.886   2.825  10.217 -3.2882  1.6955 -1.3088
   57DOPE   H2S 7250   4.798   2.969  10.282 -0.4670  0.5815  0.2726
   57DOPE    C3 7251   5.242   3.102  10.038  0.3665  0.2018 -0.0783
   57DOPE    HX 7252   5.293   3.149   9.952  2.3956  0.0143  0.9782
   57DOPE    HY 7253   5.303   3.025  10.090  0.3893  1.7122  2.2709
   57DOPE   O31 7254   5.199   3.198  10.133  0.1212  0.0541  0.6429
   57DOPE   C31 7255   5.155   3.315  10.095  0.0604 -0.3757 -0.3213
   57DOPE   O32 7256   5.152   3.353   9.982 -0.1141  0.0917 -0.6509
   57DOPE   C32 7257   5.105   3.401  10.209 -0.0133 -0.7084  0.5650
   57DOPE   H2X 7258   5.050   3.487  10.166  0.9790  0.7995  2.1499
   57DOPE   H2Y 7259   5.035   3.331  10.260  0.7425 -1.0848  1.1131
   57DOPE   C23 7260   4.978   2.905  10.401  0.1137 -0.1386  0.3039
   57DOPE   H3R 7261   4.990   3.008  10.442  1.6590  1.8189 -4.3893
   57DOPE   H3S 7262   5.082   2.874  10.379  0.8940  2.9450 -0.8648
   57DOPE   C24 7263   4.898   2.830  10.509  1.1312  1.2897  0.0745
   57DOPE   H4R 7264   4.872   2.726  10.480 -0.0263  1.0468  1.8227
   57DOPE   H4S 7265   4.801   2.884  10.515  0.3141  0.0373 -1.4280
   57DOPE   C25 7266   4.958   2.838  10.654  0.4392 -0.0333 -0.2207
   57DOPE   H5R 7267   4.970   2.946  10.677  0.3782 -0.2133  0.7156
   57DOPE   H5S 7268   5.063   2.801  10.654  0.5291  0.2171 -1.2309
   57DOPE   C26 7269   4.868   2.795  10.769  0.3408 -0.3306 -1.1237
   57DOPE   H6R 7270   4.926   2.768  10.859 -1.7329  0.2728  0.4791
   57DOPE   H6S 7271   4.822   2.698  10.739  0.1886 -0.4437 -0.5277
   57DOPE   C27 7272   4.745   2.890  10.793  0.5248  0.5191  0.0779
   57DOPE   H7R 7273   4.656   2.832  10.825  0.7099  0.6449  0.8262
   57DOPE   H7S 7274   4.710   2.946  10.704 -0.7129  0.9561  0.8208
   57DOPE   C28 7275   4.760   2.988  10.913 -0.2140 -0.5529  0.4817
   57DOPE   H8R 7276   4.850   3.052  10.902 -0.3205 -0.7014 -1.5513
   57DOPE   H8S 7277   4.785   2.927  11.002 -0.6500 -0.0953  0.9277
   57DOPE   C29 7278   4.642   3.081  10.937 -0.0394 -0.4739 -0.3813
   57DOPE   H9R 7279   4.659   3.188  10.916  0.6977 -0.3643  0.6751
   57DOPE  C210 7280   4.534   3.057  11.008  0.3575 -0.5308  0.1564
   57DOPE  H10R 7281   4.474   3.146  11.034  2.2454  1.3139 -1.4498
   57DOPE  C211 7282   4.500   2.936  11.083  0.4260  0.1519 -0.2979
   57DOPE  H11R 7283   4.556   2.847  11.048  0.4309 -0.5812  1.4642
   57DOPE  H11S 7284   4.389   2.925  11.079  0.0000  3.1248  0.5422
   57DOPE  C212 7285   4.527   2.960  11.238  0.8999 -0.4102  0.0192
   57DOPE  H12R 7286   4.636   2.980  11.240  0.8887 -0.0606 -1.5662
   57DOPE  H12S 7287   4.500   2.866  11.291  0.2772 -0.3381 -0.1695
   57DOPE  C213 7288   4.456   3.085  11.299 -0.4054  0.3146 -0.1039
   57DOPE  H13R 7289   4.457   3.169  11.226 -0.8163 -0.3915 -0.9289
   57DOPE  H13S 7290   4.514   3.116  11.388  0.0961 -0.6821 -0.0837
   57DOPE  C214 7291   4.312   3.046  11.329 -0.5881  0.5550  0.3887
   57DOPE  H14R 7292   4.299   2.957  11.394 -3.1147  1.1014  0.7363
   57DOPE  H14S 7293   4.267   3.029  11.229 -0.8133  1.2849  0.3590
   57DOPE  C215 7294   4.239   3.154  11.405  0.0627 -0.2097 -0.5517
   57DOPE  H15R 7295   4.227   3.238  11.333 -0.9503  0.2807  0.1592
   57DOPE  H15S 7296   4.302   3.195  11.487  0.4142 -0.2449 -0.8020
   57DOPE  C216 7297   4.098   3.118  11.462  0.0106 -0.0330 -0.4034
   57DOPE  H16R 7298   4.101   3.027  11.526  0.2262 -1.5293 -2.4323
   57DOPE  H16S 7299   4.034   3.084  11.378 -1.1897  2.0769 -0.4267
   57DOPE  C217 7300   4.019   3.237  11.530  0.4546  0.6157 -0.5901
   57DOPE  H17R 7301   4.011   3.328  11.468  0.8869 -0.4334 -2.2589
   57DOPE  H17S 7302   4.066   3.266  11.626  0.2018  0.3748 -0.3897
   57DOPE  C218 7303   3.879   3.187  11.571 -0.3202  0.5414  0.2582
   57DOPE  H18R 7304   3.805   3.166  11.491 -1.2631  0.2162  1.1866
   57DOPE  H18S 7305   3.832   3.266  11.633  1.7114  1.1067  1.1693
   57DOPE  H18T 7306   3.886   3.089  11.623 -1.3575  0.5261  0.3964
   57DOPE   C33 7307   5.205   3.456  10.310  0.1305 -0.5098  0.0759
   57DOPE   H3X 7308   5.286   3.381  10.325  1.4061  0.7829 -0.1737
   57DOPE   H3Y 7309   5.159   3.468  10.410 -2.1819  0.2472 -1.0105
   57DOPE   C34 7310   5.258   3.602  10.280  0.4074 -0.3373  0.1160
   57DOPE   H4X 7311   5.285   3.598  10.172 -0.3397 -3.0573 -0.0426
   57DOPE   H4Y 7312   5.173   3.672  10.290 -0.3892 -1.5064  2.1457
   57DOPE   C35 7313   5.367   3.652  10.376  0.5156 -0.2030 -0.5943
   57DOPE   H5X 7314   5.449   3.578  10.383 -0.3043 -1.1738 -0.9751
   57DOPE   H5Y 7315   5.330   3.645  10.481 -0.8255 -1.2794 -1.1061
   57DOPE   C36 7316   5.430   3.785  10.343  0.1933 -0.5960 -0.2603
   57DOPE   H6X 7317   5.350   3.861  10.331  1.3540  0.8304  0.6596
   57DOPE   H6Y 7318   5.479   3.785  10.243 -0.9745 -0.4796 -0.8508
   57DOPE   C37 7319   5.529   3.843  10.449 -0.6122  0.1884  0.7437
   57DOPE   H7X 7320   5.469   3.842  10.542  0.0155  0.0163  1.1543
   57DOPE   H7Y 7321   5.615   3.773  10.462 -0.8983 -0.8394 -2.1965
   57DOPE   C38 7322   5.583   3.989  10.426 -0.2517 -1.0841  0.3671
   57DOPE   H8X 7323   5.615   4.033  10.523 -0.2945 -1.4688  0.5559
   57DOPE   H8Y 7324   5.492   4.044  10.394  0.8969  0.0158 -1.1213
   57DOPE   C39 7325   5.693   3.990  10.323  0.5261  0.3227  0.1801
   57DOPE   H9X 7326   5.697   3.900  10.260 -0.6856  1.0851 -1.0451
   57DOPE  C310 7327   5.780   4.086  10.294  1.2350 -0.8752 -0.0974
   57DOPE  H10X 7328   5.849   4.070  10.210  2.8745  0.5329  0.9330
   57DOPE  C311 7329   5.798   4.215  10.367 -0.1290  0.1042 -0.0503
   57DOPE  H11X 7330   5.762   4.221  10.472  1.2057  2.1812  0.3599
   57DOPE  H11Y 7331   5.906   4.237  10.376  0.0938  0.4528 -2.6966
   57DOPE  C312 7332   5.743   4.336  10.292  0.7503  0.7113 -0.0078
   57DOPE  H12X 7333   5.638   4.307  10.271  0.4444  0.8863  1.2038
   57DOPE  H12Y 7334   5.791   4.356  10.194 -2.4321  1.3925 -1.5525
   57DOPE  C313 7335   5.744   4.468  10.370  0.4015  0.2499  0.6347
   57DOPE  H13X 7336   5.684   4.541  10.312  0.8064  0.3032  0.2818
   57DOPE  H13Y 7337   5.695   4.461  10.469 -0.1605  2.5018  0.5600
   57DOPE  C314 7338   5.888   4.521  10.387 -0.1733 -0.2378  0.0322
   57DOPE  H14X 7339   5.906   4.563  10.286 -0.9350  2.3735  0.9122
   57DOPE  H14Y 7340   5.962   4.438  10.399  1.0840  0.6710 -1.0952
   57DOPE  C315 7341   5.913   4.624  10.498 -0.5180  0.2454  0.0622
   57DOPE  H15X 7342   6.013   4.668  10.477 -0.1232 -0.9359 -0.6862
   57DOPE  H15Y 7343   5.933   4.570  10.594 -0.4459 -0.6682 -0.4542
   57DOPE  C316 7344   5.810   4.733  10.501 -0.3752  0.2290  0.1348
   57DOPE  H16X 7345   5.825   4.800  10.589  1.1229  1.4649 -0.9979
   57DOPE  H16Y 7346   5.711   4.688  10.521 -0.7047  1.7232  2.2562
   57DOPE  C317 7347   5.798   4.824  10.378 -0.3032 -0.4098 -0.6869
   57DOPE  H17X 7348   5.761   4.778  10.283 -1.5865  0.7284 -0.7646
   57DOPE  H17Y 7349   5.722   4.901  10.401  0.0636  0.0902 -1.1325
   57DOPE  C318 7350   5.931   4.909  10.360 -0.1565  0.3958  0.2142
   57DOPE  H18X 7351   5.943   4.971  10.452 -1.6961  1.2890 -0.1455
   57DOPE  H18Y 7352   6.025   4.852  10.341  1.2110  2.8278 -0.7670
   57DOPE  H18Z 7353   5.917   4.982  10.278  0.1182 -0.7950 -0.9317
   58DOPE     N 7354   6.081   0.001   9.643 -0.4735  0.4403 -0.0899
   58DOPE   HN1 7355   6.049  -0.034   9.551  1.7339  1.0027 -1.1426
   58DOPE   HN2 7356   6.006  -0.027   9.709  0.4460  0.6386  1.0824
   58DOPE   HN3 7357   6.086   0.104   9.635  0.1341  0.4991  0.8594
   58DOPE   C12 7358   6.214  -0.074   9.678  0.2188 -0.7963 -0.6044
   58DOPE  H12A 7359   6.249  -0.115   9.581  1.7053 -1.3800  0.1527
   58DOPE  H12B 7360   6.186  -0.145   9.758 -3.3157  2.4103  1.3577
   58DOPE   C11 7361   6.326   0.022   9.734  0.1698 -0.1389  0.3787
   58DOPE  H11A 7362   6.373   0.058   9.640 -1.6294  0.2260 -0.4237
   58DOPE  H11B 7363   6.400  -0.035   9.795 -0.1337 -0.4424  0.4633
   58DOPE     P 7364   6.392   0.233   9.860  0.2298 -0.1259  0.4183
   58DOPE   O13 7365   6.329   0.361   9.896  0.2206 -0.5142  0.3389
   58DOPE   O14 7366   6.509   0.241   9.765 -0.1890  0.3520 -0.1809
   58DOPE   O11 7367   6.443   0.172   9.992 -0.7668 -0.3950 -0.1780
   58DOPE   O12 7368   6.282   0.126   9.811  0.4816 -0.1119 -0.4470
   58DOPE    C1 7369   6.355   0.131  10.092  0.2702 -0.0543 -0.4769
   58DOPE    HA 7370   6.416   0.108  10.182 -4.3947 -2.7519  2.4451
   58DOPE    HB 7371   6.296   0.040  10.066  1.7499 -1.3712  0.5874
   58DOPE    C2 7372   6.260   0.243  10.150 -0.2124 -0.4969 -0.3398
   58DOPE    HS 7373   6.191   0.279  10.072 -1.8492  0.6430  1.5340
   58DOPE   O21 7374   6.354   0.353  10.186  0.3457  0.6106  0.0021
   58DOPE   C21 7375   6.306   0.472  10.187  0.2521 -0.3036 -0.2930
   58DOPE   O22 7376   6.192   0.504  10.152 -0.4254 -0.5144  0.3808
   58DOPE   C22 7377   6.422   0.563  10.245  0.4791  0.3244  0.2553
   58DOPE   H2R 7378   6.486   0.597  10.161  0.6587 -1.6650 -0.4705
   58DOPE   H2S 7379   6.483   0.498  10.311 -0.8110 -1.5509 -0.3316
   58DOPE    C3 7380   6.184   0.190  10.273  0.4098 -0.2558  1.0357
   58DOPE    HX 7381   6.105   0.114  10.256 -0.0978  0.4553  0.1219
   58DOPE    HY 7382   6.125   0.277  10.310 -0.5986  0.0811 -1.2161
   58DOPE   O31 7383   6.277   0.163  10.382 -0.8104  0.3471 -0.4280
   58DOPE   C31 7384   6.304   0.036  10.404 -0.2230  0.3222  0.7282
   58DOPE   O32 7385   6.247  -0.048  10.342  0.2288  0.5043 -1.2485
   58DOPE   C32 7386   6.396   0.012  10.520  0.5060  0.1606 -0.1754
   58DOPE   H2X 7387   6.467  -0.070  10.495  0.8883  0.2704  0.5053
   58DOPE   H2Y 7388   6.458   0.102  10.543  0.2360  0.2343  0.2847
   58DOPE   C23 7389   6.354   0.687  10.320 -0.2046 -0.3577 -0.3536
   58DOPE   H3R 7390   6.264   0.732  10.272  0.1361  0.6046 -0.1072
   58DOPE   H3S 7391   6.436   0.762  10.317  0.4371 -0.9775  0.9201
   58DOPE   C24 7392   6.306   0.663  10.467  0.4003  0.2273 -0.3014
   58DOPE   H4R 7393   6.301   0.764  10.513  0.0438  0.3971 -0.7120
   58DOPE   H4S 7394   6.384   0.604  10.520 -0.3766 -2.2459 -1.7524
   58DOPE   C25 7395   6.172   0.594  10.484 -0.4885 -0.1824  0.3529
   58DOPE   H5R 7396   6.177   0.496  10.432  0.9596  0.4806 -0.8385
   58DOPE   H5S 7397   6.097   0.657  10.432  0.2043 -0.3485 -0.8786
   58DOPE   C26 7398   6.137   0.579  10.636 -0.6557 -0.4449 -0.2274
   58DOPE   H6R 7399   6.140   0.670  10.700 -1.9791 -0.6701  0.1708
   58DOPE   H6S 7400   6.217   0.517  10.680  1.5712  0.8084 -2.2552
   58DOPE   C27 7401   6.001   0.515  10.656  0.7635  0.6582  0.7044
   58DOPE   H7R 7402   5.928   0.565  10.590 -0.5245 -0.8612  0.9192
   58DOPE   H7S 7403   5.965   0.523  10.761  0.8911 -0.1327  0.8131
   58DOPE   C28 7404   6.004   0.364  10.625 -0.0974 -0.1644  0.4365
   58DOPE   H8R 7405   6.094   0.319  10.673 -0.8831 -0.7410  1.4087
   58DOPE   H8S 7406   6.015   0.349  10.516  1.8144 -0.5956  0.6489
   58DOPE   C29 7407   5.895   0.270  10.659  0.1591  0.1376 -0.0235
   58DOPE   H9R 7408   5.842   0.222  10.576 -1.6349  1.2614  0.3931
   58DOPE  C210 7409   5.827   0.263  10.776  0.2847  0.8869 -0.6291
   58DOPE  H10R 7410   5.736   0.201  10.776  1.3234 -0.6870 -1.0627
   58DOPE  C211 7411   5.863   0.340  10.901 -0.4073  0.6853  0.3374
   58DOPE  H11R 7412   5.795   0.427  10.908 -0.8648  0.4101 -0.5144
   58DOPE  H11S 7413   5.969   0.373  10.902  0.0307 -0.5205 -1.2645
   58DOPE  C212 7414   5.841   0.254  11.029 -0.3104 -0.3991  0.2815
   58DOPE  H12R 7415   5.918   0.175  11.028  0.2161  0.1068 -1.0419
   58DOPE  H12S 7416   5.740   0.210  11.040 -1.2081  1.8065  1.6833
   58DOPE  C213 7417   5.861   0.342  11.157  0.2211  0.1321 -0.6534
   58DOPE  H13R 7418   5.770   0.402  11.175  1.2120  1.9035 -1.3210
   58DOPE  H13S 7419   5.944   0.410  11.130 -0.2132  0.1277 -2.1156
   58DOPE  C214 7420   5.893   0.253  11.284  0.1253  0.5360 -0.3637
   58DOPE  H14R 7421   5.990   0.201  11.268  0.3105  0.6269  0.4568
   58DOPE  H14S 7422   5.815   0.173  11.288  1.3585 -0.6381  0.8589
   58DOPE  C215 7423   5.925   0.339  11.411  0.8731  0.2775 -0.1990
   58DOPE  H15R 7424   5.829   0.395  11.421  1.5660  1.3546  0.6587
   58DOPE  H15S 7425   6.010   0.411  11.400  1.1719  0.3911  2.3204
   58DOPE  C216 7426   5.952   0.276  11.548 -0.4027 -0.3268  0.3167
   58DOPE  H16R 7427   5.992   0.352  11.618 -0.3022  0.7743 -0.9033
   58DOPE  H16S 7428   6.021   0.191  11.529 -2.2865 -2.0705  0.9085
   58DOPE  C217 7429   5.831   0.225  11.622 -0.2582  0.1861 -0.3645
   58DOPE  H17R 7430   5.870   0.139  11.680  3.6389  2.3096  0.4864
   58DOPE  H17S 7431   5.761   0.194  11.542 -1.7570 -0.1787  1.0316
   58DOPE  C218 7432   5.759   0.323  11.714 -0.1907 -0.4148  0.0592
   58DOPE  H18R 7433   5.733   0.420  11.668  0.0020  0.1067  1.0198
   58DOPE  H18S 7434   5.809   0.342  11.812  0.1724 -0.2018 -0.1633
   58DOPE  H18T 7435   5.664   0.271  11.739 -0.8435  0.3152 -0.8584
   58DOPE   C33 7436   6.321  -0.033  10.641  0.2711  0.5205  0.1410
   58DOPE   H3X 7437   6.394  -0.078  10.711  1.9850 -0.5017 -2.1574
   58DOPE   H3Y 7438   6.246  -0.112  10.619  0.0932  0.3150  1.4263
   58DOPE   C34 7439   6.251   0.081  10.709  0.2673  0.1721 -0.3262
   58DOPE   H4X 7440   6.311   0.174  10.701  1.6771 -0.6726  0.0839
   58DOPE   H4Y 7441   6.152   0.097  10.661  0.4723  0.0423 -0.7954
   58DOPE   C35 7442   6.218   0.056  10.855  0.1344 -0.6026  1.1176
   58DOPE   H5X 7443   6.185   0.155  10.892 -0.5067 -0.5549  0.4292
   58DOPE   H5Y 7444   6.318   0.042  10.902  1.0315 -1.0377 -0.8003
   58DOPE   C36 7445   6.126  -0.057  10.894  0.6011  0.2280  0.0165
   58DOPE   H6X 7446   6.163  -0.148  10.842  2.5388  0.3599  1.0578
   58DOPE   H6Y 7447   6.022  -0.037  10.862  0.7634 -0.3345 -0.9272
   58DOPE   C37 7448   6.126  -0.088  11.046  0.2503 -0.9188 -0.0838
   58DOPE   H7X 7449   6.136   0.009  11.099 -2.8323 -1.0299  0.8830
   58DOPE   H7Y 7450   6.024  -0.126  11.069 -1.0349  2.0733 -0.3722
   58DOPE   C38 7451   6.233  -0.176  11.099  0.6987  0.4400 -0.1824
   58DOPE   H8X 7452   6.334  -0.161  11.055  1.0478 -1.3427 -0.0406
   58DOPE   H8Y 7453   6.204  -0.277  11.062  0.6004  1.2860 -2.6335
   58DOPE   C39 7454   6.233  -0.186  11.254 -0.0272 -0.2962 -0.6509
   58DOPE   H9X 7455   6.141  -0.216  11.307  0.5305 -1.9657 -0.5709
   58DOPE  C310 7456   6.341  -0.152  11.330  0.2531  0.6124 -0.4202
   58DOPE  H10X 7457   6.336  -0.175  11.438  0.6915  1.2798 -0.2444
   58DOPE  C311 7458   6.477  -0.110  11.288 -0.0857  0.4876  0.4339
   58DOPE  H11X 7459   6.460  -0.035  11.208  2.5119  1.7546  0.9453
   58DOPE  H11Y 7460   6.536  -0.056  11.366  2.4913 -1.5039 -0.0071
   58DOPE  C312 7461   6.573  -0.227  11.253 -0.0449  0.4267  0.5622
   58DOPE  H12X 7462   6.515  -0.295  11.187 -2.6405  0.4057  2.6872
   58DOPE  H12Y 7463   6.597  -0.282  11.347  1.2222 -2.4074 -1.2628
   58DOPE  C313 7464   6.695  -0.184  11.173 -0.1257 -1.1827 -0.2744
   58DOPE  H13X 7465   6.656  -0.125  11.088  2.4460  0.5793 -0.3558
   58DOPE  H13Y 7466   6.761  -0.119  11.235  0.7781 -1.4019 -0.9803
   58DOPE  C314 7467   6.779  -0.307  11.125  0.2712 -0.3139 -0.2659
   58DOPE  H14X 7468   6.861  -0.282  11.054 -0.3645  1.8527 -0.2910
   58DOPE  H14Y 7469   6.709  -0.374  11.072  0.1758 -0.8835  0.5527
   58DOPE  C315 7470   6.839  -0.390  11.238 -0.4137 -0.7607  0.0689
   58DOPE  H15X 7471   6.763  -0.417  11.314  1.3819 -2.6323  1.2913
   58DOPE  H15Y 7472   6.919  -0.335  11.291 -0.0708 -0.8927 -0.3037
   58DOPE  C316 7473   6.893  -0.522  11.183 -0.9563 -0.4934  0.0647
   58DOPE  H16X 7474   6.982  -0.490  11.125 -1.2697 -0.3376 -0.3345
   58DOPE  H16Y 7475   6.815  -0.575  11.124 -2.9260  0.5431  1.6311
   58DOPE  C317 7476   6.939  -0.619  11.298 -0.3804  0.0063 -0.1104
   58DOPE  H17X 7477   7.006  -0.568  11.371 -0.1225 -1.4282  0.6931
   58DOPE  H17Y 7478   6.846  -0.653  11.348 -0.7987  0.0801 -0.8230
   58DOPE  C318 7479   7.009  -0.734  11.239 -0.3067  0.3930  0.1333
   58DOPE  H18X 7480   6.951  -0.786  11.160 -1.3370 -1.8197  2.2388
   58DOPE  H18Y 7481   7.099  -0.690  11.190 -0.1619  1.1182  1.0304
   58DOPE  H18Z 7482   7.035  -0.796  11.327  1.3239  1.0309  0.1443
   59DOPE     N 7483   5.787   2.776   9.623 -0.1799  0.2674 -0.2553
   59DOPE   HN1 7484   5.808   2.772   9.725 -0.4817 -1.7289 -0.2210
   59DOPE   HN2 7485   5.855   2.713   9.576 -0.1673  1.2336 -1.5701
   59DOPE   HN3 7486   5.814   2.873   9.598  1.2173 -0.5041 -1.9467
   59DOPE   C12 7487   5.643   2.750   9.596 -0.4183  0.0645 -0.0062
   59DOPE  H12A 7488   5.622   2.657   9.654  1.3546 -1.1086 -1.1416
   59DOPE  H12B 7489   5.624   2.732   9.488  1.6700 -2.5016 -0.0611
   59DOPE   C11 7490   5.550   2.857   9.660 -1.1609 -0.7148 -0.0577
   59DOPE  H11A 7491   5.443   2.842   9.633 -1.4836  1.5555 -0.3160
   59DOPE  H11B 7492   5.577   2.950   9.605 -1.7405 -0.6091 -0.1711
   59DOPE     P 7493   5.576   3.006   9.868 -0.0362  0.2171 -0.1799
   59DOPE   O13 7494   5.479   3.097   9.810  0.3872 -0.2245 -0.2056
   59DOPE   O14 7495   5.721   3.043   9.851  0.0559 -0.1074  0.3934
   59DOPE   O11 7496   5.551   2.992  10.018 -0.2383 -0.4480  0.0718
   59DOPE   O12 7497   5.566   2.858   9.806  0.1144  0.5194 -0.3607
   59DOPE    C1 7498   5.551   2.871  10.090  0.2569  0.3039 -0.9069
   59DOPE    HA 7499   5.588   2.784  10.031 -0.5737  0.4240 -1.6258
   59DOPE    HB 7500   5.455   2.832  10.130  1.3159 -1.3958  0.1259
   59DOPE    C2 7501   5.639   2.891  10.215 -0.6586  0.2861  0.9477
   59DOPE    HS 7502   5.630   2.793  10.266 -0.2048  0.7554  1.9341
   59DOPE   O21 7503   5.593   2.998  10.297 -0.5340 -0.6481  0.3476
   59DOPE   C21 7504   5.475   2.991  10.360  0.0560 -0.5181 -1.1977
   59DOPE   O22 7505   5.404   2.894  10.359  0.3653  0.5024  0.1992
   59DOPE   C22 7506   5.450   3.124  10.436 -0.0658  0.3123  0.5229
   59DOPE   H2R 7507   5.452   3.211  10.367  0.4367  1.4060  1.8744
   59DOPE   H2S 7508   5.531   3.151  10.507 -0.6112  1.2976  0.7858
   59DOPE    C3 7509   5.791   2.903  10.176 -0.1360  0.7182  0.1135
   59DOPE    HX 7510   5.807   2.980  10.098  2.2144  0.9855  0.7929
   59DOPE    HY 7511   5.824   2.808  10.128 -2.7906  0.2522 -0.9589
   59DOPE   O31 7512   5.875   2.929  10.291 -0.2085 -0.2016  0.1828
   59DOPE   C31 7513   5.893   3.058  10.318  0.0930  0.4617 -0.1494
   59DOPE   O32 7514   5.851   3.150  10.253  0.1680 -0.0075  0.9620
   59DOPE   C32 7515   5.992   3.072  10.430  0.3491  1.1072  0.3375
   59DOPE   H2X 7516   6.015   2.971  10.471  3.2982  2.0241  1.1927
   59DOPE   H2Y 7517   6.089   3.110  10.390  0.8974 -0.5196  0.0672
   59DOPE   C23 7518   5.314   3.122  10.500  0.5916  0.0430 -0.7923
   59DOPE   H3R 7519   5.237   3.084  10.429  0.7739  0.9001 -1.4753
   59DOPE   H3S 7520   5.293   3.228  10.528 -2.0209 -0.5006 -0.4032
   59DOPE   C24 7521   5.316   3.044  10.633 -0.3857  0.3469  0.6292
   59DOPE   H4R 7522   5.419   3.047  10.673  1.1460 -2.8156 -2.5396
   59DOPE   H4S 7523   5.283   2.940  10.611  0.0039  0.1871  0.8031
   59DOPE   C25 7524   5.212   3.102  10.738  0.4615  0.1556  0.2239
   59DOPE   H5R 7525   5.116   3.122  10.685  0.9902  1.9324 -0.1339
   59DOPE   H5S 7526   5.250   3.202  10.769 -1.2272  1.7357 -2.3571
   59DOPE   C26 7527   5.196   3.015  10.861  0.6970  0.3194 -0.1514
   59DOPE   H6R 7528   5.227   2.913  10.828  0.5900  0.3473 -0.3422
   59DOPE   H6S 7529   5.089   3.023  10.889  0.7237  0.8164 -0.1953
   59DOPE   C27 7530   5.283   3.054  10.987 -0.4758  0.9393 -0.3708
   59DOPE   H7R 7531   5.392   3.041  10.969 -0.1536 -2.1565  2.6661
   59DOPE   H7S 7532   5.275   2.969  11.058 -0.1273  1.3980  0.2270
   59DOPE   C28 7533   5.262   3.195  11.046  0.6187 -0.0650 -0.2543
   59DOPE   H8R 7534   5.287   3.263  10.962  2.9911 -1.7320 -1.0190
   59DOPE   H8S 7535   5.336   3.212  11.128 -1.2947 -2.1418  2.0694
   59DOPE   C29 7536   5.124   3.211  11.108 -0.3375  0.2241  0.1765
   59DOPE   H9R 7537   5.081   3.123  11.159 -1.0821  1.1178  1.1413
   59DOPE  C210 7538   5.038   3.318  11.098  0.1207 -0.1302 -0.3006
   59DOPE  H10R 7539   4.947   3.321  11.159  0.6475 -1.9770  0.6476
   59DOPE  C211 7540   5.062   3.447  11.029  0.4194  0.8445 -0.2096
   59DOPE  H11R 7541   5.169   3.449  10.999  0.5042 -0.8313 -0.1079
   59DOPE  H11S 7542   5.035   3.525  11.103 -1.4923  0.2995 -0.2936
   59DOPE  C212 7543   4.987   3.468  10.896 -0.8590 -0.2485 -0.0530
   59DOPE  H12R 7544   5.005   3.574  10.867  1.7314 -0.2368  1.3278
   59DOPE  H12S 7545   4.880   3.445  10.915 -1.0565 -1.7508 -2.5184
   59DOPE  C213 7546   5.020   3.379  10.777  0.7673  0.0743 -0.0155
   59DOPE  H13R 7547   5.014   3.272  10.807  1.8857  0.7009  2.7399
   59DOPE  H13S 7548   5.120   3.410  10.740  0.7948  0.1210  0.0982
   59DOPE  C214 7549   4.919   3.395  10.657 -0.6111  0.1170 -0.8877
   59DOPE  H14R 7550   4.950   3.479  10.591  1.5252 -0.6138 -0.8620
   59DOPE  H14S 7551   4.817   3.410  10.699  0.2758  1.5363  0.8634
   59DOPE  C215 7552   4.913   3.284  10.549  0.5250  0.0615 -0.0118
   59DOPE  H15R 7553   4.919   3.183  10.594 -0.5265 -0.1069 -0.2284
   59DOPE  H15S 7554   5.007   3.301  10.493 -0.4858  3.2920 -0.9305
   59DOPE  C216 7555   4.797   3.297  10.450  0.0893 -0.2727 -0.0949
   59DOPE  H16R 7556   4.805   3.211  10.380  1.9709 -2.7675  2.8904
   59DOPE  H16S 7557   4.797   3.395  10.399 -1.8586 -0.1608  0.0229
   59DOPE  C217 7558   4.655   3.293  10.518  0.3666 -0.3408 -0.6510
   59DOPE  H17R 7559   4.639   3.383  10.581  2.0518 -0.1795 -0.4140
   59DOPE  H17S 7560   4.656   3.199  10.577 -0.4161 -0.7309 -1.2404
   59DOPE  C218 7561   4.547   3.273  10.412 -0.6232 -0.0302  0.3162
   59DOPE  H18R 7562   4.444   3.274  10.452 -1.7370  0.2368 -2.3272
   59DOPE  H18S 7563   4.569   3.184  10.348 -1.2403  0.6623 -0.8929
   59DOPE  H18T 7564   4.556   3.361  10.344  1.4827  0.4183  1.0814
   59DOPE   C33 7565   5.952   3.180  10.528 -0.2300 -0.1389 -0.2365
   59DOPE   H3X 7566   5.850   3.147  10.558  0.4950 -2.5779 -0.1962
   59DOPE   H3Y 7567   5.948   3.273  10.468 -1.9418 -0.8652 -1.3147
   59DOPE   C34 7568   6.041   3.203  10.650  0.2151  0.7052  0.2021
   59DOPE   H4X 7569   6.005   3.128  10.723  0.1020  0.6276  0.0668
   59DOPE   H4Y 7570   6.150   3.198  10.629  0.8993  0.4774  3.2836
   59DOPE   C35 7571   6.016   3.345  10.703  0.1327  0.0537 -0.4995
   59DOPE   H5X 7572   6.046   3.418  10.624  0.0160 -0.2858 -0.8636
   59DOPE   H5Y 7573   6.076   3.350  10.796  1.7594  1.2226 -1.5381
   59DOPE   C36 7574   5.871   3.388  10.738 -0.4514  0.2715  0.2933
   59DOPE   H6X 7575   5.813   3.391  10.643 -1.3306  1.3088  0.8455
   59DOPE   H6Y 7576   5.869   3.491  10.779  1.2869  0.0982  0.9030
   59DOPE   C37 7577   5.812   3.304  10.850 -0.1056 -0.2896 -0.6444
   59DOPE   H7X 7578   5.799   3.201  10.810 -1.6458 -0.5314  0.3974
   59DOPE   H7Y 7579   5.874   3.297  10.942 -0.7657 -1.0010 -0.2348
   59DOPE   C38 7580   5.669   3.355  10.882  0.4709  0.4454  0.0896
   59DOPE   H8X 7581   5.690   3.460  10.911 -1.6134  1.5967 -2.2600
   59DOPE   H8Y 7582   5.637   3.296  10.971 -1.2805 -0.0383 -0.8266
   59DOPE   C39 7583   5.567   3.353  10.771 -0.5223 -0.4928  0.0928
   59DOPE   H9X 7584   5.561   3.256  10.719 -0.6114 -0.1659 -0.5237
   59DOPE  C310 7585   5.486   3.452  10.738  0.2423  0.0832 -0.3644
   59DOPE  H10X 7586   5.412   3.428  10.660 -0.0348 -1.6473  0.3962
   59DOPE  C311 7587   5.479   3.593  10.789 -0.7107  0.7912 -0.3205
   59DOPE  H11X 7588   5.573   3.621  10.842 -0.9004 -0.9574  1.0425
   59DOPE  H11Y 7589   5.468   3.663  10.704  2.2112  0.6507 -0.9162
   59DOPE  C312 7590   5.363   3.610  10.884 -0.4994  0.5793  0.9461
   59DOPE  H12X 7591   5.383   3.547  10.973  0.3360  0.5565  0.7538
   59DOPE  H12Y 7592   5.269   3.575  10.835 -1.2242  1.2219  1.8605
   59DOPE  C313 7593   5.345   3.757  10.921 -0.0948  0.2796 -0.2664
   59DOPE  H13X 7594   5.257   3.763  10.989  0.9025 -0.7790  1.1794
   59DOPE  H13Y 7595   5.430   3.796  10.980  0.6939  0.0037 -1.2077
   59DOPE  C314 7596   5.316   3.855  10.810 -0.2262 -0.2332 -0.5455
   59DOPE  H14X 7597   5.209   3.886  10.817  0.2897  1.3850  0.9015
   59DOPE  H14Y 7598   5.334   3.818  10.707  1.8527  0.0682 -0.3195
   59DOPE  C315 7599   5.393   3.977  10.850  0.0593 -1.2024 -0.7242
   59DOPE  H15X 7600   5.501   3.955  10.868  0.8274  3.2144  1.5894
   59DOPE  H15Y 7601   5.359   4.010  10.950  1.2475 -1.0067 -0.3630
   59DOPE  C316 7602   5.388   4.090  10.744  0.3592 -0.0822 -0.0866
   59DOPE  H16X 7603   5.292   4.145  10.751  0.8772  0.7005  0.9952
   59DOPE  H16Y 7604   5.398   4.054  10.639  0.1027 -0.5439  0.0433
   59DOPE  C317 7605   5.494   4.198  10.770  0.5151  0.3742  0.2149
   59DOPE  H17X 7606   5.476   4.251  10.866  0.0341  0.7123 -0.0610
   59DOPE  H17Y 7607   5.589   4.141  10.781  0.6223  0.5501  0.1998
   59DOPE  C318 7608   5.505   4.301  10.659  0.3454 -0.1748 -0.0061
   59DOPE  H18X 7609   5.434   4.381  10.689  0.3503 -0.1652 -0.0213
   59DOPE  H18Y 7610   5.610   4.339  10.648  0.7077 -0.7361  1.3303
   59DOPE  H18Z 7611   5.465   4.264  10.562  0.2985  0.7273 -0.3426
   60DOPE     N 7612   6.371   1.419   9.521  0.4255 -0.0353  0.2346
   60DOPE   HN1 7613   6.437   1.364   9.461  2.4179 -0.2088  2.4179
   60DOPE   HN2 7614   6.412   1.416   9.616 -0.0451  1.2551  0.4868
   60DOPE   HN3 7615   6.278   1.372   9.517  0.4266  0.0435 -2.1196
   60DOPE   C12 7616   6.353   1.560   9.487  0.6406 -0.0474 -0.1819
   60DOPE  H12A 7617   6.437   1.602   9.427  0.2930  1.5560  0.3954
   60DOPE  H12B 7618   6.337   1.616   9.582  0.0026 -0.7983  0.1718
   60DOPE   C11 7619   6.224   1.566   9.397 -0.2153  0.1052  0.3570
   60DOPE  H11A 7620   6.227   1.511   9.301 -0.1817  0.1099  0.3556
   60DOPE  H11B 7621   6.212   1.673   9.367 -0.3367  0.1239  0.4722
   60DOPE     P 7622   5.967   1.544   9.413 -0.0606 -0.2060  0.0981
   60DOPE   O13 7623   5.919   1.408   9.369 -0.4169 -0.0595 -0.0796
   60DOPE   O14 7624   5.968   1.654   9.311 -0.3187  0.2697 -0.2768
   60DOPE   O11 7625   5.880   1.591   9.542 -0.4924  0.1553  0.1060
   60DOPE   O12 7626   6.105   1.524   9.473 -0.0036 -0.2043 -0.1063
   60DOPE    C1 7627   5.931   1.688   9.634 -0.2343 -0.6442  0.1313
   60DOPE    HA 7628   5.849   1.753   9.671  0.0089 -0.8517  1.0549
   60DOPE    HB 7629   6.013   1.750   9.589  0.5126 -0.2668  1.9427
   60DOPE    C2 7630   6.001   1.619   9.753 -0.4419 -0.1424  0.6405
   60DOPE    HS 7631   6.077   1.549   9.712  1.1381  0.6690  2.0702
   60DOPE   O21 7632   5.914   1.555   9.841  0.3667 -0.0480 -0.2830
   60DOPE   C21 7633   5.958   1.447   9.904  0.0776 -0.4613  0.2980
   60DOPE   O22 7634   6.070   1.399   9.886 -0.0349 -0.2827 -0.6489
   60DOPE   C22 7635   5.839   1.410   9.993  0.3324 -0.0552  0.3164
   60DOPE   H2R 7636   5.794   1.319   9.949  0.7901  0.3408 -1.0113
   60DOPE   H2S 7637   5.759   1.487   9.996 -0.3425 -0.6786 -0.8244
   60DOPE    C3 7638   6.095   1.720   9.828  0.0577 -0.4472 -0.5428
   60DOPE    HX 7639   6.033   1.807   9.860  0.6251  0.0487 -0.7867
   60DOPE    HY 7640   6.168   1.753   9.752  0.9264 -0.0864  0.4304
   60DOPE   O31 7641   6.154   1.660   9.948  0.2623 -0.8046 -0.0203
   60DOPE   C31 7642   6.284   1.639   9.941 -0.6540 -0.4198 -0.3689
   60DOPE   O32 7643   6.367   1.684   9.860 -0.0153  0.7379  0.1121
   60DOPE   C32 7644   6.327   1.546  10.048 -0.0352 -0.3461 -0.3214
   60DOPE   H2X 7645   6.244   1.497  10.103 -0.5292 -0.0430 -0.7748
   60DOPE   H2Y 7646   6.391   1.469  10.001  1.4290 -0.3487  1.5642
   60DOPE   C23 7647   5.887   1.362  10.140  0.0634  0.9800  1.2483
   60DOPE   H3R 7648   5.980   1.301  10.145 -1.8774 -2.3371  0.1165
   60DOPE   H3S 7649   5.804   1.291  10.161  0.3104 -1.0422 -3.2240
   60DOPE   C24 7650   5.880   1.468  10.250 -1.2311  0.3647 -0.2510
   60DOPE   H4R 7651   5.878   1.421  10.350 -0.5882  0.2748 -0.2755
   60DOPE   H4S 7652   5.786   1.525  10.231 -0.6260  0.8026 -2.1876
   60DOPE   C25 7653   5.998   1.564  10.259  0.1747  0.4105 -0.2358
   60DOPE   H5R 7654   6.014   1.616  10.162  2.3559  1.6910  0.7404
   60DOPE   H5S 7655   6.100   1.519  10.263  0.8175  1.8680  0.2241
   60DOPE   C26 7656   6.002   1.657  10.376 -0.5846 -0.4244  0.2519
   60DOPE   H6R 7657   5.894   1.683  10.391  0.1140  1.2060  3.4329
   60DOPE   H6S 7658   6.049   1.752  10.343 -3.1457  1.4000  1.4274
   60DOPE   C27 7659   6.063   1.602  10.499 -0.2630  0.0599 -0.2333
   60DOPE   H7R 7660   6.167   1.566  10.491  0.9793  2.9299  1.4652
   60DOPE   H7S 7661   6.008   1.510  10.529 -0.0210 -0.2243 -0.6525
   60DOPE   C28 7662   6.071   1.699  10.622  0.1314 -0.2231  0.4560
   60DOPE   H8R 7663   6.122   1.795  10.597  0.2247 -1.1980 -3.8520
   60DOPE   H8S 7664   6.127   1.651  10.705  0.0493 -0.2271  0.5095
   60DOPE   C29 7665   5.938   1.741  10.674  0.2607  0.1952 -0.4793
   60DOPE   H9R 7666   5.885   1.817  10.614 -0.6866 -1.2575 -1.5587
   60DOPE  C210 7667   5.888   1.688  10.787 -0.5320  0.1834 -0.7887
   60DOPE  H10R 7668   5.800   1.740  10.828  0.7360  1.5167  0.3618
   60DOPE  C211 7669   5.935   1.571  10.869  0.4471  0.0691  0.2093
   60DOPE  H11R 7670   5.950   1.605  10.973 -0.9064 -0.5295  0.6270
   60DOPE  H11S 7671   6.031   1.535  10.825  0.6809  2.1466 -1.0966
   60DOPE  C212 7672   5.835   1.447  10.866 -0.3535 -0.1300  0.1120
   60DOPE  H12R 7673   5.873   1.380  10.946 -0.4518  0.5978  0.7857
   60DOPE  H12S 7674   5.867   1.393  10.775  1.3392 -0.3317  0.7941
   60DOPE  C213 7675   5.686   1.455  10.895 -0.3277 -0.1851 -0.2844
   60DOPE  H13R 7676   5.649   1.356  10.861 -0.9374 -0.6605  1.6292
   60DOPE  H13S 7677   5.657   1.547  10.840  2.7565  0.5966 -0.7383
   60DOPE  C214 7678   5.660   1.475  11.039 -0.3301 -0.4024  0.6059
   60DOPE  H14R 7679   5.702   1.574  11.067  1.0736  0.5883 -4.1383
   60DOPE  H14S 7680   5.713   1.399  11.100  1.6297 -0.6693 -1.3019
   60DOPE  C215 7681   5.509   1.482  11.076 -0.2213  0.0421  0.2723
   60DOPE  H15R 7682   5.516   1.486  11.187  2.4827 -2.9296  0.3440
   60DOPE  H15S 7683   5.468   1.381  11.052  2.6665 -0.8879 -1.1932
   60DOPE  C216 7684   5.444   1.606  11.020  0.7033  0.4760 -0.2984
   60DOPE  H16R 7685   5.454   1.613  10.909 -1.1954  0.3354 -0.5129
   60DOPE  H16S 7686   5.488   1.701  11.057 -1.3743  1.2785  0.2923
   60DOPE  C217 7687   5.296   1.593  11.057 -0.1477  0.9299  0.4146
   60DOPE  H17R 7688   5.292   1.577  11.167  0.5552 -0.8786  0.2120
   60DOPE  H17S 7689   5.262   1.497  11.015  0.0458  1.7840 -1.8305
   60DOPE  C218 7690   5.215   1.717  11.004 -0.1008  0.8469  0.6668
   60DOPE  H18R 7691   5.216   1.717  10.893  1.5435 -0.4036  0.6310
   60DOPE  H18S 7692   5.260   1.812  11.041  0.0369  0.3466  1.8090
   60DOPE  H18T 7693   5.117   1.685  11.045 -0.5977  2.5406  0.8896
   60DOPE   C33 7694   6.431   1.618  10.137  0.5387  0.1538 -0.3339
   60DOPE   H3X 7695   6.502   1.667  10.066 -0.6802  0.3538 -1.4461
   60DOPE   H3Y 7696   6.496   1.550  10.196  1.9940  1.4432 -0.3644
   60DOPE   C34 7697   6.367   1.698  10.243 -1.1772 -0.2315  0.5150
   60DOPE   H4X 7698   6.302   1.776  10.199  2.2961  3.1229  0.8239
   60DOPE   H4Y 7699   6.307   1.628  10.305 -1.1019 -0.8857 -0.1437
   60DOPE   C35 7700   6.477   1.757  10.335  0.2250  0.2287  0.1064
   60DOPE   H5X 7701   6.520   1.842  10.277 -1.4271  1.7217  0.9719
   60DOPE   H5Y 7702   6.559   1.692  10.371 -0.8339 -1.9257 -1.1690
   60DOPE   C36 7703   6.415   1.823  10.458 -0.5108 -0.3366 -0.0718
   60DOPE   H6X 7704   6.341   1.756  10.505  0.0583 -1.4713 -0.7595
   60DOPE   H6Y 7705   6.366   1.919  10.429 -0.9331 -0.1146  1.3337
   60DOPE   C37 7706   6.524   1.863  10.564  0.0086 -0.1280  0.1434
   60DOPE   H7X 7707   6.576   1.768  10.588 -0.3124 -0.2279  0.4615
   60DOPE   H7Y 7708   6.595   1.931  10.514 -1.7241  3.3223  2.0052
   60DOPE   C38 7709   6.474   1.932  10.683 -0.5627 -0.1483 -0.5984
   60DOPE   H8X 7710   6.441   2.034  10.655 -0.4295  0.2988  0.7941
   60DOPE   H8Y 7711   6.562   1.950  10.749 -1.7191  0.0500  0.9489
   60DOPE   C39 7712   6.363   1.867  10.749  0.1369 -0.1728 -0.2885
   60DOPE   H9X 7713   6.272   1.928  10.757  0.0420 -0.3208 -0.2423
   60DOPE  C310 7714   6.363   1.747  10.803  0.7858 -0.1421 -0.1244
   60DOPE  H10X 7715   6.277   1.717  10.864  0.2012  0.1001 -0.8152
   60DOPE  C311 7716   6.483   1.659  10.804 -0.3539  0.3703  0.8845
   60DOPE  H11X 7717   6.576   1.710  10.771 -0.0386 -0.8589 -0.2225
   60DOPE  H11Y 7718   6.502   1.626  10.909  0.4576 -0.5218  0.4694
   60DOPE  C312 7719   6.448   1.534  10.718  0.2291 -0.4589 -0.7757
   60DOPE  H12X 7720   6.421   1.570  10.616 -1.2000  0.9319  0.0458
   60DOPE  H12Y 7721   6.362   1.485  10.770 -0.6505 -0.8721 -2.5281
   60DOPE  C313 7722   6.561   1.439  10.704  0.3856 -0.1087 -0.6548
   60DOPE  H13X 7723   6.643   1.454  10.778  0.0698  2.3249 -0.7115
   60DOPE  H13Y 7724   6.525   1.334  10.703  3.7275 -1.4035 -0.0806
   60DOPE  C314 7725   6.622   1.457  10.559 -0.0838  0.9207 -0.5000
   60DOPE  H14X 7726   6.653   1.559  10.529  1.2652  0.2212 -1.6076
   60DOPE  H14Y 7727   6.536   1.427  10.497 -0.1331 -1.4325  0.5941
   60DOPE  C315 7728   6.738   1.360  10.526  0.4492  0.1267 -0.5385
   60DOPE  H15X 7729   6.795   1.394  10.437  0.6516 -0.6972 -0.7292
   60DOPE  H15Y 7730   6.694   1.260  10.507 -0.0169 -0.2783  2.1833
   60DOPE  C316 7731   6.839   1.330  10.640 -0.5135 -0.4141  0.1934
   60DOPE  H16X 7732   6.802   1.246  10.704  0.4045 -0.7981  0.2281
   60DOPE  H16Y 7733   6.868   1.417  10.703  0.1844 -0.3345 -0.2342
   60DOPE  C317 7734   6.969   1.285  10.585 -0.2597 -0.5030  0.9951
   60DOPE  H17X 7735   7.012   1.358  10.514 -0.2667 -1.3438  0.1001
   60DOPE  H17Y 7736   7.043   1.279  10.667  0.3595  1.1057  0.5820
   60DOPE  C318 7737   6.974   1.148  10.523  0.4953 -0.2674  1.0396
   60DOPE  H18X 7738   7.080   1.123  10.502  0.4251  1.5054 -2.0770
   60DOPE  H18Y 7739   6.922   1.074  10.588  1.1010 -0.5390  1.2202
   60DOPE  H18Z 7740   6.915   1.142  10.429 -1.1935  1.4391  1.9314
   6123SM     N 7741   1.684   6.008  13.665  0.1936 -0.8500  0.3743
   6123SM   C15 7742   1.815   6.052  13.727  0.1020 -0.0867 -0.1312
   6123SM  H15A 7743   1.899   5.989  13.699  0.9667  1.2384 -0.6410
   6123SM  H15B 7744   1.810   6.036  13.834 -2.0399  2.0500  0.1702
   6123SM  H15C 7745   1.852   6.150  13.701  1.1866  0.1226  1.9756
   6123SM   C14 7746   1.653   5.868  13.715  0.4252 -0.6140 -0.4782
   6123SM  H14A 7747   1.715   5.795  13.664  2.2311 -0.2259  1.0219
   6123SM  H14B 7748   1.556   5.837  13.681 -0.2384 -0.7089  1.3643
   6123SM  H14C 7749   1.657   5.852  13.822 -1.4376  0.6089 -0.2005
   6123SM   C13 7750   1.581   6.105  13.721 -0.7707  0.1002  0.0181
   6123SM  H13A 7751   1.559   6.079  13.823  1.4171  1.6140  0.9295
   6123SM  H13B 7752   1.490   6.097  13.663 -0.3903 -0.7251 -0.4864
   6123SM  H13C 7753   1.594   6.212  13.716  0.7262 -0.1094 -1.5984
   6123SM   C12 7754   1.688   6.020  13.512  0.2243 -0.4744 -1.2950
   6123SM  H12A 7755   1.777   5.975  13.472  2.4172  1.6239  0.8359
   6123SM  H12B 7756   1.681   6.125  13.485  0.4732 -0.9097 -3.1881
   6123SM   C11 7757   1.580   5.953  13.437 -0.0844  0.1740 -0.1406
   6123SM  H11A 7758   1.576   5.846  13.469 -1.3896  0.8509  2.1666
   6123SM  H11B 7759   1.606   5.940  13.330  0.5076  0.5255 -0.0448
   6123SM     P 7760   1.406   6.148  13.408 -0.2929  0.3397 -0.1746
   6123SM   O13 7761   1.270   6.168  13.454  1.3287 -0.8896  0.8824
   6123SM   O14 7762   1.498   6.253  13.456  0.0795 -0.1928 -0.3160
   6123SM   O11 7763   1.414   6.130  13.248  0.3860 -0.1115  0.2507
   6123SM   O12 7764   1.450   6.009  13.460 -0.4965  0.6374 -0.1144
   6123SM   C1S 7765   1.325   6.045  13.181 -0.3859 -0.1865  0.1147
   6123SM   H1S 7766   1.223   6.084  13.202 -0.5787  0.7355 -2.1982
   6123SM   H1T 7767   1.337   5.941  13.218  0.3354 -0.9669 -2.1747
   6123SM    NF 7768   1.254   5.963  12.954  0.1987 -0.6517 -0.1959
   6123SM   HNF 7769   1.278   5.871  12.923 -0.6589 -0.6853 -0.8034
   6123SM   C2S 7770   1.352   6.043  13.029  0.1663 -0.0798  0.0324
   6123SM   H2S 7771   1.330   6.143  12.985 -0.3551  0.1228  0.7330
   6123SM   C3S 7772   1.496   6.008  12.994 -0.5598  0.3914  0.4078
   6123SM   H3S 7773   1.515   5.903  13.025 -0.3549  0.1793 -0.4057
   6123SM    O3 7774   1.599   6.087  13.053 -0.0156  0.1316 -0.1609
   6123SM   HO3 7775   1.545   6.131  13.119  0.5467  4.2961 -2.1894
   6123SM   C4S 7776   1.528   6.022  12.853  0.1803 -0.3836  0.4042
   6123SM   H4S 7777   1.499   6.119  12.810  1.3351 -0.1011  0.2354
   6123SM   C5S 7778   1.596   5.931  12.783 -0.2270 -0.2392  0.4180
   6123SM   H5S 7779   1.624   5.837  12.833 -0.4364 -0.3128  0.3971
   6123SM   C6S 7780   1.635   5.939  12.633  0.1311  1.0407 -0.5119
   6123SM   H6S 7781   1.614   5.844  12.579  0.1131  0.0802  1.1107
   6123SM   H6T 7782   1.746   5.945  12.627  0.2217  0.5700  0.4775
   6123SM   C7S 7783   1.581   6.063  12.559 -0.0429 -0.4126 -0.5377
   6123SM   H7S 7784   1.633   6.146  12.611  0.1840  1.1577 -3.1021
   6123SM   H7T 7785   1.472   6.076  12.572  0.0096  0.9516 -1.2305
   6123SM   C8S 7786   1.613   6.065  12.405  0.1513  0.0285  0.0129
   6123SM   H8S 7787   1.564   5.981  12.352 -0.4797  2.0839 -2.9266
   6123SM   H8T 7788   1.723   6.051  12.407  0.3400  1.3685  0.2370
   6123SM   C9S 7789   1.569   6.191  12.336 -0.3116 -0.6511 -0.2942
   6123SM   H9S 7790   1.619   6.280  12.380  0.4628 -1.3840  0.3404
   6123SM   H9T 7791   1.459   6.204  12.344 -0.1557  1.2278 -0.7583
   6123SM  C10S 7792   1.613   6.189  12.188 -0.4143  0.1262 -0.6901
   6123SM  H10S 7793   1.569   6.113  12.120 -3.5061  1.3146 -0.1452
   6123SM  H10T 7794   1.724   6.192  12.187 -0.3422  0.4643  1.5579
   6123SM  C11S 7795   1.584   6.331  12.127  1.1563  0.6101 -0.0935
   6123SM  H11S 7796   1.633   6.400  12.199 -0.0600  1.3496  0.0462
   6123SM  H11T 7797   1.477   6.359  12.129  1.3983  1.6141 -0.4577
   6123SM  C12S 7798   1.642   6.341  11.987 -0.3885 -0.2950 -0.3078
   6123SM  H12S 7799   1.582   6.274  11.923 -1.6386  0.4871  0.0187
   6123SM  H12T 7800   1.746   6.301  11.991  0.2205  1.2677  1.1746
   6123SM  C13S 7801   1.629   6.489  11.933 -0.1656  0.0824  0.2799
   6123SM  H13S 7802   1.700   6.563  11.977  0.1245 -0.5069  0.8101
   6123SM  H13T 7803   1.528   6.531  11.954 -2.0144 -1.9851 -3.3678
   6123SM  C14S 7804   1.617   6.489  11.779  0.2229 -0.4910  0.5379
   6123SM  H14S 7805   1.532   6.420  11.761  0.0526 -0.3561  0.8145
   6123SM  H14T 7806   1.696   6.432  11.727  0.0902 -1.0089  0.8905
   6123SM  C15S 7807   1.607   6.625  11.700 -0.1978 -0.3344  0.2605
   6123SM  H15S 7808   1.607   6.587  11.596  1.2084 -1.2053  0.5506
   6123SM  H15T 7809   1.699   6.686  11.713  0.8151 -1.8377  0.4039
   6123SM  C16S 7810   1.480   6.693  11.741  0.2366  0.1543  0.5282
   6123SM  H16S 7811   1.486   6.713  11.850 -0.0865 -0.5623  0.6788
   6123SM  H16T 7812   1.397   6.622  11.722 -0.2415  0.9274 -0.3703
   6123SM  C17S 7813   1.450   6.838  11.678  0.0826 -0.1461  0.1871
   6123SM  H17S 7814   1.354   6.882  11.713  0.5693  1.1820 -0.0936
   6123SM  H17T 7815   1.442   6.826  11.567 -1.2568  1.0408  0.1191
   6123SM  C18S 7816   1.561   6.931  11.706 -0.3211 -0.2449  0.1473
   6123SM  H18S 7817   1.551   7.037  11.675 -0.2987 -0.5354 -0.8624
   6123SM  H18T 7818   1.653   6.901  11.651 -0.1795 -0.1936  0.3512
   6123SM  H18U 7819   1.586   6.937  11.815  1.0768  0.4771 -0.1883
   6123SM   C1F 7820   1.127   5.994  12.965  0.2925 -0.1521 -0.0144
   6123SM    OF 7821   1.093   6.103  13.017  0.3530  0.7845 -0.0586
   6123SM   C2F 7822   1.018   5.903  12.898 -1.2076  0.3434  1.0114
   6123SM   H2F 7823   0.934   5.875  12.965 -2.2167 -3.5197 -1.5077
   6123SM   H2G 7824   1.068   5.806  12.877  1.4772  1.1156  3.3397
   6123SM   C3F 7825   0.979   5.983  12.768 -0.2522  0.0921 -0.2566
   6123SM   H3F 7826   1.068   5.980  12.701 -1.3131 -0.7309 -1.6887
   6123SM   H3G 7827   0.937   6.079  12.804 -1.9843 -0.2836 -1.1897
   6123SM   C4F 7828   0.883   5.904  12.680 -0.4290  0.4431 -0.0625
   6123SM   H4F 7829   0.791   5.882  12.737 -0.9346  0.6939 -0.7663
   6123SM   H4G 7830   0.937   5.811  12.651  0.5277  0.6954  0.8535
   6123SM   C5F 7831   0.847   5.971  12.547 -0.1206 -0.2613 -0.5083
   6123SM   H5F 7832   0.934   5.994  12.482 -0.7954  3.2634 -0.3718
   6123SM   H5G 7833   0.804   6.072  12.562 -0.3736 -0.3061 -0.9134
   6123SM   C6F 7834   0.759   5.879  12.468  0.4911 -0.1272 -0.2456
   6123SM   H6F 7835   0.655   5.876  12.507  0.0624 -1.2349 -1.4184
   6123SM   H6G 7836   0.794   5.774  12.465  2.6117  0.5288 -2.5139
   6123SM   C7F 7837   0.748   5.912  12.322  0.1609 -0.1703 -0.6211
   6123SM   H7F 7838   0.839   5.862  12.282 -0.1080 -2.8827  1.8305
   6123SM   H7G 7839   0.755   6.022  12.313  2.0788 -0.1040  0.8664
   6123SM   C8F 7840   0.614   5.860  12.261 -0.6681  0.0188 -0.0041
   6123SM   H8F 7841   0.535   5.906  12.325 -1.1434  1.2318 -1.4166
   6123SM   H8G 7842   0.605   5.750  12.253 -0.7838  0.1593 -2.4985
   6123SM   C9F 7843   0.594   5.916  12.118 -0.4664 -0.1026 -0.5276
   6123SM   H9F 7844   0.602   6.026  12.113 -0.1030 -0.1684 -1.6563
   6123SM   H9G 7845   0.490   5.897  12.082 -0.5704  1.2894 -1.0022
   6123SM  C10F 7846   0.692   5.861  12.013 -0.9428 -0.1489  0.0300
   6123SM  H10F 7847   0.698   5.750  12.017 -1.3531 -0.1946  4.1940
   6123SM  H10G 7848   0.786   5.912  12.040 -1.6273 -0.3793  3.3391
   6123SM  C11F 7849   0.651   5.890  11.868  0.6396 -0.4796  0.6377
   6123SM  H11F 7850   0.643   6.000  11.855 -0.1869 -0.5603  0.3614
   6123SM  H11G 7851   0.549   5.846  11.858  1.3263 -1.7128 -2.0707
   6123SM  C12F 7852   0.730   5.813  11.764 -0.4306 -0.3857 -0.1365
   6123SM  H12F 7853   0.717   5.703  11.772  2.3372 -0.8298 -0.5678
   6123SM  H12G 7854   0.838   5.837  11.775 -0.4406 -0.9188  1.4928
   6123SM  C13F 7855   0.698   5.846  11.624  0.1258  0.3893  0.6790
   6123SM  H13F 7856   0.590   5.823  11.612  0.6541 -2.0455 -0.0131
   6123SM  H13G 7857   0.765   5.789  11.556  0.3225 -0.5548  1.6414
   6123SM  C14F 7858   0.719   5.998  11.592 -0.2962  0.5614  0.7536
   6123SM  H14F 7859   0.821   6.030  11.619 -0.0419 -1.1215  1.9192
   6123SM  H14G 7860   0.641   6.055  11.647 -0.8638 -0.3588  0.9353
   6123SM  C15F 7861   0.692   6.021  11.442 -0.3719  0.3403  0.5726
   6123SM  H15F 7862   0.769   5.973  11.377 -0.4668  1.7774 -0.6502
   6123SM  H15G 7863   0.700   6.129  11.415  1.4662 -0.3385 -2.0405
   6123SM  C16F 7864   0.554   5.986  11.381 -0.1838 -0.3288 -0.1386
   6123SM  H16F 7865   0.471   6.039  11.433  1.1675  3.9291 -1.9288
   6123SM  H16G 7866   0.550   5.876  11.395  0.4176 -0.3506 -0.1411
   6123SM  C17F 7867   0.521   6.018  11.232  0.4703 -0.2550  0.9224
   6123SM  H17F 7868   0.547   6.123  11.204 -0.7579 -0.0556  0.4512
   6123SM  H17G 7869   0.410   6.018  11.230  0.4738  0.3838 -1.0022
   6123SM  C18F 7870   0.565   5.917  11.121 -0.3045 -0.3236 -0.1934
   6123SM  H18F 7871   0.675   5.921  11.107 -0.1167  0.8972  1.3315
   6123SM  H18G 7872   0.522   5.942  11.022 -1.3874  1.4542  0.6893
   6123SM  C19F 7873   0.518   5.766  11.147 -0.0593 -0.3315  0.2253
   6123SM  H19F 7874   0.561   5.739  11.246 -2.3092  1.3626  1.7842
   6123SM  H19G 7875   0.554   5.703  11.064  0.2394  0.0591  0.0529
   6123SM  C20F 7876   0.366   5.731  11.166  0.6734  0.2842 -0.1416
   6123SM  H20F 7877   0.308   5.749  11.074 -0.3530  2.0096  0.7952
   6123SM  H20G 7878   0.324   5.795  11.246  2.7109  0.5944  0.7594
   6123SM  C21F 7879   0.326   5.588  11.206  0.6405 -0.0033  0.1211
   6123SM  H21F 7880   0.216   5.579  11.202  0.7445 -0.8724 -1.8486
   6123SM  H21G 7881   0.372   5.575  11.307 -1.4175 -1.2575  0.9645
   6123SM  C22F 7882   0.374   5.465  11.119  0.0726 -0.2131 -0.1149
   6123SM  H22F 7883   0.483   5.469  11.096  0.3572 -1.7589  0.7424
   6123SM  H22G 7884   0.320   5.469  11.023 -0.5429 -0.8750  0.1959
   6123SM  C23F 7885   0.347   5.340  11.195 -0.0318  0.5280 -0.3519
   6123SM  H23F 7886   0.416   5.262  11.154  2.1779  1.2274  1.8175
   6123SM  H23G 7887   0.243   5.302  11.198  0.0671  0.2977  2.1732
   6123SM  H23H 7888   0.368   5.352  11.303 -0.3226 -1.6764  0.0067
   6223SM     N 7889   2.083   4.599  13.332 -0.3774 -0.6126  0.1622
   6223SM   C15 7890   1.974   4.521  13.262 -0.5450 -0.2621 -0.1136
   6223SM  H15A 7891   1.999   4.416  13.266 -2.0113 -0.6836 -1.3474
   6223SM  H15B 7892   1.963   4.560  13.162  0.6364  1.1310  0.2516
   6223SM  H15C 7893   1.882   4.547  13.312 -0.4756  2.9993 -1.4580
   6223SM   C14 7894   2.092   4.568  13.477 -0.1481  0.0651 -0.4903
   6223SM  H14A 7895   1.991   4.568  13.514  0.0182  1.7813  0.0605
   6223SM  H14B 7896   2.145   4.643  13.534 -1.0766 -0.1259  0.6552
   6223SM  H14C 7897   2.131   4.469  13.497 -1.3005 -1.3467 -4.3550
   6223SM   C13 7898   2.211   4.564  13.258  0.2395 -0.8554 -0.6767
   6223SM  H13A 7899   2.236   4.460  13.272  1.3861 -0.6121 -0.8367
   6223SM  H13B 7900   2.292   4.621  13.301  1.2506 -3.1695  0.6441
   6223SM  H13C 7901   2.213   4.595  13.155 -1.2045  2.7050  0.1994
   6223SM   C12 7902   2.048   4.748  13.315 -0.4070 -0.6184 -0.3451
   6223SM  H12A 7903   2.110   4.806  13.381 -2.0364 -0.2207  0.9266
   6223SM  H12B 7904   1.946   4.762  13.350  0.5622  1.7553  1.8164
   6223SM   C11 7905   2.062   4.817  13.179 -0.4242 -0.5132  0.2674
   6223SM  H11A 7906   2.167   4.803  13.144  0.0860  1.9147  0.6506
   6223SM  H11B 7907   2.036   4.925  13.191  4.8005  1.1514 -0.4421
   6223SM     P 7908   1.993   4.738  12.941  0.0961 -0.2236  0.0067
   6223SM   O13 7909   2.088   4.632  12.920  0.8844  0.3314 -0.5957
   6223SM   O14 7910   1.861   4.720  12.885 -0.2864 -0.0921  0.1938
   6223SM   O11 7911   2.055   4.875  12.892  0.2430 -0.1796 -0.4533
   6223SM   O12 7912   1.975   4.757  13.090  0.3346  0.0502  0.4415
   6223SM   C1S 7913   2.125   4.890  12.768 -0.2252  0.4312  0.1852
   6223SM   H1S 7914   2.149   4.794  12.716  2.7784  1.7883 -1.1398
   6223SM   H1T 7915   2.224   4.934  12.789 -0.4392  0.4057  1.3326
   6223SM    NF 7916   2.118   4.998  12.547 -0.1546 -0.3517 -0.0289
   6223SM   HNF 7917   2.163   5.086  12.537 -1.9262  0.5486 -0.3768
   6223SM   C2S 7918   2.052   4.986  12.674  0.1141 -0.3457  0.1689
   6223SM   H2S 7919   1.952   4.938  12.666 -0.4630  0.2249  3.0461
   6223SM   C3S 7920   2.027   5.127  12.740  0.2760  0.3682 -0.3849
   6223SM   H3S 7921   2.130   5.168  12.750  0.0246  0.4044  3.8404
   6223SM    O3 7922   1.973   5.125  12.873  0.5438  0.3985 -0.1577
   6223SM   HO3 7923   1.986   5.043  12.920 -2.3570  0.6818  1.3832
   6223SM   C4S 7924   1.944   5.214  12.648  0.2499  0.8705 -0.5098
   6223SM   H4S 7925   2.007   5.273  12.580  0.0949 -1.1959 -2.6039
   6223SM   C5S 7926   1.808   5.213  12.633 -0.4567 -0.7388  0.0463
   6223SM   H5S 7927   1.747   5.140  12.689  1.3563 -0.5295  2.4727
   6223SM   C6S 7928   1.737   5.289  12.515 -0.4808 -0.5631 -0.0937
   6223SM   H6S 7929   1.680   5.218  12.452  1.8011 -1.7411 -0.9746
   6223SM   H6T 7930   1.821   5.328  12.454  0.5357 -1.8874  0.4122
   6223SM   C7S 7931   1.639   5.397  12.560 -0.3220 -0.1090  0.3189
   6223SM   H7S 7932   1.688   5.493  12.587  0.1722 -0.1919 -0.2570
   6223SM   H7T 7933   1.585   5.358  12.649  0.2952 -0.6890  0.4423
   6223SM   C8S 7934   1.544   5.440  12.447  0.2518 -0.0332  0.3018
   6223SM   H8S 7935   1.496   5.357  12.392 -1.1228  1.4393 -0.8230
   6223SM   H8T 7936   1.614   5.485  12.373 -2.4700  2.4031 -0.9827
   6223SM   C9S 7937   1.437   5.540  12.486  0.0770  0.3929 -0.4388
   6223SM   H9S 7938   1.472   5.597  12.575  2.2125  0.4843 -1.2847
   6223SM   H9T 7939   1.341   5.487  12.506 -1.4610  1.9640 -3.1332
   6223SM  C10S 7940   1.406   5.644  12.376  0.4695 -0.1999  0.3733
   6223SM  H10S 7941   1.387   5.594  12.279 -3.2708 -0.1149  0.9345
   6223SM  H10T 7942   1.497   5.708  12.374 -1.3461  2.5652  0.6718
   6223SM  C11S 7943   1.284   5.722  12.431  0.3419 -0.6943 -0.0240
   6223SM  H11S 7944   1.310   5.772  12.526  1.4484  2.4077 -1.8163
   6223SM  H11T 7945   1.186   5.671  12.447  0.1528 -2.3741 -4.8533
   6223SM  C12S 7946   1.249   5.834  12.331 -0.4178 -1.3140 -0.0480
   6223SM  H12S 7947   1.335   5.903  12.317 -0.2210 -1.4572  0.4440
   6223SM  H12T 7948   1.172   5.899  12.379 -0.2579  0.3838 -1.9601
   6223SM  C13S 7949   1.191   5.797  12.196  0.0053 -0.5349 -0.0661
   6223SM  H13S 7950   1.094   5.745  12.208  0.2330 -0.7662  0.7745
   6223SM  H13T 7951   1.255   5.728  12.137  1.0562  0.5499 -0.2568
   6223SM  C14S 7952   1.184   5.919  12.098 -0.2566 -0.3046  0.1083
   6223SM  H14S 7953   1.287   5.959  12.083 -0.3192 -0.3007 -0.3139
   6223SM  H14T 7954   1.123   5.996  12.149  0.8227 -0.0427  1.0534
   6223SM  C15S 7955   1.115   5.881  11.963 -0.2995 -0.6228 -0.2940
   6223SM  H15S 7956   1.005   5.880  11.969 -0.2817 -1.2006  0.0932
   6223SM  H15T 7957   1.152   5.778  11.940 -0.1523 -0.8596  0.8959
   6223SM  C16S 7958   1.144   5.986  11.846  0.7099 -0.0901 -1.2293
   6223SM  H16S 7959   1.119   5.934  11.751 -2.9507  1.9763 -1.5979
   6223SM  H16T 7960   1.246   6.031  11.837  0.6508 -0.1359 -2.2586
   6223SM  C17S 7961   1.044   6.096  11.854  0.4884  0.4939  0.5149
   6223SM  H17S 7962   1.060   6.145  11.952  2.7879  0.3724  0.2700
   6223SM  H17T 7963   0.942   6.053  11.843  1.4047 -2.1601  1.6115
   6223SM  C18S 7964   1.078   6.201  11.744 -0.7167  0.1002  0.3668
   6223SM  H18S 7965   1.003   6.283  11.739 -0.9515 -0.1891 -1.5926
   6223SM  H18T 7966   1.065   6.152  11.645  1.1001 -1.2027  0.7256
   6223SM  H18U 7967   1.183   6.234  11.760 -1.1747  1.2130  1.1591
   6223SM   C1F 7968   2.132   4.909  12.454  0.2738  0.2859 -0.2162
   6223SM    OF 7969   2.083   4.798  12.476 -0.2555  0.1885  0.4903
   6223SM   C2F 7970   2.206   4.946  12.333 -1.4599 -0.0547 -0.4024
   6223SM   H2F 7971   2.273   4.858  12.321 -0.1274  0.8618  0.1544
   6223SM   H2G 7972   2.267   5.038  12.348  2.7647 -2.6194 -0.1631
   6223SM   C3F 7973   2.105   4.964  12.223 -0.2223 -1.4597  0.2017
   6223SM   H3F 7974   2.025   4.890  12.202 -2.9577  1.2460  0.2377
   6223SM   H3G 7975   2.158   4.985  12.127 -0.8770  1.7710  0.4263
   6223SM   C4F 7976   2.020   5.090  12.242  0.5824 -0.2579  0.5837
   6223SM   H4F 7977   2.078   5.176  12.281  0.5214 -1.0139  2.4397
   6223SM   H4G 7978   1.948   5.083  12.326  2.5578  0.7287  2.4387
   6223SM   C5F 7979   1.964   5.151  12.111 -0.2863 -0.1822 -0.0444
   6223SM   H5F 7980   1.884   5.083  12.072 -0.9661 -0.0570  1.0876
   6223SM   H5G 7981   2.051   5.163  12.043  0.3252  0.0110  0.7647
   6223SM   C6F 7982   1.890   5.279  12.142  0.0628 -0.4120  0.8020
   6223SM   H6F 7983   1.977   5.348  12.151  0.2890  0.0188 -3.1928
   6223SM   H6G 7984   1.829   5.281  12.235  0.2806 -1.6527  0.9870
   6223SM   C7F 7985   1.792   5.328  12.025 -0.2249  0.3434 -0.3652
   6223SM   H7F 7986   1.719   5.244  12.031  1.2677 -0.9423  0.5172
   6223SM   H7G 7987   1.840   5.327  11.925 -1.1445  3.1982 -0.9213
   6223SM   C8F 7988   1.723   5.459  12.056 -0.2514 -0.0064  1.2700
   6223SM   H8F 7989   1.806   5.532  12.052 -1.7679  1.7351 -0.5907
   6223SM   H8G 7990   1.693   5.450  12.162 -1.3306  5.3257  1.6588
   6223SM   C9F 7991   1.619   5.494  11.949 -0.5286  0.4222  0.3797
   6223SM   H9F 7992   1.542   5.415  11.937  0.0925 -0.2266  0.5711
   6223SM   H9G 7993   1.677   5.501  11.854  0.1229  1.8365  0.8498
   6223SM  C10F 7994   1.559   5.635  11.965 -0.0085 -0.4907 -0.9644
   6223SM  H10F 7995   1.629   5.712  12.004 -1.5761  0.3650  0.2780
   6223SM  H10G 7996   1.472   5.621  12.031  0.8478  1.8872  0.7962
   6223SM  C11F 7997   1.502   5.688  11.829  0.3463  0.2917  0.1562
   6223SM  H11F 7998   1.588   5.688  11.759 -0.0754  0.2669 -0.3669
   6223SM  H11G 7999   1.471   5.794  11.846  2.5449  1.2228 -1.1948
   6223SM  C12F 8000   1.390   5.606  11.757  0.1525 -0.2234 -0.7760
   6223SM  H12F 8001   1.316   5.578  11.835 -0.0395  2.1086 -0.0417
   6223SM  H12G 8002   1.435   5.512  11.721 -0.1524 -0.2854 -1.0001
   6223SM  C13F 8003   1.326   5.687  11.643 -0.1368 -0.5704 -0.0050
   6223SM  H13F 8004   1.407   5.697  11.568 -1.4614  0.2389 -1.3853
   6223SM  H13G 8005   1.286   5.783  11.680  0.6128 -0.2443 -0.0248
   6223SM  C14F 8006   1.207   5.612  11.582 -0.1365  0.3621  0.3539
   6223SM  H14F 8007   1.131   5.609  11.663  0.5335 -0.1041  0.9768
   6223SM  H14G 8008   1.240   5.507  11.565  0.2028  0.6105 -0.5800
   6223SM  C15F 8009   1.139   5.680  11.462  0.0666 -0.2981 -0.2731
   6223SM  H15F 8010   1.202   5.685  11.370  1.1201  0.4899  0.4731
   6223SM  H15G 8011   1.099   5.780  11.489 -0.2474  0.5325 -3.4396
   6223SM  C16F 8012   1.028   5.583  11.433  0.5516 -0.1008  0.0043
   6223SM  H16F 8013   0.973   5.568  11.529 -1.6826 -1.4152 -1.4098
   6223SM  H16G 8014   1.064   5.479  11.415  0.7722  0.2514 -1.6934
   6223SM  C17F 8015   0.919   5.635  11.334  0.7644  0.1864 -0.0451
   6223SM  H17F 8016   0.896   5.740  11.361 -0.5673 -0.1303  0.1307
   6223SM  H17G 8017   0.825   5.575  11.333 -0.4999  2.0240  1.5796
   6223SM  C18F 8018   0.975   5.646  11.192 -0.2528  0.4922 -0.7492
   6223SM  H18F 8019   1.028   5.552  11.166 -1.0250 -0.6924  1.6132
   6223SM  H18G 8020   1.057   5.721  11.196  2.4221 -2.2536  0.2435
   6223SM  C19F 8021   0.862   5.683  11.095 -0.4946 -0.4725  0.2641
   6223SM  H19F 8022   0.839   5.790  11.109 -1.0436 -0.3593 -1.3147
   6223SM  H19G 8023   0.766   5.635  11.125 -0.8064 -0.0120  0.0058
   6223SM  C20F 8024   0.899   5.666  10.946  0.8024  0.2438  0.5729
   6223SM  H20F 8025   0.893   5.559  10.918  1.0920  0.3453  0.0932
   6223SM  H20G 8026   1.001   5.705  10.925 -0.2152  2.5835 -0.3854
   6223SM  C21F 8027   0.812   5.753  10.853 -0.6114 -0.0913 -0.4610
   6223SM  H21F 8028   0.792   5.858  10.882 -0.2677 -0.2754  0.5086
   6223SM  H21G 8029   0.707   5.718  10.861 -0.7076  0.2980  0.0048
   6223SM  C22F 8030   0.857   5.754  10.707  0.3454  0.0829  0.2662
   6223SM  H22F 8031   0.776   5.795  10.643  1.6414 -0.5830 -1.9146
   6223SM  H22G 8032   0.879   5.654  10.665  4.5893  1.2346 -0.6952
   6223SM  C23F 8033   0.977   5.849  10.684 -0.7790 -0.4170 -0.8795
   6223SM  H23F 8034   0.990   5.926  10.763 -2.0462 -0.8331 -0.2516
   6223SM  H23G 8035   0.967   5.929  10.607  1.8861 -0.4792 -1.3847
   6223SM  H23H 8036   1.062   5.783  10.657  0.9049  1.7437 -1.1794
   6323SM     N 8037   1.252   6.476  13.189  0.4860 -0.0694 -0.1772
   6323SM   C15 8038   1.384   6.421  13.171  0.0517  0.4861 -0.2708
   6323SM  H15A 8039   1.432   6.385  13.260  1.0303  2.7480  0.1687
   6323SM  H15B 8040   1.455   6.497  13.144  0.9045 -0.3325 -0.4051
   6323SM  H15C 8041   1.391   6.342  13.097  0.1979  1.4772 -1.3299
   6323SM   C14 8042   1.209   6.576  13.083 -0.1043  0.4374 -0.1943
   6323SM  H14A 8043   1.111   6.613  13.110  0.1218  1.0382 -0.1805
   6323SM  H14B 8044   1.213   6.536  12.983  0.4283  2.2696 -0.9507
   6323SM  H14C 8045   1.278   6.659  13.087 -0.1580  0.5893 -1.6924
   6323SM   C13 8046   1.150   6.371  13.188  0.2912  0.7521  0.0009
   6323SM  H13A 8047   1.169   6.293  13.261  1.6046  0.3849 -0.7020
   6323SM  H13B 8048   1.130   6.329  13.091 -3.1115  0.3120  0.7714
   6323SM  H13C 8049   1.056   6.410  13.224  0.4699  1.5738 -0.3871
   6323SM   C12 8050   1.245   6.556  13.320  0.1603  0.1667  0.3450
   6323SM  H12A 8051   1.232   6.483  13.399  0.8805 -0.9529 -0.5351
   6323SM  H12B 8052   1.153   6.610  13.335  0.1947  0.4058 -0.3057
   6323SM   C11 8053   1.365   6.656  13.349 -0.3591 -0.0918 -0.7398
   6323SM  H11A 8054   1.457   6.598  13.373 -1.0312 -0.7789  0.2540
   6323SM  H11B 8055   1.347   6.703  13.447  0.5507 -0.0535 -0.5824
   6323SM     P 8056   1.339   6.879  13.213  0.1189 -0.0095 -0.4576
   6323SM   O13 8057   1.201   6.882  13.151 -0.0892  0.7468  0.0440
   6323SM   O14 8058   1.352   6.972  13.333  0.0276  0.1242 -0.0133
   6323SM   O11 8059   1.433   6.940  13.103  0.5101  0.0907 -0.1584
   6323SM   O12 8060   1.391   6.736  13.240  0.5287  0.5422  0.1848
   6323SM   C1S 8061   1.478   6.865  12.989 -0.4807  0.3183 -0.0230
   6323SM   H1S 8062   1.485   6.756  13.006  4.2126  0.3899 -0.2056
   6323SM   H1T 8063   1.582   6.891  12.957 -0.9624  1.4590 -0.7323
   6323SM    NF 8064   1.450   6.816  12.745  0.1613 -0.3916 -0.0032
   6323SM   HNF 8065   1.493   6.866  12.670  0.3692 -0.6279 -0.0417
   6323SM   C2S 8066   1.401   6.902  12.858  0.7747  0.0607  0.3916
   6323SM   H2S 8067   1.293   6.880  12.877  1.2605 -1.6012  1.3971
   6323SM   C3S 8068   1.406   7.056  12.841  0.2981 -0.5740  0.7780
   6323SM   H3S 8069   1.512   7.088  12.830 -0.4696  2.1287  0.4194
   6323SM    O3 8070   1.347   7.123  12.949  0.2386 -0.3473 -0.2289
   6323SM   HO3 8071   1.361   7.054  13.014 -1.5012  1.2174  1.9797
   6323SM   C4S 8072   1.343   7.100  12.712  0.1234 -1.2586 -0.2475
   6323SM   H4S 8073   1.415   7.119  12.631  0.1616  0.9079  0.2250
   6323SM   C5S 8074   1.211   7.123  12.681 -0.0407 -0.3795  0.0548
   6323SM   H5S 8075   1.135   7.108  12.760  0.4372  0.0972  0.6157
   6323SM   C6S 8076   1.150   7.160  12.546 -0.0281  0.1439 -0.5112
   6323SM   H6S 8077   1.213   7.239  12.500  0.2139 -0.3114 -0.9827
   6323SM   H6T 8078   1.052   7.211  12.551  0.4788  1.2152 -1.1694
   6323SM   C7S 8079   1.151   7.037  12.450  0.3842 -0.5759 -0.5904
   6323SM   H7S 8080   1.081   6.962  12.491 -0.2323  1.2606  1.9381
   6323SM   H7T 8081   1.255   6.997  12.452  0.4230 -0.5543 -1.4276
   6323SM   C8S 8082   1.118   7.078  12.301 -0.6289 -0.6985 -0.2443
   6323SM   H8S 8083   1.152   6.989  12.243  1.3132 -1.7819  2.3421
   6323SM   H8T 8084   1.162   7.174  12.267 -2.4184 -0.0880 -0.9592
   6323SM   C9S 8085   0.971   7.100  12.270 -0.1048  0.2873  0.1406
   6323SM   H9S 8086   0.930   7.178  12.338 -0.6969  1.3881 -1.4209
   6323SM   H9T 8087   0.934   7.000  12.301  0.0580 -0.5514 -2.1890
   6323SM  C10S 8088   0.949   7.129  12.121  0.5579  0.1954  0.9624
   6323SM  H10S 8089   1.001   7.062  12.050  1.0649  2.1148 -0.5554
   6323SM  H10T 8090   0.995   7.228  12.097 -0.6707  0.5377 -0.1043
   6323SM  C11S 8091   0.805   7.136  12.091  0.3764  0.8083 -0.5581
   6323SM  H11S 8092   0.759   7.213  12.157  0.4965  1.0136 -0.7131
   6323SM  H11T 8093   0.755   7.039  12.115 -0.4902  1.4653  0.3829
   6323SM  C12S 8094   0.772   7.188  11.949 -0.2003  0.1926 -0.0713
   6323SM  H12S 8095   0.790   7.106  11.876 -2.0389 -1.5181  1.2943
   6323SM  H12T 8096   0.837   7.277  11.933  0.0907  0.0021  0.0488
   6323SM  C13S 8097   0.630   7.236  11.927  1.0142 -0.1893 -0.0164
   6323SM  H13S 8098   0.631   7.335  11.979  0.9551 -1.3362  2.2834
   6323SM  H13T 8099   0.557   7.172  11.979 -1.1884  2.0825 -0.1224
   6323SM  C14S 8100   0.586   7.238  11.779 -0.2150 -0.3325  0.2757
   6323SM  H14S 8101   0.659   7.292  11.715 -2.4278 -1.1691 -3.2488
   6323SM  H14T 8102   0.493   7.298  11.775 -1.1662 -1.8119 -1.6873
   6323SM  C15S 8103   0.555   7.103  11.712 -0.2784 -0.1467  0.1224
   6323SM  H15S 8104   0.451   7.067  11.728 -0.8054 -0.7852 -3.8099
   6323SM  H15T 8105   0.620   7.025  11.758 -1.9250 -2.6552 -1.5429
   6323SM  C16S 8106   0.590   7.107  11.565  0.0078 -0.0805 -0.4907
   6323SM  H16S 8107   0.692   7.149  11.556  0.5084 -1.2657 -0.5924
   6323SM  H16T 8108   0.512   7.165  11.511  0.3687  0.2018 -0.7060
   6323SM  C17S 8109   0.585   6.963  11.498 -0.1038  0.5128 -1.5015
   6323SM  H17S 8110   0.573   6.973  11.388 -2.2660 -1.1013 -1.4837
   6323SM  H17T 8111   0.485   6.924  11.525  1.1075 -3.4860 -2.1012
   6323SM  C18S 8112   0.683   6.852  11.537  0.0681 -0.1163  0.1116
   6323SM  H18S 8113   0.788   6.887  11.540  0.4071 -1.0312  3.4424
   6323SM  H18T 8114   0.669   6.766  11.467 -1.0723  0.2834 -0.1783
   6323SM  H18U 8115   0.663   6.813  11.639 -2.2721  1.0167  0.1435
   6323SM   C1F 8116   1.425   6.683  12.736  0.0898  0.0025  0.3004
   6323SM    OF 8117   1.343   6.624  12.804 -0.0383  0.3135  0.2052
   6323SM   C2F 8118   1.521   6.612  12.652  0.8704 -0.5976  0.5324
   6323SM   H2F 8119   1.568   6.533  12.715  2.9379  0.3180  0.1870
   6323SM   H2G 8120   1.602   6.663  12.597  1.2447 -0.9628  0.7398
   6323SM   C3F 8121   1.437   6.554  12.532 -0.0954  0.5026 -0.1223
   6323SM   H3F 8122   1.351   6.496  12.572  1.1519  0.2185  2.3026
   6323SM   H3G 8123   1.500   6.489  12.467  0.5134 -0.0317  0.9809
   6323SM   C4F 8124   1.371   6.662  12.447  0.5224 -0.7499  0.7490
   6323SM   H4F 8125   1.447   6.739  12.424  1.3288 -2.2346 -2.0965
   6323SM   H4G 8126   1.289   6.708  12.506  2.0637  1.4208  1.3301
   6323SM   C5F 8127   1.315   6.618  12.320  0.4192  0.5701 -0.1519
   6323SM   H5F 8128   1.245   6.532  12.329 -2.5176  2.9658  2.3839
   6323SM   H5G 8129   1.403   6.584  12.261  0.2567 -1.0588  0.4859
   6323SM   C6F 8130   1.233   6.720  12.251  0.5709 -0.7677 -0.1368
   6323SM   H6F 8131   1.292   6.813  12.234 -0.3967  0.0359  0.7369
   6323SM   H6G 8132   1.156   6.761  12.320  1.2064  1.1180 -0.4917
   6323SM   C7F 8133   1.160   6.667  12.125  0.6352 -0.1004  0.0241
   6323SM   H7F 8134   1.097   6.746  12.078  0.6311  0.7721  1.4378
   6323SM   H7G 8135   1.079   6.592  12.143 -1.4178  2.2410  1.2269
   6323SM   C8F 8136   1.242   6.609  12.011  0.2453 -0.5407  0.0015
   6323SM   H8F 8137   1.304   6.524  12.047 -0.1475 -0.4462  0.9405
   6323SM   H8G 8138   1.312   6.687  11.973  0.9493 -1.9354 -1.6851
   6323SM   C9F 8139   1.159   6.564  11.892 -0.3577  0.1870 -0.0138
   6323SM   H9F 8140   1.076   6.498  11.923 -0.6654  1.6523  2.6926
   6323SM   H9G 8141   1.222   6.496  11.831 -1.4964  0.3098 -1.3589
   6323SM  C10F 8142   1.102   6.681  11.802  0.4016 -0.6672 -0.7210
   6323SM  H10F 8143   1.173   6.766  11.800  2.4534 -2.2749 -0.2382
   6323SM  H10G 8144   1.006   6.700  11.855  0.5884  1.0695 -0.9509
   6323SM  C11F 8145   1.064   6.652  11.658 -0.2071 -0.1309 -0.0521
   6323SM  H11F 8146   1.141   6.589  11.609 -0.2431 -0.5513  0.4314
   6323SM  H11G 8147   1.055   6.744  11.595 -2.9205  0.9086  1.6426
   6323SM  C12F 8148   0.931   6.582  11.654 -0.3633 -0.0390 -0.2747
   6323SM  H12F 8149   0.855   6.654  11.690 -0.5931 -0.1149 -0.5989
   6323SM  H12G 8150   0.946   6.493  11.719  4.5677  0.5876 -0.1696
   6323SM  C13F 8151   0.888   6.539  11.515  0.2750  0.1699 -0.1785
   6323SM  H13F 8152   0.966   6.480  11.463 -0.3145 -0.0598 -0.8176
   6323SM  H13G 8153   0.860   6.626  11.450  0.0715 -0.2865 -0.7089
   6323SM  C14F 8154   0.757   6.459  11.521 -0.0877  0.0947  0.2586
   6323SM  H14F 8155   0.681   6.526  11.566  1.1697  2.3022 -0.7810
   6323SM  H14G 8156   0.785   6.370  11.582 -0.2899 -1.3408 -1.6698
   6323SM  C15F 8157   0.714   6.413  11.381 -0.3717 -0.4941  0.2447
   6323SM  H15F 8158   0.627   6.344  11.379 -0.0438 -0.8952 -1.2824
   6323SM  H15G 8159   0.804   6.365  11.337  0.5882  0.1259  1.4906
   6323SM  C16F 8160   0.677   6.531  11.290 -0.0542  0.0262  0.0488
   6323SM  H16F 8161   0.766   6.596  11.277  0.7698 -1.2500 -0.7672
   6323SM  H16G 8162   0.595   6.577  11.349  0.6643 -0.8613  1.8019
   6323SM  C17F 8163   0.630   6.485  11.151 -0.1893  0.1778  0.7872
   6323SM  H17F 8164   0.577   6.571  11.105  4.3057  1.6349 -2.4287
   6323SM  H17G 8165   0.567   6.395  11.169 -1.2508  0.4862 -1.1554
   6323SM  C18F 8166   0.749   6.469  11.048  0.6178  0.4002 -0.0469
   6323SM  H18F 8167   0.818   6.396  11.094 -0.2898  1.7642  3.8713
   6323SM  H18G 8168   0.807   6.563  11.037  1.5086  0.0836  1.5831
   6323SM  C19F 8169   0.698   6.425  10.906 -0.4991 -0.4391  0.8795
   6323SM  H19F 8170   0.632   6.504  10.865 -0.4072 -0.0685  1.4407
   6323SM  H19G 8171   0.632   6.338  10.927 -0.0157 -0.8278  0.8157
   6323SM  C20F 8172   0.814   6.388  10.814  0.0086  0.5822 -0.1819
   6323SM  H20F 8173   0.885   6.326  10.873  0.1119 -2.4126 -3.1744
   6323SM  H20G 8174   0.857   6.489  10.796 -2.2885  1.4468 -1.1772
   6323SM  C21F 8175   0.775   6.321  10.689  0.3313  0.4522  0.1343
   6323SM  H21F 8176   0.859   6.347  10.620  0.2069 -0.5073 -0.3980
   6323SM  H21G 8177   0.689   6.372  10.641 -0.8374 -0.7267  0.9137
   6323SM  C22F 8178   0.766   6.170  10.701 -0.7965  0.1260 -0.0582
   6323SM  H22F 8179   0.837   6.137  10.780 -0.5200  0.6566 -0.0868
   6323SM  H22G 8180   0.823   6.120  10.619 -0.6534 -0.6608  0.5076
   6323SM  C23F 8181   0.631   6.105  10.722 -0.2284 -0.4984 -0.0084
   6323SM  H23F 8182   0.573   6.158  10.801 -1.1688 -0.3114 -0.7962
   6323SM  H23G 8183   0.638   5.999  10.755  0.1556 -0.0239  1.4732
   6323SM  H23H 8184   0.581   6.107  10.622  0.8463 -0.3835 -0.5523
   6423SM     N 8185   5.182   4.534  13.451 -0.5521  0.0806 -0.2609
   6423SM   C15 8186   5.307   4.584  13.385 -0.4791  0.3350  0.2089
   6423SM  H15A 8187   5.357   4.649  13.456 -1.4939 -0.3460  1.6149
   6423SM  H15B 8188   5.281   4.639  13.296 -0.8532 -1.6837 -0.9872
   6423SM  H15C 8189   5.374   4.514  13.340 -0.4984  1.2776 -1.3711
   6423SM   C14 8190   5.217   4.419  13.541  0.8405  0.2763  0.0611
   6423SM  H14A 8191   5.139   4.376  13.603  1.5307 -0.0912  0.6944
   6423SM  H14B 8192   5.302   4.450  13.599  0.9495 -1.3816  0.8382
   6423SM  H14C 8193   5.246   4.339  13.475  0.2572  0.7324 -0.7648
   6423SM   C13 8194   5.133   4.645  13.537 -0.4573 -0.2845 -0.4467
   6423SM  H13A 8195   5.041   4.611  13.582  1.9184 -3.1618  2.7439
   6423SM  H13B 8196   5.109   4.737  13.486 -3.0020  0.8420  2.5158
   6423SM  H13C 8197   5.202   4.669  13.616 -2.4567  1.9395  0.7478
   6423SM   C12 8198   5.076   4.499  13.351 -0.0604 -0.5969  0.6816
   6423SM  H12A 8199   4.982   4.487  13.402 -2.2896  1.3208 -2.6497
   6423SM  H12B 8200   5.100   4.401  13.313  0.2276  0.5135 -2.2587
   6423SM   C11 8201   5.053   4.601  13.235 -0.4199 -0.0075 -0.0187
   6423SM  H11A 8202   4.989   4.545  13.163  0.5244  1.3197 -1.9672
   6423SM  H11B 8203   5.153   4.617  13.190 -1.0752 -1.0406 -1.9755
   6423SM     P 8204   4.843   4.743  13.282  0.3672 -0.0041 -0.4952
   6423SM   O13 8205   4.778   4.625  13.351 -0.1761 -0.2650 -0.2155
   6423SM   O14 8206   4.816   4.871  13.351  0.2806 -0.2145  0.0720
   6423SM   O11 8207   4.801   4.752  13.125 -0.1019  0.0413 -0.4122
   6423SM   O12 8208   4.997   4.721  13.282  0.1274  0.0277 -0.2084
   6423SM   C1S 8209   4.867   4.861  13.055  0.1212 -0.4699  0.5122
   6423SM   H1S 8210   4.967   4.821  13.029  0.7705  0.7241  1.0905
   6423SM   H1T 8211   4.885   4.951  13.118  2.0375 -0.5946  0.1848
   6423SM    NF 8212   4.856   5.018  12.870  0.2822  0.3918 -0.5013
   6423SM   HNF 8213   4.813   5.105  12.893  0.3733  0.1549  0.6221
   6423SM   C2S 8214   4.793   4.908  12.926 -0.2310  0.4361 -0.2436
   6423SM   H2S 8215   4.803   4.823  12.855 -1.5144  0.8975 -1.0174
   6423SM   C3S 8216   4.638   4.919  12.947 -0.4140 -0.3692 -0.3654
   6423SM   H3S 8217   4.611   4.993  13.025 -1.4483  0.2630 -1.2974
   6423SM    O3 8218   4.576   4.797  12.991 -0.0839 -0.3382 -0.2663
   6423SM   HO3 8219   4.655   4.743  12.994  0.5158  0.5811  0.8013
   6423SM   C4S 8220   4.579   4.949  12.812 -0.2945  0.0554 -0.0772
   6423SM   H4S 8221   4.592   4.863  12.744 -1.3665  1.9053 -2.7836
   6423SM   C5S 8222   4.532   5.065  12.776 -0.1128 -0.2362 -0.3921
   6423SM   H5S 8223   4.544   5.149  12.846  2.0237 -1.2270  0.4959
   6423SM   C6S 8224   4.471   5.120  12.648  0.2541 -0.3842  0.6831
   6423SM   H6S 8225   4.532   5.203  12.605 -1.3916 -0.0490 -1.1328
   6423SM   H6T 8226   4.366   5.153  12.665 -0.4170 -1.1935 -1.4918
   6423SM   C7S 8227   4.456   5.013  12.545 -0.1347 -0.6318  0.4084
   6423SM   H7S 8228   4.393   4.930  12.584 -0.7081 -0.4309 -0.0676
   6423SM   H7T 8229   4.556   4.974  12.517 -0.3315  0.3982 -2.0089
   6423SM   C8S 8230   4.387   5.069  12.416 -0.6478 -0.0430 -0.3147
   6423SM   H8S 8231   4.459   5.145  12.377 -0.0552 -0.9654 -1.0665
   6423SM   H8T 8232   4.303   5.136  12.443  1.0125  2.7130 -1.4781
   6423SM   C9S 8233   4.362   4.963  12.308 -0.1358  0.0336 -0.1949
   6423SM   H9S 8234   4.360   4.863  12.356  3.0010 -0.7579 -1.4889
   6423SM   H9T 8235   4.452   4.965  12.243 -0.1503 -1.1061 -0.2583
   6423SM  C10S 8236   4.228   4.978  12.219 -0.7730 -0.4786 -0.2375
   6423SM  H10S 8237   4.231   4.907  12.134 -0.1490  0.6292 -1.1747
   6423SM  H10T 8238   4.220   5.078  12.171  3.0159 -0.4935 -1.2096
   6423SM  C11S 8239   4.096   4.981  12.297 -0.3932 -0.2143 -0.2905
   6423SM  H11S 8240   4.098   5.042  12.389 -1.9411 -1.6752  0.7639
   6423SM  H11T 8241   4.081   4.876  12.331 -0.3222 -0.8139 -1.9766
   6423SM  C12S 8242   3.967   5.023  12.220  0.5446  1.0471  0.0685
   6423SM  H12S 8243   3.961   5.134  12.219 -0.8028  0.9907 -0.9614
   6423SM  H12T 8244   3.879   4.989  12.278 -0.5563  0.3384 -1.9140
   6423SM  C13S 8245   3.961   4.951  12.082 -0.1548  0.4581 -0.2309
   6423SM  H13S 8246   4.001   4.850  12.104  0.8695  0.8925 -0.0541
   6423SM  H13T 8247   4.019   5.004  12.003 -0.9905  1.2261 -0.3531
   6423SM  C14S 8248   3.814   4.963  12.043 -0.3339 -0.1523  0.1476
   6423SM  H14S 8249   3.791   5.071  12.032 -2.0265 -0.4407  0.6099
   6423SM  H14T 8250   3.754   4.938  12.133  0.9888 -0.9477  0.8456
   6423SM  C15S 8251   3.774   4.877  11.920 -0.2173  0.6338  0.5043
   6423SM  H15S 8252   3.665   4.875  11.903 -0.1883  0.6566  0.3170
   6423SM  H15T 8253   3.795   4.772  11.951 -1.2649  0.9823  2.5586
   6423SM  C16S 8254   3.846   4.896  11.788 -0.1270 -0.2205  0.4702
   6423SM  H16S 8255   3.816   4.823  11.710  0.6537 -0.1429  0.0868
   6423SM  H16T 8256   3.956   4.890  11.801  0.3595  0.5914 -2.4233
   6423SM  C17S 8257   3.821   5.034  11.731  0.4754  0.2537 -0.7628
   6423SM  H17S 8258   3.864   5.117  11.790 -1.3830 -1.0601  2.6858
   6423SM  H17T 8259   3.712   5.055  11.739  0.5397  0.5389 -0.6451
   6423SM  C18S 8260   3.856   5.043  11.578 -0.5250 -0.3714  0.1180
   6423SM  H18S 8261   3.868   5.148  11.543  0.1671 -0.6006 -0.3450
   6423SM  H18T 8262   3.782   4.985  11.519 -1.4125 -1.1437  1.9072
   6423SM  H18U 8263   3.957   5.000  11.561  0.2506 -0.2566  3.6608
   6423SM   C1F 8264   4.978   5.016  12.808  0.1662 -0.8304 -0.1115
   6423SM    OF 8265   5.026   4.909  12.775  0.2997 -0.4390 -0.0415
   6423SM   C2F 8266   5.045   5.152  12.788 -0.6150 -0.1785  0.6886
   6423SM   H2F 8267   5.076   5.185  12.889 -1.8993 -1.0395  1.3960
   6423SM   H2G 8268   4.983   5.224  12.731 -0.2065 -0.3140  0.0633
   6423SM   C3F 8269   5.170   5.143  12.704  0.9470  0.0484  0.2776
   6423SM   H3F 8270   5.153   5.118  12.597  1.9485  0.9210 -0.1008
   6423SM   H3G 8271   5.237   5.061  12.741 -1.2935 -2.0111  0.0001
   6423SM   C4F 8272   5.252   5.272  12.709  0.3151 -0.8034  0.0501
   6423SM   H4F 8273   5.361   5.254  12.708  0.3893 -0.3639 -0.3438
   6423SM   H4G 8274   5.233   5.332  12.800  0.2095 -0.1552 -0.3867
   6423SM   C5F 8275   5.226   5.367  12.589 -0.2457  0.5882  0.7233
   6423SM   H5F 8276   5.122   5.362  12.552  0.1039  0.3252 -0.2592
   6423SM   H5G 8277   5.287   5.327  12.505 -0.7287 -0.7186  0.9797
   6423SM   C6F 8278   5.267   5.511  12.616 -0.5609  0.5266 -0.0940
   6423SM   H6F 8279   5.376   5.500  12.635 -0.6552  0.4784  0.4374
   6423SM   H6G 8280   5.212   5.546  12.706 -0.6082  2.2899 -0.7649
   6423SM   C7F 8281   5.250   5.610  12.504 -0.6127  0.7197  0.3990
   6423SM   H7F 8282   5.268   5.712  12.543  0.4105  0.6716  0.0778
   6423SM   H7G 8283   5.144   5.621  12.471 -0.4015  1.3128 -0.1034
   6423SM   C8F 8284   5.344   5.581  12.386  0.5586  0.2570 -0.1149
   6423SM   H8F 8285   5.312   5.491  12.329 -0.2317  1.5034 -1.7231
   6423SM   H8G 8286   5.449   5.566  12.420  0.4413 -0.0389  0.1232
   6423SM   C9F 8287   5.341   5.693  12.274 -0.2883  1.1520 -1.3241
   6423SM   H9F 8288   5.405   5.775  12.313 -1.3184  1.1337  0.5063
   6423SM   H9G 8289   5.233   5.720  12.279 -0.5880 -0.2358  1.5909
   6423SM  C10F 8290   5.375   5.649  12.128 -0.8008  0.8466  0.0048
   6423SM  H10F 8291   5.331   5.717  12.052  0.8099  0.0955 -1.6800
   6423SM  H10G 8292   5.326   5.554  12.098  2.3842 -0.2809 -2.1413
   6423SM  C11F 8293   5.531   5.644  12.112 -0.2979  0.9354 -0.4010
   6423SM  H11F 8294   5.574   5.568  12.181  0.2113  0.9830 -0.6668
   6423SM  H11G 8295   5.571   5.746  12.126  2.2827  0.7106 -4.4435
   6423SM  C12F 8296   5.573   5.591  11.972 -0.2161  0.5828 -0.0036
   6423SM  H12F 8297   5.560   5.481  11.961 -0.5634  0.7234 -1.1062
   6423SM  H12G 8298   5.678   5.616  11.948 -1.4001  2.2397 -4.4865
   6423SM  C13F 8299   5.485   5.653  11.856  0.4940  0.1356  0.0479
   6423SM  H13F 8300   5.494   5.764  11.850  0.8534  0.0364 -1.7590
   6423SM  H13G 8301   5.381   5.619  11.878 -0.0760  0.5704 -1.8066
   6423SM  C14F 8302   5.504   5.590  11.720 -0.1910  0.1134 -0.0511
   6423SM  H14F 8303   5.486   5.481  11.733 -2.3749 -0.0654 -3.2764
   6423SM  H14G 8304   5.605   5.606  11.677 -0.0389  1.2089  0.6846
   6423SM  C15F 8305   5.403   5.641  11.615 -0.9224  0.6719 -0.3822
   6423SM  H15F 8306   5.302   5.617  11.655 -0.9280 -0.8008 -1.1951
   6423SM  H15G 8307   5.415   5.574  11.527 -1.2655  0.5922 -0.3691
   6423SM  C16F 8308   5.415   5.783  11.567  0.0060 -0.3851  0.1327
   6423SM  H16F 8309   5.503   5.794  11.500 -0.4216 -0.2366 -0.4084
   6423SM  H16G 8310   5.438   5.859  11.645 -0.4247 -1.5140  1.3992
   6423SM  C17F 8311   5.299   5.832  11.481 -0.2724  0.3523  0.1897
   6423SM  H17F 8312   5.315   5.942  11.472 -0.1062  0.3486  0.4328
   6423SM  H17G 8313   5.200   5.830  11.532 -1.1476 -0.3848 -1.4824
   6423SM  C18F 8314   5.292   5.779  11.335 -0.2138 -0.1098 -1.1659
   6423SM  H18F 8315   5.243   5.679  11.334  0.7122 -0.5862 -0.5233
   6423SM  H18G 8316   5.390   5.776  11.282  0.6552 -0.3773  0.4127
   6423SM  C19F 8317   5.198   5.874  11.262 -0.3948 -0.5892 -0.7428
   6423SM  H19F 8318   5.236   5.978  11.269 -1.0941 -0.2325 -1.9428
   6423SM  H19G 8319   5.095   5.871  11.305  0.2532 -0.0022  0.9305
   6423SM  C20F 8320   5.179   5.841  11.110  0.7684 -0.2109 -0.6805
   6423SM  H20F 8321   5.113   5.752  11.102 -0.2698  0.2057  2.1142
   6423SM  H20G 8322   5.283   5.827  11.072  1.3455  1.4993  0.1891
   6423SM  C21F 8323   5.124   5.963  11.029 -0.3224 -0.0218  0.3070
   6423SM  H21F 8324   5.191   6.050  11.047  0.6641 -0.6584 -0.1939
   6423SM  H21G 8325   5.026   6.002  11.065 -0.6351 -0.1125 -0.4341
   6423SM  C22F 8326   5.108   5.933  10.881  0.7627  0.1189  0.2862
   6423SM  H22F 8327   5.025   5.862  10.857 -1.8427  3.2749 -0.8510
   6423SM  H22G 8328   5.205   5.896  10.842  0.5727 -0.9804  0.8387
   6423SM  C23F 8329   5.081   6.058  10.799 -0.0812  0.1609 -0.0971
   6423SM  H23F 8330   5.052   6.033  10.695  1.0546  1.9781 -0.9040
   6423SM  H23G 8331   5.163   6.133  10.797 -0.8793  1.0505 -0.9734
   6423SM  H23H 8332   4.997   6.115  10.846  0.9641  0.5219  1.4133
   6523SM     N 8333   4.648   6.522  13.702 -0.1766 -0.0130 -0.0837
   6523SM   C15 8334   4.611   6.627  13.799  0.3109  0.5375 -0.0087
   6523SM  H15A 8335   4.613   6.722  13.747 -1.9185 -0.9795 -3.1807
   6523SM  H15B 8336   4.667   6.626  13.891  0.6474 -2.0272 -0.1713
   6523SM  H15C 8337   4.510   6.616  13.836  0.5362  1.4836  0.9343
   6523SM   C14 8338   4.663   6.396  13.777  0.4304 -0.2416 -0.4294
   6523SM  H14A 8339   4.736   6.395  13.857  0.2154 -1.5031 -0.2406
   6523SM  H14B 8340   4.697   6.317  13.712  1.5769 -1.9286  2.0566
   6523SM  H14C 8341   4.564   6.370  13.812  0.1192 -1.2319 -1.9828
   6523SM   C13 8342   4.533   6.509  13.615 -0.1328 -0.3293 -0.4529
   6523SM  H13A 8343   4.527   6.422  13.551  3.2247  0.8931 -2.6550
   6523SM  H13B 8344   4.518   6.589  13.544 -2.1576 -0.0488  0.2237
   6523SM  H13C 8345   4.444   6.508  13.677  1.7692  1.3745  2.5642
   6523SM   C12 8346   4.770   6.555  13.628  0.5562  0.4627  0.3780
   6523SM  H12A 8347   4.850   6.561  13.701 -1.2125 -1.6199  2.6612
   6523SM  H12B 8348   4.756   6.652  13.583  0.9701  1.2654  1.8914
   6523SM   C11 8349   4.802   6.450  13.506  0.4336 -0.9800 -0.2015
   6523SM  H11A 8350   4.879   6.498  13.443 -0.3447 -0.8687 -1.0933
   6523SM  H11B 8351   4.709   6.440  13.446 -0.2891  0.0753  0.7037
   6523SM     P 8352   4.785   6.188  13.504 -0.2644  0.1543 -0.1838
   6523SM   O13 8353   4.903   6.106  13.462 -0.2389 -0.1162  0.4271
   6523SM   O14 8354   4.689   6.133  13.604 -0.2232  0.0182  0.5983
   6523SM   O11 8355   4.711   6.227  13.380  0.5928  0.1836 -0.2502
   6523SM   O12 8356   4.843   6.326  13.561  0.4079 -0.4373  0.0306
   6523SM   C1S 8357   4.667   6.137  13.272  0.0283 -0.0140  0.7764
   6523SM   H1S 8358   4.568   6.091  13.291 -0.5940 -0.0321 -2.0627
   6523SM   H1T 8359   4.723   6.041  13.262 -1.6682 -0.8637 -1.2257
   6523SM    NF 8360   4.536   6.140  13.055 -0.3215 -0.1344 -0.4813
   6523SM   HNF 8361   4.556   6.099  12.966 -0.0400 -0.4093 -0.2919
   6523SM   C2S 8362   4.638   6.212  13.138  0.5086  0.8684  0.6531
   6523SM   H2S 8363   4.586   6.306  13.166 -4.1195 -0.5973 -1.9285
   6523SM   C3S 8364   4.770   6.257  13.065  0.2924 -0.0384  0.2757
   6523SM   H3S 8365   4.802   6.162  13.017  0.4801 -1.5581  3.1937
   6523SM    O3 8366   4.879   6.302  13.144  0.4139 -0.3068 -0.4290
   6523SM   HO3 8367   4.842   6.303  13.233  1.8399  0.7587  0.1914
   6523SM   C4S 8368   4.746   6.350  12.939 -0.7715  0.1991 -1.0063
   6523SM   H4S 8369   4.741   6.290  12.848 -1.4584  0.8193 -1.3866
   6523SM   C5S 8370   4.760   6.483  12.932  0.0205 -0.2792 -0.2531
   6523SM   H5S 8371   4.806   6.541  13.014  2.4142 -1.9409 -0.2835
   6523SM   C6S 8372   4.752   6.547  12.801  0.3932  0.6650 -0.1575
   6523SM   H6S 8373   4.664   6.614  12.811  1.4428  2.8734 -3.7834
   6523SM   H6T 8374   4.714   6.474  12.727  2.5989  0.6769 -1.3978
   6523SM   C7S 8375   4.859   6.643  12.764 -0.4403 -0.2879 -0.1082
   6523SM   H7S 8376   4.953   6.584  12.768  0.0967  0.4042 -1.7562
   6523SM   H7T 8377   4.878   6.728  12.832 -0.1803 -0.8727  0.5695
   6523SM   C8S 8378   4.835   6.697  12.623  0.1248  0.4382 -0.3063
   6523SM   H8S 8379   4.896   6.789  12.630  0.3117  0.2454  0.8001
   6523SM   H8T 8380   4.727   6.720  12.617  0.2745  1.3787  0.4129
   6523SM   C9S 8381   4.863   6.599  12.502 -0.0788 -0.4700 -0.8340
   6523SM   H9S 8382   4.798   6.509  12.508  1.1565 -1.4509 -1.6498
   6523SM   H9T 8383   4.969   6.566  12.509 -0.3359 -1.1479  0.0196
   6523SM  C10S 8384   4.855   6.660  12.361 -0.0721  0.5229  0.1135
   6523SM  H10S 8385   4.875   6.582  12.284  0.2346  1.8997 -1.2420
   6523SM  H10T 8386   4.925   6.742  12.336  0.0588  0.5856  0.6632
   6523SM  C11S 8387   4.707   6.703  12.325 -0.4599  0.4900  0.0729
   6523SM  H11S 8388   4.686   6.789  12.392  0.3703  0.0104  0.9877
   6523SM  H11T 8389   4.628   6.626  12.342  1.2759 -1.4752 -0.2636
   6523SM  C12S 8390   4.681   6.742  12.180  0.6287  0.3694 -0.7642
   6523SM  H12S 8391   4.572   6.754  12.166  0.3824 -1.0207 -0.1519
   6523SM  H12T 8392   4.722   6.659  12.118  1.8014 -0.9149  1.6152
   6523SM  C13S 8393   4.745   6.874  12.161  0.4518 -0.4206 -0.1290
   6523SM  H13S 8394   4.852   6.846  12.166  0.7359  0.3324 -1.4823
   6523SM  H13T 8395   4.709   6.954  12.229 -0.5174  1.4859 -2.6956
   6523SM  C14S 8396   4.744   6.925  12.018 -0.5245 -0.3135 -0.0045
   6523SM  H14S 8397   4.818   6.861  11.966  0.4424  0.9444 -0.2175
   6523SM  H14T 8398   4.782   7.030  12.022  1.0849 -0.9125  1.5001
   6523SM  C15S 8399   4.615   6.934  11.932 -0.2262 -0.1147 -0.0039
   6523SM  H15S 8400   4.568   6.833  11.935 -1.8107  0.6048  1.8089
   6523SM  H15T 8401   4.635   6.971  11.829 -0.1287 -0.0296  0.0455
   6523SM  C16S 8402   4.514   7.022  12.005  0.2355 -0.2746  0.4165
   6523SM  H16S 8403   4.541   7.129  11.991  3.7089 -1.1627 -0.6394
   6523SM  H16T 8404   4.515   6.987  12.110  0.3331 -1.8223 -0.0687
   6523SM  C17S 8405   4.374   7.015  11.943  0.2732  0.2153  0.0458
   6523SM  H17S 8406   4.321   6.933  11.997 -0.3858  1.6492  1.6684
   6523SM  H17T 8407   4.395   6.999  11.835 -0.5282  0.9361 -0.2250
   6523SM  C18S 8408   4.300   7.150  11.963 -0.1569 -0.6072 -0.0899
   6523SM  H18S 8409   4.324   7.183  12.067  0.3077  0.7122 -0.5961
   6523SM  H18T 8410   4.191   7.150  11.944 -0.2121  1.3295 -0.0630
   6523SM  H18U 8411   4.343   7.224  11.892 -1.7261 -0.9073 -1.3937
   6523SM   C1F 8412   4.412   6.109  13.100 -0.1336  0.0919  0.3396
   6523SM    OF 8413   4.367   6.157  13.202 -0.0373 -0.4532 -0.6749
   6523SM   C2F 8414   4.330   6.024  13.011 -0.1014  0.2542 -0.5726
   6523SM   H2F 8415   4.350   5.916  13.023  1.5148  0.5754 -0.2043
   6523SM   H2G 8416   4.362   6.045  12.906  2.5995 -1.6889 -0.2418
   6523SM   C3F 8417   4.185   6.074  13.009 -0.3064  0.3176 -0.4931
   6523SM   H3F 8418   4.189   6.183  12.989  1.6229 -0.2056 -3.5942
   6523SM   H3G 8419   4.140   6.051  13.108 -0.7401  1.5317 -0.3876
   6523SM   C4F 8420   4.102   5.980  12.913 -0.3601  0.1991  0.4918
   6523SM   H4F 8421   4.108   5.872  12.940 -1.4169  0.6296  2.7214
   6523SM   H4G 8422   4.142   6.001  12.812 -0.8310 -0.3251  0.1899
   6523SM   C5F 8423   3.962   6.034  12.917 -0.2605  0.3779  0.4514
   6523SM   H5F 8424   3.968   6.144  12.926 -1.0187  0.3655  1.1741
   6523SM   H5G 8425   3.892   6.000  12.996 -0.0893  1.9927  1.3312
   6523SM   C6F 8426   3.875   5.997  12.795  0.1832 -0.3059 -0.0459
   6523SM   H6F 8427   3.776   6.041  12.820  1.3080  1.0575  2.4114
   6523SM   H6G 8428   3.857   5.888  12.789 -1.7872 -0.0971  1.1537
   6523SM   C7F 8429   3.906   6.072  12.667 -0.2382 -0.0474 -0.3913
   6523SM   H7F 8430   3.989   6.019  12.616 -0.8628  1.3443 -3.0294
   6523SM   H7G 8431   3.940   6.173  12.698 -2.4291  0.1684  1.5902
   6523SM   C8F 8432   3.788   6.072  12.573 -0.4008 -0.4003 -0.4194
   6523SM   H8F 8433   3.710   6.134  12.623 -1.6572 -1.5305 -0.9186
   6523SM   H8G 8434   3.738   5.975  12.553 -1.9225  0.2557 -0.0060
   6523SM   C9F 8435   3.819   6.147  12.439  0.0687  0.2145 -0.7923
   6523SM   H9F 8436   3.883   6.088  12.370  1.4304  1.6658 -0.8054
   6523SM   H9G 8437   3.868   6.243  12.464 -0.1831 -0.0615  0.8568
   6523SM  C10F 8438   3.688   6.189  12.368  0.5149  0.4276 -0.5333
   6523SM  H10F 8439   3.635   6.254  12.440 -2.3829 -0.5359 -1.6821
   6523SM  H10G 8440   3.620   6.102  12.357 -0.7533  1.1530  1.1443
   6523SM  C11F 8441   3.692   6.250  12.225 -0.3199  0.4307  0.1141
   6523SM  H11F 8442   3.752   6.343  12.218 -0.0622  0.1478 -2.0233
   6523SM  H11G 8443   3.589   6.279  12.197 -0.1746 -2.2312 -4.0476
   6523SM  C12F 8444   3.746   6.156  12.121  0.7143 -0.2700 -0.1098
   6523SM  H12F 8445   3.672   6.074  12.116 -1.1770  1.0925  2.9560
   6523SM  H12G 8446   3.845   6.113  12.149  1.0266  0.1241 -0.5692
   6523SM  C13F 8447   3.759   6.233  11.987  0.2681  0.1955 -0.1757
   6523SM  H13F 8448   3.652   6.241  11.956  0.2962 -0.0457 -0.3408
   6523SM  H13G 8449   3.803   6.159  11.916 -0.3803 -2.3847  1.9391
   6523SM  C14F 8450   3.836   6.366  11.990  0.1200  0.2632 -0.2409
   6523SM  H14F 8451   3.928   6.362  12.053 -1.4647  0.6348  2.2604
   6523SM  H14G 8452   3.773   6.448  12.030  0.3230  0.3590 -0.1145
   6523SM  C15F 8453   3.877   6.418  11.848  0.5389 -0.3447 -0.8413
   6523SM  H15F 8454   3.927   6.333  11.798  0.7398  0.6132 -2.3305
   6523SM  H15G 8455   3.947   6.502  11.866  0.3167 -0.6907  2.1095
   6523SM  C16F 8456   3.747   6.468  11.769 -0.6282  0.9619 -0.2891
   6523SM  H16F 8457   3.697   6.524  11.851  0.8384  0.1436  1.2423
   6523SM  H16G 8458   3.683   6.381  11.742  1.4388 -1.1189  1.0666
   6523SM  C17F 8459   3.777   6.561  11.653 -0.1843 -0.1920  0.1621
   6523SM  H17F 8460   3.822   6.515  11.562 -3.4852 -0.1593 -1.6264
   6523SM  H17G 8461   3.846   6.637  11.695  0.3596  0.3204 -1.5750
   6523SM  C18F 8462   3.649   6.629  11.621  0.5666 -0.2562 -0.2038
   6523SM  H18F 8463   3.608   6.684  11.708  1.2772 -2.2270  1.4464
   6523SM  H18G 8464   3.574   6.557  11.584 -1.1680  1.5686 -0.4488
   6523SM  C19F 8465   3.669   6.723  11.502 -0.4286 -0.4451 -0.4367
   6523SM  H19F 8466   3.755   6.689  11.440  1.5202  0.6149  1.5529
   6523SM  H19G 8467   3.699   6.822  11.543 -1.9472  0.5225 -1.5386
   6523SM  C20F 8468   3.541   6.740  11.419 -0.5157 -0.1092  0.3229
   6523SM  H20F 8469   3.471   6.802  11.480 -0.5980 -0.4702  0.5963
   6523SM  H20G 8470   3.489   6.643  11.402  2.5760 -1.8751  0.1786
   6523SM  C21F 8471   3.573   6.799  11.286 -0.7048 -1.1585  0.6292
   6523SM  H21F 8472   3.614   6.712  11.230  1.0414  0.7827 -1.2702
   6523SM  H21G 8473   3.646   6.881  11.299  0.1819 -2.1189  2.0428
   6523SM  C22F 8474   3.456   6.855  11.214 -0.4440 -0.0154 -0.1958
   6523SM  H22F 8475   3.448   6.964  11.238  1.8048  0.8022 -2.7326
   6523SM  H22G 8476   3.366   6.799  11.247  1.0048 -1.2991  1.8091
   6523SM  C23F 8477   3.476   6.842  11.062  0.2496 -0.1736 -0.3544
   6523SM  H23F 8478   3.454   6.736  11.039 -1.1126  0.2100 -0.9145
   6523SM  H23G 8479   3.579   6.872  11.032  1.5357 -2.1412  1.7227
   6523SM  H23H 8480   3.407   6.906  11.004 -0.0812 -0.7256 -0.5755
   6623SM     N 8481   0.724   2.501  13.039  0.2937  0.0579  1.2487
   6623SM   C15 8482   0.581   2.526  13.056 -0.0072 -0.4291  0.2251
   6623SM  H15A 8483   0.527   2.473  12.979  0.3979  2.0389 -1.9203
   6623SM  H15B 8484   0.550   2.629  13.042  0.6993 -0.0793  1.1516
   6623SM  H15C 8485   0.537   2.500  13.151  2.9905 -3.4426  0.9501
   6623SM   C14 8486   0.802   2.542  13.160  0.2833  0.1728  0.3432
   6623SM  H14A 8487   0.810   2.650  13.158 -1.0452  0.3014  0.7486
   6623SM  H14B 8488   0.903   2.507  13.148  0.6192  1.3814 -0.6482
   6623SM  H14C 8489   0.751   2.511  13.250 -0.0978  0.2247  0.1499
   6623SM   C13 8490   0.749   2.356  13.020 -0.3592 -0.0381  0.6131
   6623SM  H13A 8491   0.713   2.307  13.109 -1.1708  1.3427  1.0699
   6623SM  H13B 8492   0.854   2.341  13.001 -0.3129  0.2011  0.6912
   6623SM  H13C 8493   0.708   2.320  12.926 -2.4008 -0.1511  1.5098
   6623SM   C12 8494   0.780   2.567  12.911 -0.3048 -0.6432 -0.4162
   6623SM  H12A 8495   0.772   2.673  12.926 -1.7151 -0.9345  1.2348
   6623SM  H12B 8496   0.717   2.542  12.827 -0.1795  2.6273 -1.6184
   6623SM   C11 8497   0.924   2.526  12.864 -0.9410  0.4847  0.4830
   6623SM  H11A 8498   0.942   2.584  12.771  2.3189  1.8908  1.8200
   6623SM  H11B 8499   0.922   2.420  12.830  0.9232  0.5741  0.0156
   6623SM     P 8500   1.116   2.671  12.979  0.1142  0.0425 -0.1113
   6623SM   O13 8501   1.084   2.729  13.104 -0.1073 -0.4487 -0.2541
   6623SM   O14 8502   1.254   2.623  12.971  0.0333  0.0647 -0.1067
   6623SM   O11 8503   1.075   2.780  12.866  0.1108  0.3298  0.4429
   6623SM   O12 8504   1.025   2.545  12.965  0.0205 -0.0967 -0.0278
   6623SM   C1S 8505   1.183   2.820  12.773  0.2834 -0.6293 -0.2171
   6623SM   H1S 8506   1.256   2.739  12.754 -0.1311 -0.7981 -1.1116
   6623SM   H1T 8507   1.218   2.922  12.801  1.8730 -1.2392  0.1266
   6623SM    NF 8508   1.250   2.899  12.545  0.1249  0.7138  0.5729
   6623SM   HNF 8509   1.250   2.998  12.533 -3.8179  1.0986  1.9887
   6623SM   C2S 8510   1.141   2.839  12.627  0.6137 -0.1640 -0.6012
   6623SM   H2S 8511   1.123   2.739  12.582 -2.7045 -0.2133  0.5363
   6623SM   C3S 8512   1.015   2.921  12.628  0.3163  0.1399  0.7220
   6623SM   H3S 8513   1.034   3.024  12.666 -0.6577  0.6510 -0.1324
   6623SM    O3 8514   0.907   2.877  12.712  0.5720 -0.1580 -0.1265
   6623SM   HO3 8515   0.946   2.814  12.773  0.3312 -0.9718 -0.7991
   6623SM   C4S 8516   0.953   2.949  12.491  0.1410  1.3350  0.9523
   6623SM   H4S 8517   0.970   3.050  12.452  0.2087  1.7446  1.9979
   6623SM   C5S 8518   0.864   2.860  12.433 -0.1260 -0.1753 -0.1260
   6623SM   H5S 8519   0.847   2.765  12.485 -1.6143  1.1614  1.9678
   6623SM   C6S 8520   0.783   2.890  12.318 -0.0531 -0.1851 -0.0322
   6623SM   H6S 8521   0.683   2.910  12.362  0.8711  0.2086  1.9748
   6623SM   H6T 8522   0.781   2.798  12.254 -1.5965 -0.6150  0.5893
   6623SM   C7S 8523   0.811   3.004  12.222 -0.5773  0.2432  0.0913
   6623SM   H7S 8524   0.920   3.020  12.207 -0.7227  2.7587  1.2994
   6623SM   H7T 8525   0.774   3.098  12.268 -0.4693 -0.0418  0.7753
   6623SM   C8S 8526   0.740   2.985  12.082  0.0188 -0.1219 -0.5875
   6623SM   H8S 8527   0.636   2.951  12.101  0.8816 -1.4372  2.2862
   6623SM   H8T 8528   0.802   2.907  12.034  0.9463  0.1756  0.1129
   6623SM   C9S 8529   0.746   3.118  12.008  0.7257  0.2225 -0.1654
   6623SM   H9S 8530   0.854   3.138  11.993  0.7625 -0.5802 -1.1273
   6623SM   H9T 8531   0.705   3.203  12.065  0.1817 -1.2087  1.6789
   6623SM  C10S 8532   0.676   3.110  11.869  0.4121 -0.0376  0.3179
   6623SM  H10S 8533   0.641   3.212  11.840 -0.1907 -0.4300 -0.3822
   6623SM  H10T 8534   0.583   3.049  11.877  0.9942 -0.9792 -0.0239
   6623SM  C11S 8535   0.771   3.044  11.767 -0.2377 -0.3809 -0.2230
   6623SM  H11S 8536   0.823   2.958  11.814 -0.1965 -0.3565 -0.2241
   6623SM  H11T 8537   0.851   3.118  11.743 -1.3187  1.6304  1.9450
   6623SM  C12S 8538   0.704   3.015  11.638 -1.1086  0.0624  0.2220
   6623SM  H12S 8539   0.645   3.096  11.591  0.0034 -0.7631 -2.8250
   6623SM  H12T 8540   0.629   2.937  11.663 -1.3569  0.2824  0.1664
   6623SM  C13S 8541   0.802   2.960  11.535 -0.4023 -0.7719  0.0051
   6623SM  H13S 8542   0.740   2.911  11.457 -1.3779  1.2625 -0.5638
   6623SM  H13T 8543   0.879   2.893  11.580 -1.8046 -1.2891  1.7069
   6623SM  C14S 8544   0.878   3.069  11.454  0.2762 -0.6651 -0.2618
   6623SM  H14S 8545   0.967   3.097  11.515  0.5734  1.2021 -1.4540
   6623SM  H14T 8546   0.818   3.162  11.445  0.6036 -0.3389  0.7589
   6623SM  C15S 8547   0.935   3.024  11.314  0.4028 -0.3672 -0.4061
   6623SM  H15S 8548   0.853   2.986  11.249  0.7173 -2.6711  0.4514
   6623SM  H15T 8549   1.005   2.941  11.338 -1.1244 -1.5441  0.1791
   6623SM  C16S 8550   1.011   3.131  11.249  0.7879  0.0685  0.3070
   6623SM  H16S 8551   0.991   3.233  11.288  0.6614  0.2250 -0.1529
   6623SM  H16T 8552   0.985   3.136  11.141 -1.3746  0.3804  0.8158
   6623SM  C17S 8553   1.165   3.109  11.258  0.5432  0.6328  1.0732
   6623SM  H17S 8554   1.177   3.061  11.358 -3.0326 -1.5939  0.6333
   6623SM  H17T 8555   1.216   3.207  11.250  0.6329  0.4895 -0.3546
   6623SM  C18S 8556   1.229   3.024  11.145  0.1839  0.5060 -0.1300
   6623SM  H18S 8557   1.208   3.080  11.051 -1.7375  0.0179 -0.0324
   6623SM  H18T 8558   1.190   2.920  11.141  1.0539  0.1915 -2.4678
   6623SM  H18U 8559   1.339   3.028  11.160  0.3612  2.0635 -1.5047
   6623SM   C1F 8560   1.345   2.824  12.498 -0.8912  0.8408 -0.2342
   6623SM    OF 8561   1.335   2.703  12.516  0.1535 -0.0982  0.2043
   6623SM   C2F 8562   1.467   2.902  12.442  0.3702  0.0495  0.0257
   6623SM   H2F 8563   1.538   2.909  12.527  1.9841 -0.1255 -1.2600
   6623SM   H2G 8564   1.452   3.009  12.415  3.0854  0.3049 -0.8647
   6623SM   C3F 8565   1.542   2.827  12.331  0.8891  0.4498  0.1047
   6623SM   H3F 8566   1.479   2.830  12.239 -0.9883 -0.4269  1.2858
   6623SM   H3G 8567   1.566   2.726  12.370  0.2200  0.4481  0.5403
   6623SM   C4F 8568   1.673   2.884  12.292  0.4350  0.5735  0.2292
   6623SM   H4F 8569   1.760   2.847  12.351  1.8172  2.1872 -0.7348
   6623SM   H4G 8570   1.668   2.994  12.278  0.1397  0.4264 -0.9652
   6623SM   C5F 8571   1.705   2.844  12.151 -0.0797  0.7871  0.1688
   6623SM   H5F 8572   1.799   2.897  12.123  0.9471 -2.0586 -2.3320
   6623SM   H5G 8573   1.627   2.869  12.076 -0.8018  0.0807  0.6767
   6623SM   C6F 8574   1.729   2.695  12.129 -0.4680  0.1104  0.6059
   6623SM   H6F 8575   1.644   2.637  12.172 -1.9810  0.9880 -1.0714
   6623SM   H6G 8576   1.830   2.667  12.167 -0.6908 -0.9788  0.4261
   6623SM   C7F 8577   1.756   2.641  11.986  0.1622 -0.2349 -0.7932
   6623SM   H7F 8578   1.850   2.692  11.958  0.7029 -0.5138  0.4516
   6623SM   H7G 8579   1.676   2.672  11.915 -0.1957 -1.1268 -0.7926
   6623SM   C8F 8580   1.759   2.485  11.966 -0.2619  0.1687 -0.6247
   6623SM   H8F 8581   1.662   2.443  12.003 -0.1092 -1.0697 -1.5576
   6623SM   H8G 8582   1.842   2.453  12.033  0.4829  1.6083 -0.8333
   6623SM   C9F 8583   1.778   2.428  11.829 -0.3081  0.6253 -0.3758
   6623SM   H9F 8584   1.879   2.469  11.807  1.4835 -2.2480  1.8425
   6623SM   H9G 8585   1.711   2.463  11.747  0.0646 -0.3342 -1.1047
   6623SM  C10F 8586   1.788   2.280  11.831  0.7955  0.3819  0.3140
   6623SM  H10F 8587   1.685   2.240  11.837  0.2145  2.0416  3.1839
   6623SM  H10G 8588   1.845   2.255  11.923 -1.0640 -1.1911  1.0994
   6623SM  C11F 8589   1.867   2.232  11.718 -0.2427  0.5492 -0.1976
   6623SM  H11F 8590   1.951   2.303  11.701 -0.1233  0.7427  1.0992
   6623SM  H11G 8591   1.801   2.219  11.629 -1.5498 -0.8293  0.9251
   6623SM  C12F 8592   1.933   2.094  11.750 -0.3262  0.3307  0.2608
   6623SM  H12F 8593   1.849   2.026  11.777 -1.0705  0.6708 -1.1240
   6623SM  H12G 8594   1.989   2.106  11.845 -1.6474 -2.6695  1.5226
   6623SM  C13F 8595   2.016   2.041  11.631 -0.0968 -0.2156 -0.0713
   6623SM  H13F 8596   2.079   2.124  11.592  1.1756 -1.2825 -0.3829
   6623SM  H13G 8597   1.955   2.003  11.547  0.9418 -2.8064  0.2330
   6623SM  C14F 8598   2.108   1.930  11.679  0.4189 -0.2265 -0.0597
   6623SM  H14F 8599   2.040   1.850  11.714  1.8414 -0.0001  3.6362
   6623SM  H14G 8600   2.151   1.973  11.772 -0.3748  1.6798 -0.5235
   6623SM  C15F 8601   2.213   1.877  11.580 -1.0448  0.2062 -0.5707
   6623SM  H15F 8602   2.276   1.965  11.556 -0.4329  0.0221  0.3214
   6623SM  H15G 8603   2.172   1.836  11.485  0.3282  0.2679 -1.2237
   6623SM  C16F 8604   2.296   1.758  11.642 -0.0041 -0.3653  0.5352
   6623SM  H16F 8605   2.369   1.792  11.719 -0.6921 -0.1615  1.1093
   6623SM  H16G 8606   2.347   1.717  11.552 -1.4036  1.4201 -1.1474
   6623SM  C17F 8607   2.213   1.640  11.694  0.1319  0.3007 -0.3815
   6623SM  H17F 8608   2.110   1.630  11.653  0.1069 -0.0689 -0.2320
   6623SM  H17G 8609   2.200   1.653  11.804 -1.2027 -1.1102 -0.3420
   6623SM  C18F 8610   2.288   1.513  11.670 -0.0420  0.5478 -0.2522
   6623SM  H18F 8611   2.395   1.522  11.701  0.4809  2.9433 -2.3244
   6623SM  H18G 8612   2.294   1.507  11.559 -0.2426 -2.0664 -0.1872
   6623SM  C19F 8613   2.220   1.381  11.722  0.0891 -0.2106 -0.3387
   6623SM  H19F 8614   2.117   1.382  11.681  1.2857 -0.4051 -3.7002
   6623SM  H19G 8615   2.208   1.380  11.832 -2.4808 -1.5434 -0.5669
   6623SM  C20F 8616   2.302   1.254  11.689  0.2985  0.0809  0.5748
   6623SM  H20F 8617   2.402   1.278  11.731  0.5807 -0.2327  0.0944
   6623SM  H20G 8618   2.311   1.240  11.579 -0.9740 -0.0395  0.4628
   6623SM  C21F 8619   2.250   1.125  11.762  0.2485 -0.7306 -0.2588
   6623SM  H21F 8620   2.243   1.147  11.870 -0.2465  1.7986 -0.7488
   6623SM  H21G 8621   2.322   1.046  11.731  1.4884 -0.1569  1.0858
   6623SM  C22F 8622   2.102   1.099  11.714  0.0936 -0.1434  0.0355
   6623SM  H22F 8623   2.046   1.189  11.745 -1.4997 -1.7435  2.1121
   6623SM  H22G 8624   2.078   1.013  11.780  1.3165 -0.1858  0.4475
   6623SM  C23F 8625   2.088   1.074  11.568 -0.3385 -0.1086  0.8396
   6623SM  H23F 8626   1.981   1.058  11.543  0.5161 -1.9610 -2.0090
   6623SM  H23G 8627   2.139   0.982  11.533 -4.5446 -2.2281 -0.2975
   6623SM  H23H 8628   2.128   1.158  11.507  0.3524  0.7064  2.3619
   6723SM     N 8629   2.917   7.982  13.413  0.3813  0.1117 -0.5354
   6723SM   C15 8630   2.999   8.078  13.502  0.7371  0.3490 -0.3325
   6723SM  H15A 8631   3.081   8.130  13.455 -0.0876  0.3047 -1.8835
   6723SM  H15B 8632   3.034   8.017  13.584  2.0034  0.2757 -0.8999
   6723SM  H15C 8633   2.948   8.164  13.543  2.1889  1.3924 -0.6405
   6723SM   C14 8634   2.995   7.858  13.429  0.1598  0.4356  0.2834
   6723SM  H14A 8635   2.958   7.771  13.376  0.5612  0.2527  0.3019
   6723SM  H14B 8636   2.997   7.832  13.534 -1.0148 -0.0852  0.1929
   6723SM  H14C 8637   3.098   7.877  13.403  0.7614  0.7915  2.6983
   6723SM   C13 8638   2.782   7.954  13.470 -0.3087 -0.0178 -0.3469
   6723SM  H13A 8639   2.783   7.939  13.577  0.6693  0.6372 -0.2470
   6723SM  H13B 8640   2.741   7.865  13.425  0.3138 -0.6936  0.3886
   6723SM  H13C 8641   2.710   8.031  13.452  0.2962  0.3368 -1.3700
   6723SM   C12 8642   2.904   8.039  13.267 -0.3178  0.5443  0.3040
   6723SM  H12A 8643   3.007   8.040  13.235  0.1431 -0.3039  1.6781
   6723SM  H12B 8644   2.873   8.140  13.289  0.7281  0.8627  0.3798
   6723SM   C11 8645   2.804   7.975  13.175 -0.1277 -0.2289 -0.1202
   6723SM  H11A 8646   2.821   7.866  13.187  1.3861 -0.2702 -2.1227
   6723SM  H11B 8647   2.830   8.010  13.073  3.9444 -0.4048  0.7065
   6723SM     P 8648   2.610   8.149  13.184  0.0082 -0.2213  0.1204
   6723SM   O13 8649   2.512   8.175  13.288 -0.0865 -0.1141 -0.4285
   6723SM   O14 8650   2.714   8.245  13.159 -0.3210 -0.4343  0.2732
   6723SM   O11 8651   2.542   8.128  13.047  0.0767  1.2429 -0.6147
   6723SM   O12 8652   2.665   8.001  13.216 -0.2888 -0.7145 -0.1534
   6723SM   C1S 8653   2.472   8.016  12.990  0.0628  0.3378  0.1477
   6723SM   H1S 8654   2.376   8.002  13.044  0.2149  0.3006  0.4084
   6723SM   H1T 8655   2.524   7.919  13.002  0.4692  0.7872  2.7181
   6723SM    NF 8656   2.371   7.941  12.769 -0.8562 -0.7408  0.0578
   6723SM   HNF 8657   2.411   7.863  12.721  0.8167 -1.0059  1.7248
   6723SM   C2S 8658   2.455   8.036  12.833 -0.1127  0.3746 -0.0631
   6723SM   H2S 8659   2.418   8.139  12.814  1.9062  1.0022 -0.7710
   6723SM   C3S 8660   2.595   8.034  12.767  0.6953  0.2569 -0.5350
   6723SM   H3S 8661   2.643   7.935  12.782 -0.4119  0.0524  2.3906
   6723SM    O3 8662   2.693   8.124  12.824  0.1358 -0.2753  0.2125
   6723SM   HO3 8663   2.666   8.147  12.913  0.8598 -0.4038  0.4711
   6723SM   C4S 8664   2.593   8.058  12.621 -0.2331  0.2681 -0.2007
   6723SM   H4S 8665   2.599   7.962  12.568 -0.5699 -2.2995  4.0007
   6723SM   C5S 8666   2.575   8.176  12.552 -0.2343  0.2272 -0.6527
   6723SM   H5S 8667   2.562   8.262  12.619  0.3183 -0.6597  0.6398
   6723SM   C6S 8668   2.582   8.191  12.402  0.4237 -0.9762  0.2952
   6723SM   H6S 8669   2.669   8.256  12.376 -0.5846 -0.4163 -1.8945
   6723SM   H6T 8670   2.497   8.242  12.352  2.0301  0.9817 -0.5970
   6723SM   C7S 8671   2.607   8.060  12.320 -0.1028  0.4254  0.6980
   6723SM   H7S 8672   2.530   7.983  12.341 -0.1951  0.7207  1.4763
   6723SM   H7T 8673   2.701   8.020  12.365  1.5580  1.9653 -1.1865
   6723SM   C8S 8674   2.638   8.090  12.176 -0.1860  0.0135 -0.1722
   6723SM   H8S 8675   2.714   8.018  12.139  1.2297  1.7306 -0.7790
   6723SM   H8T 8676   2.668   8.197  12.165 -0.6899  0.1610 -0.1180
   6723SM   C9S 8677   2.514   8.069  12.086 -0.4353  0.2629  0.4141
   6723SM   H9S 8678   2.432   8.132  12.127  0.5146  1.5968  0.3443
   6723SM   H9T 8679   2.484   7.962  12.091 -0.5387  0.2958  0.4958
   6723SM  C10S 8680   2.535   8.090  11.933  0.0869 -0.0273 -0.8479
   6723SM  H10S 8681   2.433   8.083  11.889 -0.9141  0.6880  1.2479
   6723SM  H10T 8682   2.605   8.013  11.893 -0.6270 -1.2445  0.1599
   6723SM  C11S 8683   2.595   8.227  11.890 -0.6431 -0.0087  0.3703
   6723SM  H11S 8684   2.699   8.232  11.927  0.4128  5.1539 -2.3666
   6723SM  H11T 8685   2.537   8.302  11.948  1.6500  0.6514  1.9151
   6723SM  C12S 8686   2.614   8.239  11.740  0.1685 -0.6103 -0.2247
   6723SM  H12S 8687   2.666   8.147  11.706 -0.5723 -1.3340  0.5618
   6723SM  H12T 8688   2.681   8.324  11.713 -0.0758  0.3379  1.9549
   6723SM  C13S 8689   2.476   8.255  11.674 -0.4553 -0.1976  0.2540
   6723SM  H13S 8690   2.412   8.312  11.744  0.4554  0.0374  0.9146
   6723SM  H13T 8691   2.434   8.152  11.671 -1.4283  0.2109 -0.5770
   6723SM  C14S 8692   2.479   8.317  11.536  0.3723  0.1998 -0.1564
   6723SM  H14S 8693   2.532   8.251  11.464  0.8717  1.2037 -0.7422
   6723SM  H14T 8694   2.532   8.414  11.545  0.1833  0.2552  0.4259
   6723SM  C15S 8695   2.332   8.327  11.481 -0.7228  0.2517 -0.2376
   6723SM  H15S 8696   2.265   8.382  11.550  0.3332 -0.0578  1.1036
   6723SM  H15T 8697   2.298   8.221  11.480  0.2953 -0.0862 -0.1988
   6723SM  C16S 8698   2.334   8.378  11.336 -0.0881  0.1467 -0.0259
   6723SM  H16S 8699   2.232   8.386  11.293  0.2184 -0.3681 -0.8618
   6723SM  H16T 8700   2.396   8.313  11.271 -1.0462  1.0893 -1.9685
   6723SM  C17S 8701   2.389   8.531  11.330 -0.2804 -0.2319 -0.7984
   6723SM  H17S 8702   2.417   8.548  11.224  0.3474  0.4323 -0.5347
   6723SM  H17T 8703   2.473   8.532  11.402 -0.6096 -0.6202 -0.4031
   6723SM  C18S 8704   2.290   8.635  11.385 -0.1754  0.1264  0.3684
   6723SM  H18S 8705   2.338   8.735  11.390  1.7493 -0.7157 -0.2099
   6723SM  H18T 8706   2.254   8.620  11.489 -0.0280  3.6492  1.0605
   6723SM  H18U 8707   2.207   8.651  11.313  0.7802 -2.0945 -1.3516
   6723SM   C1F 8708   2.245   7.930  12.808  0.2586  0.1328 -0.3487
   6723SM    OF 8709   2.199   7.992  12.897  0.3113  0.0762 -0.6644
   6723SM   C2F 8710   2.152   7.835  12.729 -0.1545  0.4176 -0.1976
   6723SM   H2F 8711   2.191   7.732  12.743  0.5340  0.8448  1.1474
   6723SM   H2G 8712   2.163   7.866  12.623  1.3982  3.8872  0.8278
   6723SM   C3F 8713   2.000   7.841  12.768 -0.6289  0.9456 -0.0609
   6723SM   H3F 8714   1.959   7.942  12.747  1.6259  2.3944  1.8813
   6723SM   H3G 8715   1.993   7.827  12.878 -2.2682  1.5476 -0.0634
   6723SM   C4F 8716   1.932   7.709  12.711 -0.0891  0.5462  0.9260
   6723SM   H4F 8717   1.822   7.709  12.725 -0.2045 -0.3562  0.1661
   6723SM   H4G 8718   1.966   7.619  12.767 -0.2899  0.9757  1.7551
   6723SM   C5F 8719   1.949   7.712  12.560 -0.3420  0.4961  0.5577
   6723SM   H5F 8720   2.046   7.667  12.527 -0.2973  0.3957  0.8285
   6723SM   H5G 8721   1.954   7.817  12.523 -2.5183  0.5964  0.4116
   6723SM   C6F 8722   1.833   7.659  12.481  0.1251  0.6254 -0.7009
   6723SM   H6F 8723   1.738   7.707  12.513  0.7712  1.3911  0.1173
   6723SM   H6G 8724   1.813   7.551  12.498  1.3073  0.2059 -1.7918
   6723SM   C7F 8725   1.856   7.667  12.325  0.0416  1.0744  0.7572
   6723SM   H7F 8726   1.938   7.597  12.300 -2.3933 -1.8551  0.3546
   6723SM   H7G 8727   1.875   7.774  12.304 -1.0858  1.2244  0.4047
   6723SM   C8F 8728   1.729   7.627  12.246 -0.3093  0.2466 -0.2212
   6723SM   H8F 8729   1.642   7.671  12.299 -0.4017 -0.1516 -0.0366
   6723SM   H8G 8730   1.729   7.517  12.259  1.3825  0.2240 -0.1846
   6723SM   C9F 8731   1.725   7.669  12.097  0.3111  0.1966  0.3488
   6723SM   H9F 8732   1.821   7.645  12.046  1.1146  1.2025  1.3282
   6723SM   H9G 8733   1.691   7.773  12.082  3.2417  1.2962  0.6197
   6723SM  C10F 8734   1.620   7.587  12.014 -0.2568 -0.1015 -0.5205
   6723SM  H10F 8735   1.520   7.604  12.059 -0.9655 -1.1892 -1.6341
   6723SM  H10G 8736   1.637   7.480  12.037 -1.6510  0.1876  2.2409
   6723SM  C11F 8737   1.611   7.620  11.862 -0.3705  0.2841  0.4692
   6723SM  H11F 8738   1.716   7.636  11.829 -1.0854 -0.1158 -2.2493
   6723SM  H11G 8739   1.552   7.712  11.847 -0.1015  0.1005 -2.1886
   6723SM  C12F 8740   1.546   7.496  11.787  0.2724 -0.2866 -0.3873
   6723SM  H12F 8741   1.453   7.479  11.845  0.5916 -2.0386 -0.3447
   6723SM  H12G 8742   1.620   7.414  11.798  0.9241  0.5035  1.5646
   6723SM  C13F 8743   1.512   7.526  11.638  0.1302  0.3254  0.4146
   6723SM  H13F 8744   1.491   7.634  11.633 -0.4788  0.2655  1.4682
   6723SM  H13G 8745   1.416   7.473  11.621  0.1137  0.5762 -0.3066
   6723SM  C14F 8746   1.620   7.480  11.534 -0.0680  0.1158 -0.4854
   6723SM  H14F 8747   1.719   7.522  11.562 -0.6681  0.1182  1.8539
   6723SM  H14G 8748   1.588   7.515  11.434  2.0528  1.6166 -0.6993
   6723SM  C15F 8749   1.628   7.323  11.532  0.0344 -0.1825  0.2709
   6723SM  H15F 8750   1.526   7.290  11.506  0.0493  0.7830 -1.1236
   6723SM  H15G 8751   1.650   7.291  11.636  2.1665 -2.0243 -0.6533
   6723SM  C16F 8752   1.727   7.263  11.428  0.4432  0.1022 -0.7520
   6723SM  H16F 8753   1.829   7.296  11.455  0.4964 -0.4112 -0.3238
   6723SM  H16G 8754   1.693   7.302  11.329 -0.0225  2.7095  0.3616
   6723SM  C17F 8755   1.732   7.112  11.420 -0.1054  0.2030  0.3133
   6723SM  H17F 8756   1.632   7.078  11.388  0.3015 -2.5152  1.6616
   6723SM  H17G 8757   1.761   7.064  11.516  2.7496  0.1115 -0.5074
   6723SM  C18F 8758   1.836   7.057  11.318 -0.7823 -0.2157 -0.3148
   6723SM  H18F 8759   1.937   7.102  11.324  0.1261 -2.2840  0.9225
   6723SM  H18G 8760   1.793   7.072  11.217  1.3235 -0.8848 -1.3659
   6723SM  C19F 8761   1.853   6.906  11.328 -0.8477 -0.1241  0.6645
   6723SM  H19F 8762   1.763   6.842  11.334  1.5356 -3.7917  0.3984
   6723SM  H19G 8763   1.902   6.891  11.427 -2.6175  0.9269  1.7476
   6723SM  C20F 8764   1.943   6.846  11.221  0.0021 -0.1456 -0.4307
   6723SM  H20F 8765   2.041   6.896  11.208 -1.9797  3.5778 -2.8383
   6723SM  H20G 8766   1.904   6.863  11.118 -0.7404  2.7857  0.2433
   6723SM  C21F 8767   1.967   6.698  11.251 -0.2164  0.5550 -0.8293
   6723SM  H21F 8768   2.039   6.652  11.180 -0.5831 -1.9451  0.3125
   6723SM  H21G 8769   1.873   6.643  11.230 -0.5917  0.9570 -0.2393
   6723SM  C22F 8770   2.013   6.667  11.396  0.9448 -0.0306 -0.3678
   6723SM  H22F 8771   2.010   6.558  11.416 -0.5016  0.1373  0.4833
   6723SM  H22G 8772   1.942   6.703  11.473 -0.4135  1.7207 -2.3259
   6723SM  C23F 8773   2.157   6.711  11.422 -0.5653  0.0895  0.3236
   6723SM  H23F 8774   2.214   6.652  11.497 -0.8694  0.2751  0.7078
   6723SM  H23G 8775   2.146   6.820  11.443 -0.7353  1.1298 -4.2233
   6723SM  H23H 8776   2.210   6.699  11.325 -0.6377  1.8440  0.0221
   6823SM     N 8777   1.874   0.746  13.370  0.0461 -0.2855 -0.1223
   6823SM   C15 8778   1.813   0.780  13.508 -0.3562 -0.1863 -0.5165
   6823SM  H15A 8779   1.713   0.822  13.506  0.4623  1.8612 -0.2129
   6823SM  H15B 8780   1.877   0.849  13.559  0.0504  1.0946 -2.6384
   6823SM  H15C 8781   1.817   0.687  13.563  1.3813 -0.4535 -1.0347
   6823SM   C14 8782   1.999   0.668  13.402 -0.5224  0.0955  0.0432
   6823SM  H14A 8783   1.981   0.576  13.454 -0.9301  0.6490  0.9117
   6823SM  H14B 8784   2.069   0.731  13.455 -0.2040  2.0227 -2.4297
   6823SM  H14C 8785   2.048   0.650  13.307 -0.0803  1.4240 -0.0027
   6823SM   C13 8786   1.780   0.657  13.290 -0.4781  0.0248 -0.2002
   6823SM  H13A 8787   1.744   0.576  13.352 -0.6310 -0.1337 -0.4940
   6823SM  H13B 8788   1.821   0.613  13.201  0.9839 -1.9297  1.3577
   6823SM  H13C 8789   1.689   0.707  13.257 -0.7596 -1.7066 -2.2553
   6823SM   C12 8790   1.905   0.870  13.297  0.1927 -0.3090 -0.0665
   6823SM  H12A 8791   1.955   0.850  13.203 -1.1756 -2.1441 -0.4582
   6823SM  H12B 8792   1.979   0.924  13.355 -1.2235  2.3800 -0.5860
   6823SM   C11 8793   1.801   0.982  13.287  0.2320  0.0016 -0.4667
   6823SM  H11A 8794   1.849   1.073  13.245  2.2751  0.0847  1.8612
   6823SM  H11B 8795   1.775   1.006  13.392  2.8141 -2.9370  1.0109
   6823SM     P 8796   1.683   0.965  13.052  0.3212  0.2505 -0.4803
   6823SM   O13 8797   1.618   0.839  13.000 -0.1010 -0.0537 -0.4445
   6823SM   O14 8798   1.616   1.095  13.017 -0.4764  0.8673 -0.2710
   6823SM   O11 8799   1.831   0.971  13.011 -0.1231  0.1926  0.2361
   6823SM   O12 8800   1.690   0.940  13.211 -0.3737 -0.4578 -0.1433
   6823SM   C1S 8801   1.885   0.888  12.912 -0.0006 -0.1685 -0.2372
   6823SM   H1S 8802   1.827   0.794  12.900 -0.5353 -0.0795  1.4375
   6823SM   H1T 8803   1.988   0.862  12.944 -0.2056  1.1850  1.6645
   6823SM    NF 8804   1.966   0.865  12.689 -0.0140 -0.0496  0.2261
   6823SM   HNF 8805   2.061   0.879  12.661 -0.2872 -0.3997 -0.9523
   6823SM   C2S 8806   1.901   0.960  12.774  0.0863 -1.5153 -0.3897
   6823SM   H2S 8807   1.806   0.988  12.724  0.0107  0.8949  0.9138
   6823SM   C3S 8808   1.982   1.097  12.779 -0.6718  1.0370  0.0143
   6823SM   H3S 8809   2.084   1.078  12.820 -1.5541  0.5141  2.1155
   6823SM    O3 8810   1.928   1.196  12.857  0.8806 -0.3305 -0.3892
   6823SM   HO3 8811   1.871   1.147  12.916  0.2173  0.8380 -0.0260
   6823SM   C4S 8812   1.997   1.136  12.627  0.7529  0.1955 -0.3631
   6823SM   H4S 8813   2.079   1.079  12.582 -0.1173 -0.0970 -1.6281
   6823SM   C5S 8814   1.924   1.224  12.563  0.6824 -0.3176 -0.2478
   6823SM   H5S 8815   1.840   1.271  12.616  0.2094  1.0958 -2.1094
   6823SM   C6S 8816   1.931   1.269  12.416  0.2788 -0.6497  0.1100
   6823SM   H6S 8817   2.031   1.263  12.369 -0.7671 -0.9803 -2.2302
   6823SM   H6T 8818   1.904   1.377  12.412  1.4894 -0.3652 -1.2240
   6823SM   C7S 8819   1.833   1.197  12.320 -0.5236 -0.3460 -0.2755
   6823SM   H7S 8820   1.728   1.223  12.346 -0.1365  0.4854  0.5037
   6823SM   H7T 8821   1.841   1.088  12.337 -2.2901 -0.4804 -0.0382
   6823SM   C8S 8822   1.851   1.244  12.179  0.1980  0.6308 -0.8448
   6823SM   H8S 8823   1.939   1.188  12.142 -0.7239 -0.7696 -1.0451
   6823SM   H8T 8824   1.862   1.354  12.176 -0.7632  0.8596  1.4214
   6823SM   C9S 8825   1.742   1.204  12.083 -0.1038  0.7624  0.3885
   6823SM   H9S 8826   1.649   1.260  12.105 -0.2101  0.9393 -0.4844
   6823SM   H9T 8827   1.729   1.094  12.091  2.5483  0.2072 -1.4527
   6823SM  C10S 8828   1.775   1.241  11.938 -0.7100 -0.3511  0.5279
   6823SM  H10S 8829   1.698   1.208  11.865  0.1371  1.7811 -1.4627
   6823SM  H10T 8830   1.874   1.198  11.912 -0.9951 -0.6789 -0.0452
   6823SM  C11S 8831   1.785   1.388  11.909  0.2198  0.8385  0.4006
   6823SM  H11S 8832   1.885   1.421  11.945  0.9653 -1.2359  0.3922
   6823SM  H11T 8833   1.702   1.443  11.957  1.6403  1.3523  2.4123
   6823SM  C12S 8834   1.783   1.414  11.762  0.0289 -0.2480  0.7432
   6823SM  H12S 8835   1.684   1.372  11.732  0.0727 -0.9557  1.5581
   6823SM  H12T 8836   1.863   1.358  11.709 -1.7062 -1.3559 -0.8065
   6823SM  C13S 8837   1.785   1.567  11.741 -0.6378 -0.1021  0.3489
   6823SM  H13S 8838   1.793   1.573  11.631  0.1805  0.4055  0.4288
   6823SM  H13T 8839   1.877   1.611  11.785 -1.6028  1.3937  0.9602
   6823SM  C14S 8840   1.658   1.649  11.779 -0.4066  0.2943  0.2235
   6823SM  H14S 8841   1.655   1.661  11.890  0.5082  1.1841  0.1556
   6823SM  H14T 8842   1.574   1.580  11.754  0.0868  0.1942 -1.2114
   6823SM  C15S 8843   1.647   1.780  11.707 -0.1908 -0.1087 -0.8113
   6823SM  H15S 8844   1.624   1.764  11.600  1.2561 -2.1216 -0.8875
   6823SM  H15T 8845   1.748   1.826  11.711  0.6363 -1.8943  1.3576
   6823SM  C16S 8846   1.540   1.880  11.765 -0.0994  0.1537 -0.8734
   6823SM  H16S 8847   1.437   1.840  11.766 -0.0900  0.1282  0.3999
   6823SM  H16T 8848   1.539   1.965  11.693  1.3665  0.5434 -0.4760
   6823SM  C17S 8849   1.570   1.938  11.906 -0.2947  0.3929  0.2328
   6823SM  H17S 8850   1.546   2.047  11.907 -0.3951  0.3690  1.3399
   6823SM  H17T 8851   1.678   1.931  11.927 -0.1550  1.3612 -0.1062
   6823SM  C18S 8852   1.499   1.868  12.018  0.7285 -0.0802 -0.8926
   6823SM  H18S 8853   1.514   1.919  12.116 -0.4816 -0.5256 -0.4481
   6823SM  H18T 8854   1.526   1.761  12.028 -0.1075 -0.3526 -1.4214
   6823SM  H18U 8855   1.389   1.881  12.003  0.8426  1.2548 -0.6911
   6823SM   C1F 8856   1.899   0.759  12.641 -0.3135  0.2531  0.0641
   6823SM    OF 8857   1.781   0.743  12.665 -0.1339  0.2096  0.1977
   6823SM   C2F 8858   1.978   0.672  12.554  0.3653  0.0238  0.5829
   6823SM   H2F 8859   1.973   0.568  12.593  0.3467 -0.0447  0.3989
   6823SM   H2G 8860   2.082   0.710  12.552  0.3285  0.1897  1.3029
   6823SM   C3F 8861   1.934   0.674  12.404  0.7384  0.3564 -0.4097
   6823SM   H3F 8862   1.826   0.682  12.377  0.5439  1.4499  0.6047
   6823SM   H3G 8863   1.962   0.574  12.365 -0.6681 -0.1912 -0.0563
   6823SM   C4F 8864   1.994   0.786  12.323  0.1652 -0.5300 -0.0799
   6823SM   H4F 8865   1.967   0.879  12.377  3.0070 -0.4260  1.4006
   6823SM   H4G 8866   1.935   0.794  12.229 -1.7809 -0.3401  1.1078
   6823SM   C5F 8867   2.140   0.767  12.275  0.4368  0.2726  0.0288
   6823SM   H5F 8868   2.141   0.669  12.222 -2.2440  0.7342 -1.0614
   6823SM   H5G 8869   2.203   0.764  12.366 -1.8568 -2.1942  1.6834
   6823SM   C6F 8870   2.183   0.878  12.174 -0.1709  0.8804  0.4285
   6823SM   H6F 8871   2.111   0.858  12.092  0.3155  0.2577  0.1463
   6823SM   H6G 8872   2.288   0.869  12.137  0.0118  0.2752  1.0744
   6823SM   C7F 8873   2.160   1.021  12.221  0.1985  0.0063 -0.8226
   6823SM   H7F 8874   2.067   1.033  12.280  1.1016  3.5177  0.1132
   6823SM   H7G 8875   2.148   1.087  12.133  5.2641  2.2263 -0.2044
   6823SM   C8F 8876   2.277   1.097  12.292 -0.0549  0.0083 -0.6156
   6823SM   H8F 8877   2.301   1.032  12.378  0.1975  0.3475 -0.4279
   6823SM   H8G 8878   2.247   1.194  12.338 -0.2135 -0.0956 -0.4989
   6823SM   C9F 8879   2.399   1.122  12.206 -0.5721 -0.5628  0.3278
   6823SM   H9F 8880   2.372   1.196  12.128 -0.4791  0.2303  1.0374
   6823SM   H9G 8881   2.427   1.028  12.154  1.6906  0.0321  0.3906
   6823SM  C10F 8882   2.533   1.170  12.269  0.2805  0.5131 -0.3752
   6823SM  H10F 8883   2.560   1.110  12.358  2.1671  0.7947 -0.7225
   6823SM  H10G 8884   2.509   1.270  12.313 -0.6565 -1.3666  3.9180
   6823SM  C11F 8885   2.650   1.172  12.180  0.5049 -0.2800 -0.2855
   6823SM  H11F 8886   2.637   1.082  12.115 -0.2165 -0.0906 -0.4122
   6823SM  H11G 8887   2.738   1.156  12.245 -0.3885  0.0054  1.0243
   6823SM  C12F 8888   2.660   1.295  12.091 -0.2175 -0.1772  0.1259
   6823SM  H12F 8889   2.686   1.384  12.152  0.2535  1.2216 -2.0168
   6823SM  H12G 8890   2.561   1.326  12.050 -0.2292  0.8757  0.9059
   6823SM  C13F 8891   2.767   1.279  11.975 -0.6783  0.5476 -0.5340
   6823SM  H13F 8892   2.759   1.176  11.934 -2.1095  0.6448 -0.5608
   6823SM  H13G 8893   2.866   1.306  12.016 -0.9323  2.0373 -0.8367
   6823SM  C14F 8894   2.738   1.374  11.863 -0.4403  0.0954  0.4915
   6823SM  H14F 8895   2.722   1.476  11.905 -1.7876 -0.1098  0.5165
   6823SM  H14G 8896   2.644   1.348  11.810  0.5738 -0.2096 -1.2531
   6823SM  C15F 8897   2.839   1.365  11.747 -0.0606  0.0545 -0.5192
   6823SM  H15F 8898   2.792   1.395  11.651 -0.9526 -0.1617 -0.1528
   6823SM  H15G 8899   2.875   1.260  11.737 -0.9852 -0.1011 -2.9635
   6823SM  C16F 8900   2.964   1.449  11.779  0.0266  0.2419  0.2162
   6823SM  H16F 8901   3.021   1.401  11.862 -1.1361 -0.7160  0.5028
   6823SM  H16G 8902   2.945   1.555  11.806 -1.1254 -0.1478  1.0279
   6823SM  C17F 8903   3.061   1.456  11.664 -0.4506 -0.7976  0.2293
   6823SM  H17F 8904   3.096   1.354  11.640  2.1372  0.7052 -3.3456
   6823SM  H17G 8905   3.149   1.512  11.701  0.2636 -1.8200  0.0988
   6823SM  C18F 8906   3.014   1.536  11.537  0.4599  0.5228 -0.2892
   6823SM  H18F 8907   2.954   1.624  11.569 -1.9553 -1.5070  1.0903
   6823SM  H18G 8908   2.937   1.474  11.485 -0.3075  1.2357 -0.0372
   6823SM  C19F 8909   3.117   1.563  11.429 -0.1802 -0.5423 -0.4405
   6823SM  H19F 8910   3.168   1.472  11.391 -2.2725 -0.8250 -2.8565
   6823SM  H19G 8911   3.186   1.634  11.478 -0.7758 -1.1417  1.3669
   6823SM  C20F 8912   3.047   1.625  11.306  0.1152  0.3351 -0.1538
   6823SM  H20F 8913   2.995   1.722  11.320 -0.1786 -0.0815  2.0107
   6823SM  H20G 8914   2.971   1.556  11.263  0.1158  0.9073 -1.0811
   6823SM  C21F 8915   3.144   1.645  11.183 -0.5056  0.8163 -0.5786
   6823SM  H21F 8916   3.175   1.542  11.154 -0.0984  0.7616  0.0361
   6823SM  H21G 8917   3.232   1.703  11.217 -0.6252 -0.6308  2.5419
   6823SM  C22F 8918   3.103   1.717  11.059  0.7358 -0.3245 -0.0191
   6823SM  H22F 8919   3.048   1.806  11.097 -1.8860 -0.6305 -2.7848
   6823SM  H22G 8920   3.026   1.657  11.005  1.6322 -1.2212 -0.3253
   6823SM  C23F 8921   3.217   1.745  10.964 -0.2582  0.3354 -0.0830
   6823SM  H23F 8922   3.178   1.803  10.878  1.6872 -0.6257 -1.7012
   6823SM  H23G 8923   3.264   1.649  10.933 -0.6893 -0.1637  0.7930
   6823SM  H23H 8924   3.292   1.811  11.013 -1.8198 -0.0064  2.9555
   6923SM     N 8925   2.473   2.642  12.924 -0.4557 -0.3136 -0.1725
   6923SM   C15 8926   2.448   2.616  13.065 -0.0591  0.5081  0.3833
   6923SM  H15A 8927   2.501   2.680  13.134  1.9794 -1.8196  1.1596
   6923SM  H15B 8928   2.488   2.518  13.088  0.6476  0.8144  0.4782
   6923SM  H15C 8929   2.344   2.611  13.094  0.9401  0.6798  4.8244
   6923SM   C14 8930   2.617   2.673  12.905  0.6874 -0.2520 -0.0730
   6923SM  H14A 8931   2.685   2.591  12.923  2.2141  1.0665  0.4332
   6923SM  H14B 8932   2.658   2.762  12.950  3.0639 -0.7107 -1.1845
   6923SM  H14C 8933   2.627   2.694  12.799 -0.7081  0.4857 -0.0691
   6923SM   C13 8934   2.435   2.524  12.846 -0.1182 -0.6448 -0.3313
   6923SM  H13A 8935   2.328   2.511  12.845 -0.1927 -0.2139  0.7400
   6923SM  H13B 8936   2.485   2.433  12.878 -1.6696 -0.5170  2.9399
   6923SM  H13C 8937   2.460   2.542  12.743  2.0843 -0.4456  0.1931
   6923SM   C12 8938   2.397   2.765  12.875 -0.2284  0.0459 -0.2876
   6923SM  H12A 8939   2.295   2.735  12.857 -0.6741  0.8484  0.8128
   6923SM  H12B 8940   2.437   2.787  12.777 -0.7311 -0.8515 -0.7064
   6923SM   C11 8941   2.391   2.890  12.966 -0.0426 -0.0080  1.0229
   6923SM  H11A 8942   2.347   2.873  13.067 -0.0766  1.1643  1.2207
   6923SM  H11B 8943   2.316   2.962  12.929 -0.1183 -0.1210  0.9580
   6923SM     P 8944   2.549   3.067  12.890  0.0809 -0.1163  0.2640
   6923SM   O13 8945   2.446   3.171  12.892  0.8049 -0.6832 -0.0368
   6923SM   O14 8946   2.694   3.108  12.903  0.3380  0.3212  0.4198
   6923SM   O11 8947   2.537   2.988  12.749 -0.4491 -0.1984 -0.4743
   6923SM   O12 8948   2.519   2.956  12.993  0.5238 -0.0174 -0.6755
   6923SM   C1S 8949   2.472   3.045  12.632  0.0208  1.0169  0.3259
   6923SM   H1S 8950   2.388   3.109  12.667 -1.3384  0.2648 -1.3901
   6923SM   H1T 8951   2.415   2.964  12.582 -0.4260  0.7510  1.2439
   6923SM    NF 8952   2.492   3.210  12.447  0.8610  0.9123  0.2064
   6923SM   HNF 8953   2.491   3.187  12.350 -3.7865 -0.9261  0.3900
   6923SM   C2S 8954   2.563   3.122  12.541 -0.1009 -0.2301 -0.2644
   6923SM   H2S 8955   2.622   3.188  12.608 -1.1044  1.6348 -1.1355
   6923SM   C3S 8956   2.658   3.022  12.474  0.1036 -1.0776  1.2978
   6923SM   H3S 8957   2.606   2.942  12.417 -0.1726 -0.8739  1.2650
   6923SM    O3 8958   2.730   2.939  12.566 -0.1091 -0.3426 -0.3607
   6923SM   HO3 8959   2.693   2.974  12.648  0.7229  0.6590 -0.3911
   6923SM   C4S 8960   2.753   3.103  12.382 -0.4905  0.9874 -0.2225
   6923SM   H4S 8961   2.727   3.086  12.277  0.6084  0.3644 -0.4092
   6923SM   C5S 8962   2.862   3.173  12.418  0.2946 -0.1168 -0.2019
   6923SM   H5S 8963   2.895   3.179  12.523 -0.8829 -0.2674  0.1904
   6923SM   C6S 8964   2.961   3.241  12.325 -0.7872 -0.4531 -0.1991
   6923SM   H6S 8965   2.924   3.235  12.220 -0.6831 -1.7889 -0.1823
   6923SM   H6T 8966   3.061   3.192  12.329  0.8997  2.0120 -4.7581
   6923SM   C7S 8967   2.993   3.385  12.364 -0.4339  0.5145 -0.2318
   6923SM   H7S 8968   3.025   3.398  12.469  0.5615 -2.0440 -0.1399
   6923SM   H7T 8969   2.900   3.445  12.351 -0.1864  0.7614 -0.9215
   6923SM   C8S 8970   3.107   3.440  12.278  0.8550 -0.0668  0.0071
   6923SM   H8S 8971   3.077   3.441  12.171  0.9842 -2.2190 -0.1048
   6923SM   H8T 8972   3.193   3.370  12.276  1.1815  0.3392 -0.1158
   6923SM   C9S 8973   3.164   3.576  12.323 -0.4459 -0.8010  0.1885
   6923SM   H9S 8974   3.231   3.614  12.243  0.3403 -1.9861  0.2514
   6923SM   H9T 8975   3.216   3.567  12.420 -1.7169 -1.0133  0.8706
   6923SM  C10S 8976   3.063   3.690  12.346  0.6687  0.8505  0.0425
   6923SM  H10S 8977   3.009   3.673  12.441  1.2499  0.5282  0.3188
   6923SM  H10T 8978   2.993   3.691  12.260  0.3495 -0.8990  0.2518
   6923SM  C11S 8979   3.118   3.836  12.357  0.3555 -0.2682  0.1072
   6923SM  H11S 8980   3.182   3.868  12.273  0.6467  0.0271  0.4347
   6923SM  H11T 8981   3.193   3.844  12.439  1.2994 -0.0788 -0.7579
   6923SM  C12S 8982   3.007   3.944  12.355 -0.1803 -0.3308 -0.3144
   6923SM  H12S 8983   3.060   4.028  12.404  0.6342 -1.2401  0.4212
   6923SM  H12T 8984   2.917   3.916  12.413  0.6173 -1.1146  0.5921
   6923SM  C13S 8985   2.963   4.001  12.211  0.0195 -0.2952 -0.6293
   6923SM  H13S 8986   2.897   3.917  12.180  0.6680 -1.6857  1.5166
   6923SM  H13T 8987   3.058   4.009  12.154  1.3378 -1.0387  1.3501
   6923SM  C14S 8988   2.892   4.141  12.199 -0.3426  0.1074  0.4516
   6923SM  H14S 8989   2.955   4.221  12.242 -0.4543  0.7738 -0.5817
   6923SM  H14T 8990   2.789   4.142  12.242 -0.1479 -1.3501  1.0147
   6923SM  C15S 8991   2.881   4.176  12.054  0.0200 -1.1872  0.1555
   6923SM  H15S 8992   2.824   4.100  11.996 -1.0249  0.2955 -0.8076
   6923SM  H15T 8993   2.981   4.184  12.005  0.5839  0.1885  1.4628
   6923SM  C16S 8994   2.811   4.311  12.043 -0.2205 -0.2338 -0.0497
   6923SM  H16S 8995   2.868   4.386  12.103 -0.3140 -0.7321  0.6826
   6923SM  H16T 8996   2.711   4.297  12.089  0.1087 -2.9914 -0.0366
   6923SM  C17S 8997   2.788   4.358  11.908  0.6222  0.2317 -0.1917
   6923SM  H17S 8998   2.719   4.287  11.859  0.1719 -0.0414  0.8171
   6923SM  H17T 8999   2.884   4.378  11.856  0.3150  3.6827  0.3385
   6923SM  C18S 9000   2.724   4.500  11.910  0.1177  0.2230  0.3209
   6923SM  H18S 9001   2.626   4.493  11.962  0.3229 -1.2261  0.5527
   6923SM  H18T 9002   2.720   4.544  11.808 -0.4309 -1.6164 -0.5023
   6923SM  H18U 9003   2.792   4.566  11.968 -1.1757  0.1132  2.0515
   6923SM   C1F 9004   2.403   3.302  12.495  0.0929  0.1207 -0.6030
   6923SM    OF 9005   2.386   3.324  12.613 -0.1716 -0.3447 -0.4167
   6923SM   C2F 9006   2.346   3.391  12.393 -0.4716  0.3049 -0.3617
   6923SM   H2F 9007   2.242   3.415  12.425 -1.2979 -0.3675 -2.3591
   6923SM   H2G 9008   2.342   3.325  12.304 -1.1223 -0.2707  0.0733
   6923SM   C3F 9009   2.427   3.525  12.371  1.1520  0.7316  0.5941
   6923SM   H3F 9010   2.443   3.572  12.470  1.9020 -0.6485  1.1607
   6923SM   H3G 9011   2.371   3.590  12.300  2.6709 -1.2454 -2.6570
   6923SM   C4F 9012   2.563   3.518  12.300 -0.0239  0.1968  0.8003
   6923SM   H4F 9013   2.633   3.453  12.357  2.5269  0.2167 -2.0192
   6923SM   H4G 9014   2.589   3.626  12.291 -3.5224  1.0447 -0.5115
   6923SM   C5F 9015   2.541   3.465  12.159  0.1586 -0.3791 -0.1944
   6923SM   H5F 9016   2.457   3.520  12.112 -1.2712 -2.5884 -0.3490
   6923SM   H5G 9017   2.507   3.360  12.168 -1.2593  0.0911  0.1762
   6923SM   C6F 9018   2.669   3.476  12.072  0.0674  1.0139  0.3646
   6923SM   H6F 9019   2.639   3.451  11.968 -1.1318  1.8640  0.4896
   6923SM   H6G 9020   2.743   3.402  12.109 -0.4983 -0.0075 -0.4740
   6923SM   C7F 9021   2.733   3.613  12.060 -0.4893 -0.1138  0.7721
   6923SM   H7F 9022   2.767   3.664  12.153  0.1666  0.0260  0.4632
   6923SM   H7G 9023   2.665   3.682  12.006  1.0846  0.8702 -0.0027
   6923SM   C8F 9024   2.863   3.602  11.976  0.1523 -0.5708 -0.4909
   6923SM   H8F 9025   2.839   3.557  11.877 -2.1288 -0.5549 -0.0181
   6923SM   H8G 9026   2.944   3.539  12.018 -0.5721 -0.4237  1.2213
   6923SM   C9F 9027   2.925   3.736  11.933 -0.5840  0.2100 -0.2226
   6923SM   H9F 9028   2.970   3.787  12.021 -0.3005 -0.9687  0.3311
   6923SM   H9G 9029   2.849   3.811  11.902  1.9149  2.3442 -1.6156
   6923SM  C10F 9030   3.034   3.722  11.824  0.2050 -0.4389 -0.3615
   6923SM  H10F 9031   2.980   3.722  11.726  1.3129  2.9988 -1.1191
   6923SM  H10G 9032   3.091   3.627  11.831  0.9399 -0.1559 -1.9441
   6923SM  C11F 9033   3.142   3.832  11.813 -0.0307 -0.2970 -0.3427
   6923SM  H11F 9034   3.204   3.796  11.729 -0.5412 -2.4360  0.1403
   6923SM  H11G 9035   3.209   3.816  11.901  1.0555 -3.6818 -1.6368
   6923SM  C12F 9036   3.083   3.973  11.797  0.5258  1.0517 -0.7302
   6923SM  H12F 9037   2.994   3.981  11.862  1.4181  0.6511  0.5888
   6923SM  H12G 9038   3.044   3.972  11.693 -2.5840 -1.7059  0.2727
   6923SM  C13F 9039   3.187   4.082  11.822 -0.0214 -0.1506  0.5388
   6923SM  H13F 9040   3.273   4.047  11.761 -0.7805  0.4523 -0.9363
   6923SM  H13G 9041   3.197   4.093  11.932 -1.4380  0.2350  0.6493
   6923SM  C14F 9042   3.153   4.208  11.748  0.1330 -0.4257 -0.0546
   6923SM  H14F 9043   3.057   4.247  11.787 -0.2619 -0.4048 -1.0274
   6923SM  H14G 9044   3.151   4.167  11.644  1.4205 -4.6696  1.3947
   6923SM  C15F 9045   3.260   4.315  11.756 -0.1696 -0.3764  0.0361
   6923SM  H15F 9046   3.350   4.256  11.728 -0.9059 -0.8529 -1.4280
   6923SM  H15G 9047   3.272   4.345  11.862  3.7366 -1.3503  0.0503
   6923SM  C16F 9048   3.232   4.430  11.658 -0.2556 -0.5965  0.1161
   6923SM  H16F 9049   3.309   4.508  11.670  0.8632 -1.5899 -0.3798
   6923SM  H16G 9050   3.135   4.481  11.675 -0.7216 -2.0302  2.1054
   6923SM  C17F 9051   3.251   4.373  11.514 -0.3680  0.3849  0.3689
   6923SM  H17F 9052   3.166   4.305  11.492 -0.0321  0.6308 -1.9235
   6923SM  H17G 9053   3.335   4.301  11.500 -0.7646  0.0166 -0.1530
   6923SM  C18F 9054   3.236   4.467  11.393 -0.4819 -0.8124  0.3079
   6923SM  H18F 9055   3.323   4.536  11.394 -0.3763 -0.8103 -2.3950
   6923SM  H18G 9056   3.152   4.534  11.418 -1.8928 -2.0659 -0.9118
   6923SM  C19F 9057   3.200   4.398  11.261  0.4119  0.2790  0.0653
   6923SM  H19F 9058   3.120   4.321  11.266  0.3856  0.3680  1.4262
   6923SM  H19G 9059   3.293   4.342  11.238 -1.4200 -2.3482 -1.4283
   6923SM  C20F 9060   3.159   4.497  11.149 -0.3433  1.0264  0.8061
   6923SM  H20F 9061   3.165   4.445  11.051 -2.6942  0.1909  1.0336
   6923SM  H20G 9062   3.234   4.579  11.150  0.7798  0.0351  0.1147
   6923SM  C21F 9063   3.017   4.548  11.161  0.1675 -0.0384  0.3331
   6923SM  H21F 9064   3.010   4.620  11.245 -1.4909  2.3143 -1.6507
   6923SM  H21G 9065   2.939   4.471  11.179  0.9784 -0.8345  0.5015
   6923SM  C22F 9066   2.984   4.637  11.038 -0.1400  0.0128  0.5026
   6923SM  H22F 9067   2.989   4.580  10.943 -2.2539  1.1548 -0.3604
   6923SM  H22G 9068   3.058   4.719  11.026 -0.4877  0.4778  1.4255
   6923SM  C23F 9069   2.850   4.711  11.053 -0.1258  0.2514 -0.4124
   6923SM  H23F 9070   2.843   4.779  11.141 -1.2605  0.3315 -0.5499
   6923SM  H23G 9071   2.764   4.641  11.054 -0.0258  0.1306 -0.0541
   6923SM  H23H 9072   2.838   4.778  10.965 -1.1918  0.6226 -0.0116
   7023SM     N 9073   1.524   1.938  12.961 -0.8021 -0.2624 -0.3529
   7023SM   C15 9074   1.514   1.793  12.970 -0.3200  0.4811  0.4066
   7023SM  H15A 9075   1.535   1.731  12.884  1.4984 -2.1501  2.5617
   7023SM  H15B 9076   1.414   1.759  12.995 -0.9297  2.6806  1.1793
   7023SM  H15C 9077   1.583   1.754  13.043  0.6538  0.8715 -0.2895
   7023SM   C14 9078   1.469   1.996  13.088  0.2491 -0.1750  0.0600
   7023SM  H14A 9079   1.526   1.965  13.174 -1.1652  0.1986  1.1591
   7023SM  H14B 9080   1.367   1.967  13.110  0.1327  1.8196  2.5945
   7023SM  H14C 9081   1.456   2.103  13.082 -0.8459 -0.3754 -2.0846
   7023SM   C13 9082   1.669   1.971  12.958 -0.4577  0.6736 -0.9133
   7023SM  H13A 9083   1.720   1.947  12.866  1.1391  1.4357 -0.2622
   7023SM  H13B 9084   1.720   1.923  13.040  1.3219  1.4056 -1.5476
   7023SM  H13C 9085   1.679   2.078  12.969 -2.8928  1.0694 -1.8379
   7023SM   C12 9086   1.456   1.999  12.844  0.0166  0.2889  0.0482
   7023SM  H12A 9087   1.517   1.993  12.755 -0.2649 -1.3195 -0.0510
   7023SM  H12B 9088   1.451   2.105  12.867 -0.5392  0.0011  1.3090
   7023SM   C11 9089   1.311   1.959  12.807  0.3668  0.3372  0.1050
   7023SM  H11A 9090   1.291   1.854  12.775 -1.0074  1.0813 -1.6050
   7023SM  H11B 9091   1.272   2.018  12.722 -0.8286  0.5492  0.7733
   7023SM     P 9092   1.151   2.127  12.946  0.3329  0.0190  0.0294
   7023SM   O13 9093   1.004   2.117  12.952  0.2848  0.2351  0.1178
   7023SM   O14 9094   1.224   2.184  13.059 -0.1611 -0.8845  0.0756
   7023SM   O11 9095   1.167   2.218  12.821  0.3037  0.2135  0.0179
   7023SM   O12 9096   1.216   1.988  12.903  0.1107 -0.2612  0.1552
   7023SM   C1S 9097   1.263   2.324  12.816  0.1238  0.6614  0.2681
   7023SM   H1S 9098   1.354   2.293  12.873  0.7427  0.6791 -0.6818
   7023SM   H1T 9099   1.227   2.411  12.874  0.7964  1.7527 -0.9000
   7023SM    NF 9100   1.406   2.471  12.670 -0.0130  0.1104 -0.5189
   7023SM   HNF 9101   1.379   2.563  12.645  2.7049  1.9579  2.4791
   7023SM   C2S 9102   1.302   2.368  12.672 -0.3722 -0.3107  0.2998
   7023SM   H2S 9103   1.346   2.280  12.620  0.1640  0.4494 -0.5557
   7023SM   C3S 9104   1.174   2.408  12.595  0.5286 -0.5759  0.1215
   7023SM   H3S 9105   1.147   2.508  12.637 -0.1597  0.0336 -1.6966
   7023SM    O3 9106   1.057   2.324  12.613  0.2580  0.2038  0.1268
   7023SM   HO3 9107   1.075   2.263  12.685 -1.6676  0.6126  1.0415
   7023SM   C4S 9108   1.198   2.430  12.451 -0.2419  0.5785 -0.4621
   7023SM   H4S 9109   1.198   2.532  12.411  0.1953  0.1663 -1.5272
   7023SM   C5S 9110   1.206   2.335  12.364  0.5747  0.1111  0.0266
   7023SM   H5S 9111   1.178   2.232  12.392 -0.2299  0.4150  0.3710
   7023SM   C6S 9112   1.228   2.367  12.219  0.5975  1.1113  0.2469
   7023SM   H6S 9113   1.135   2.360  12.160  0.3480  2.2447  0.4723
   7023SM   H6T 9114   1.287   2.286  12.173  1.1929  1.3427  0.5868
   7023SM   C7S 9115   1.298   2.491  12.171 -0.6924  0.2122  0.8602
   7023SM   H7S 9116   1.388   2.509  12.234  0.0722  0.5463 -0.2958
   7023SM   H7T 9117   1.232   2.577  12.193  1.2149  1.6470  1.2958
   7023SM   C8S 9118   1.342   2.487  12.022 -0.2264  0.4495  0.7842
   7023SM   H8S 9119   1.249   2.459  11.968  0.2792  0.3979 -0.0804
   7023SM   H8T 9120   1.423   2.411  12.018  0.7557  1.5204 -1.1025
   7023SM   C9S 9121   1.385   2.627  11.981 -0.1640 -0.8070 -0.4120
   7023SM   H9S 9122   1.473   2.658  12.040 -1.0832  0.4860  0.3233
   7023SM   H9T 9123   1.302   2.694  12.011  0.6841  0.6955 -1.3118
   7023SM  C10S 9124   1.404   2.650  11.830  0.4316  0.7366 -0.0525
   7023SM  H10S 9125   1.449   2.559  11.787 -0.7717  0.2221 -0.2805
   7023SM  H10T 9126   1.469   2.739  11.814  0.6693  0.0404 -3.8772
   7023SM  C11S 9127   1.271   2.646  11.746  0.2867 -0.0898 -0.5421
   7023SM  H11S 9128   1.222   2.746  11.754 -0.3853 -0.4541  0.0694
   7023SM  H11T 9129   1.190   2.576  11.777  0.6135 -0.6805 -0.9943
   7023SM  C12S 9130   1.298   2.623  11.597 -0.0367  0.5344 -0.1230
   7023SM  H12S 9131   1.300   2.513  11.581 -0.8434  0.5061 -0.0771
   7023SM  H12T 9132   1.399   2.670  11.589 -0.2223  1.2292  1.2968
   7023SM  C13S 9133   1.200   2.688  11.502  0.2660  0.3043 -0.1313
   7023SM  H13S 9134   1.203   2.798  11.519  2.6925  0.1584  0.8398
   7023SM  H13T 9135   1.097   2.650  11.518  0.5786 -0.8353 -0.6905
   7023SM  C14S 9136   1.232   2.651  11.355  0.7051 -0.5196 -0.6554
   7023SM  H14S 9137   1.342   2.654  11.338  1.3982 -0.2202  2.9805
   7023SM  H14T 9138   1.183   2.719  11.283 -1.1246 -1.5072 -0.4154
   7023SM  C15S 9139   1.194   2.506  11.318 -0.0991 -0.8375 -0.0843
   7023SM  H15S 9140   1.089   2.487  11.351 -0.1314  0.2779  0.5015
   7023SM  H15T 9141   1.262   2.440  11.374 -0.4099 -0.3668  0.8692
   7023SM  C16S 9142   1.182   2.475  11.168 -0.0975 -0.1924 -0.0350
   7023SM  H16S 9143   1.287   2.485  11.132 -0.1941  1.5394  0.0934
   7023SM  H16T 9144   1.117   2.548  11.116 -0.8710 -2.0331 -1.7498
   7023SM  C17S 9145   1.155   2.331  11.133 -0.8783  0.5816 -0.0207
   7023SM  H17S 9146   1.151   2.328  11.022  0.3479 -0.5065 -0.0627
   7023SM  H17T 9147   1.057   2.294  11.172 -0.4494 -0.5210  0.0345
   7023SM  C18S 9148   1.254   2.226  11.183 -0.7980 -0.2285  0.1504
   7023SM  H18S 9149   1.266   2.222  11.294  1.1935  1.8012  0.0844
   7023SM  H18T 9150   1.359   2.243  11.151 -0.4326  1.3599  1.9664
   7023SM  H18U 9151   1.226   2.127  11.141 -1.2448 -0.0201 -0.0431
   7023SM   C1F 9152   1.525   2.451  12.722  0.1061  0.8032 -0.0470
   7023SM    OF 9153   1.554   2.347  12.785  0.0641  0.4581  0.1380
   7023SM   C2F 9154   1.628   2.562  12.713 -0.2573 -0.3455 -0.2636
   7023SM   H2F 9155   1.629   2.628  12.802  0.7431  0.7603 -1.0590
   7023SM   H2G 9156   1.608   2.624  12.623 -1.4932 -1.2444 -0.6425
   7023SM   C3F 9157   1.770   2.508  12.709  0.3816 -0.5455 -0.2491
   7023SM   H3F 9158   1.792   2.434  12.630  0.8854 -1.6624  0.8913
   7023SM   H3G 9159   1.787   2.460  12.809  1.3259 -2.1608 -1.1417
   7023SM   C4F 9160   1.869   2.628  12.711 -0.1741  0.8165 -0.2442
   7023SM   H4F 9161   1.969   2.588  12.738 -0.7722 -1.5367 -1.2530
   7023SM   H4G 9162   1.828   2.693  12.791  0.3394 -0.0870  0.7711
   7023SM   C5F 9163   1.886   2.679  12.572  0.3678 -0.5588  0.1579
   7023SM   H5F 9164   1.790   2.729  12.545 -0.1802 -0.9499  1.3209
   7023SM   H5G 9165   1.892   2.588  12.509 -0.7274  0.9345 -2.2703
   7023SM   C6F 9166   2.012   2.769  12.558 -0.1317  0.4518  0.0023
   7023SM   H6F 9167   2.098   2.706  12.588  0.5818  0.7089 -1.4155
   7023SM   H6G 9168   2.017   2.860  12.622  1.0553 -0.3107  1.0262
   7023SM   C7F 9169   2.040   2.822  12.415  0.8095  0.6573 -0.4548
   7023SM   H7F 9170   1.977   2.913  12.403  2.1758  1.4404 -2.0106
   7023SM   H7G 9171   2.011   2.741  12.345  1.4389  0.4332 -0.4648
   7023SM   C8F 9172   2.188   2.860  12.399 -1.1597 -1.0426 -0.2264
   7023SM   H8F 9173   2.261   2.778  12.387  0.8518  0.9197 -2.4612
   7023SM   H8G 9174   2.232   2.924  12.479  0.7492 -0.0034 -2.0026
   7023SM   C9F 9175   2.214   2.931  12.259  0.1625 -0.6300  0.3118
   7023SM   H9F 9176   2.148   3.020  12.249 -0.4404 -1.1992 -1.0004
   7023SM   H9G 9177   2.184   2.860  12.179  1.5975 -0.7033 -0.1951
   7023SM  C10F 9178   2.366   2.956  12.234 -0.0124 -0.3582  0.3279
   7023SM  H10F 9179   2.417   2.862  12.203 -0.8393 -1.1929  1.4323
   7023SM  H10G 9180   2.402   3.001  12.329  2.3195  1.9078 -1.4613
   7023SM  C11F 9181   2.392   3.054  12.117 -0.8033 -0.5824  0.3654
   7023SM  H11F 9182   2.497   3.084  12.136 -0.3683 -1.1957 -0.8858
   7023SM  H11G 9183   2.336   3.149  12.119 -0.4260 -0.3338 -0.4759
   7023SM  C12F 9184   2.376   2.985  11.977 -0.7138  0.0660 -0.0316
   7023SM  H12F 9185   2.273   2.943  11.971 -1.1876  1.1909 -0.0951
   7023SM  H12G 9186   2.451   2.903  11.978 -1.8548 -1.0245  1.5568
   7023SM  C13F 9187   2.410   3.080  11.859 -0.2671  0.6415  0.2904
   7023SM  H13F 9188   2.332   3.159  11.863 -1.2241 -0.3114  2.9528
   7023SM  H13G 9189   2.399   3.011  11.773  2.1753 -0.3509  0.6815
   7023SM  C14F 9190   2.558   3.142  11.874  0.6581  0.1423  0.6248
   7023SM  H14F 9191   2.624   3.055  11.896  0.4246 -0.6503 -1.5271
   7023SM  H14G 9192   2.555   3.211  11.961  1.6634 -1.0871  1.6778
   7023SM  C15F 9193   2.614   3.223  11.758  0.2558  0.3218  0.4819
   7023SM  H15F 9194   2.709   3.273  11.784  0.0124  1.2431 -0.3251
   7023SM  H15G 9195   2.536   3.299  11.735 -1.0188 -0.8972  0.6484
   7023SM  C16F 9196   2.640   3.153  11.622  0.3559  0.6624 -0.1765
   7023SM  H16F 9197   2.544   3.109  11.587  0.4851  1.0741 -1.0821
   7023SM  H16G 9198   2.696   3.063  11.653 -0.8265 -0.0476 -0.0449
   7023SM  C17F 9199   2.714   3.235  11.517 -0.0358 -0.2797 -0.6761
   7023SM  H17F 9200   2.789   3.292  11.575 -0.2210 -1.9792  1.3464
   7023SM  H17G 9201   2.644   3.294  11.453 -0.8739 -1.1163 -0.5675
   7023SM  C18F 9202   2.789   3.147  11.420 -0.0504  0.2559 -0.2298
   7023SM  H18F 9203   2.883   3.103  11.460  0.4599 -0.3119 -1.9640
   7023SM  H18G 9204   2.834   3.220  11.350 -1.0268  0.2581 -0.8783
   7023SM  C19F 9205   2.708   3.033  11.358  0.6464  0.4366 -0.1591
   7023SM  H19F 9206   2.602   3.066  11.350  0.0867 -1.5291 -1.5576
   7023SM  H19G 9207   2.714   2.941  11.421 -0.0024  1.3108  1.2499
   7023SM  C20F 9208   2.755   2.987  11.215  0.0313 -0.7364  0.1364
   7023SM  H20F 9209   2.840   3.051  11.181  0.5538 -1.5430 -0.1078
   7023SM  H20G 9210   2.675   2.997  11.138 -0.5520 -1.8633  0.5792
   7023SM  C21F 9211   2.817   2.845  11.220 -0.2691 -0.3720 -0.3889
   7023SM  H21F 9212   2.740   2.767  11.237 -0.0310 -0.7072 -0.8309
   7023SM  H21G 9213   2.885   2.857  11.308  2.0620  0.8742 -2.2449
   7023SM  C22F 9214   2.897   2.815  11.097 -0.2766  0.2830  0.2461
   7023SM  H22F 9215   2.997   2.861  11.108  1.2584 -2.3772 -1.3030
   7023SM  H22G 9216   2.853   2.849  11.000 -0.4769 -0.5532  0.0288
   7023SM  C23F 9217   2.924   2.666  11.077 -0.0707 -0.0660 -0.1104
   7023SM  H23F 9218   3.009   2.629  11.139 -0.1608 -1.4597 -0.7664
   7023SM  H23G 9219   2.949   2.637  10.972 -1.1657 -1.7083  0.0593
   7023SM  H23H 9220   2.825   2.621  11.098 -0.1707  0.0670 -0.2919
   7123SM     N 9221   3.724   0.198  13.283 -0.7827  0.2405 -0.3892
   7123SM   C15 9222   3.662   0.126  13.170  0.0002 -0.0237 -0.6407
   7123SM  H15A 9223   3.581   0.061  13.201  0.0754 -1.2881 -2.8806
   7123SM  H15B 9224   3.734   0.054  13.134  1.3249  0.3474  1.1065
   7123SM  H15C 9225   3.634   0.188  13.086  0.6949  0.5036 -0.4943
   7123SM   C14 9226   3.635   0.300  13.344  0.4427 -0.1412 -0.6969
   7123SM  H14A 9227   3.546   0.250  13.378  1.2377 -0.7757  0.5282
   7123SM  H14B 9228   3.603   0.391  13.296 -2.2632  0.0467  1.2298
   7123SM  H14C 9229   3.682   0.333  13.435  1.2924  1.3138 -1.6166
   7123SM   C13 9230   3.764   0.100  13.385 -0.5052  0.4504 -0.4516
   7123SM  H13A 9231   3.788   0.156  13.473 -1.4521 -0.3948  0.3686
   7123SM  H13B 9232   3.849   0.043  13.350 -0.8524  0.2838 -1.0383
   7123SM  H13C 9233   3.690   0.022  13.399  0.0649 -0.3219 -1.5599
   7123SM   C12 9234   3.847   0.266  13.236 -0.4962 -0.4568 -0.3487
   7123SM  H12A 9235   3.906   0.317  13.311 -0.3760  1.1277 -1.4698
   7123SM  H12B 9236   3.822   0.336  13.158 -1.3687 -1.7876 -1.3022
   7123SM   C11 9237   3.958   0.181  13.157 -0.2278  0.4832 -0.0471
   7123SM  H11A 9238   4.053   0.239  13.161  1.2803 -1.8856  0.7896
   7123SM  H11B 9239   3.919   0.168  13.054  1.7270 -0.1590 -0.7631
   7123SM     P 9240   4.122  -0.008  13.271 -0.1977  0.2312  0.4619
   7123SM   O13 9241   4.143   0.063  13.397  0.6012 -0.3329 -0.5690
   7123SM   O14 9242   4.110  -0.155  13.267 -0.0926  0.3291  0.2862
   7123SM   O11 9243   4.238   0.026  13.165 -0.6515  0.0579  0.3649
   7123SM   O12 9244   3.987   0.054  13.203 -0.1279 -0.0327  0.4511
   7123SM   C1S 9245   4.252  -0.045  13.037  0.2335 -0.0897 -0.3979
   7123SM   H1S 9246   4.181  -0.130  13.025  1.6844 -1.1847 -1.5106
   7123SM   H1T 9247   4.356  -0.083  13.033  0.4119 -0.0412  2.1711
   7123SM    NF 9248   4.225  -0.035  12.794  0.7481 -0.3014  0.0589
   7123SM   HNF 9249   4.295  -0.020  12.725  0.1447 -1.2160 -0.7750
   7123SM   C2S 9250   4.233   0.051  12.914  0.9054 -0.1272  0.0940
   7123SM   H2S 9251   4.136   0.105  12.923  1.0800  0.7187 -2.4130
   7123SM   C3S 9252   4.352   0.154  12.906 -0.1335 -0.1568  0.0804
   7123SM   H3S 9253   4.436   0.090  12.873 -0.4909  0.5285 -2.3587
   7123SM    O3 9254   4.383   0.214  13.033 -0.2682  0.6937  0.0634
   7123SM   HO3 9255   4.322   0.170  13.093  1.3973 -0.9828  0.6313
   7123SM   C4S 9256   4.324   0.260  12.804 -0.1460 -0.3833  0.1985
   7123SM   H4S 9257   4.236   0.322  12.828 -0.0076  0.5868 -1.6016
   7123SM   C5S 9258   4.383   0.278  12.682 -0.2614  0.2964 -0.1598
   7123SM   H5S 9259   4.458   0.206  12.647 -1.4681 -0.9835 -0.1994
   7123SM   C6S 9260   4.338   0.383  12.586  0.6346 -0.3771 -1.0555
   7123SM   H6S 9261   4.428   0.436  12.549  0.7319 -0.1700 -0.5296
   7123SM   H6T 9262   4.278   0.456  12.644 -0.1585 -1.1642 -0.8642
   7123SM   C7S 9263   4.263   0.323  12.468 -0.4236  0.1489  0.2214
   7123SM   H7S 9264   4.165   0.273  12.487 -0.7776  0.2326 -1.2610
   7123SM   H7T 9265   4.334   0.247  12.429 -1.6335 -1.2378  0.6289
   7123SM   C8S 9266   4.241   0.422  12.356  0.0573  0.2561 -0.3284
   7123SM   H8S 9267   4.337   0.454  12.310  1.3541 -0.9127  1.4322
   7123SM   H8T 9268   4.184   0.505  12.402 -0.4260 -0.6319  0.7352
   7123SM   C9S 9269   4.156   0.367  12.248 -0.2366  0.2726  0.0160
   7123SM   H9S 9270   4.050   0.345  12.273  0.2383 -1.2172  0.8209
   7123SM   H9T 9271   4.216   0.279  12.218  3.6322  2.4388  0.8214
   7123SM  C10S 9272   4.156   0.455  12.126 -0.0070 -0.5642 -0.4477
   7123SM  H10S 9273   4.264   0.463  12.102  0.7768 -1.3635  2.3899
   7123SM  H10T 9274   4.125   0.557  12.159 -1.8557 -1.1343 -0.3299
   7123SM  C11S 9275   4.070   0.401  12.016  1.0725 -0.1526 -0.5527
   7123SM  H11S 9276   3.964   0.413  12.047  1.6226  2.1330  0.6486
   7123SM  H11T 9277   4.099   0.294  12.009  0.1410 -0.4247 -0.5047
   7123SM  C12S 9278   4.088   0.455  11.878 -0.2170  0.3869 -0.4496
   7123SM  H12S 9279   4.042   0.389  11.802  0.0534 -0.7160  0.3230
   7123SM  H12T 9280   4.198   0.454  11.861 -0.0393 -0.3654  0.6448
   7123SM  C13S 9281   4.051   0.603  11.864  0.0049 -1.1131  0.7311
   7123SM  H13S 9282   4.113   0.646  11.783 -0.6905 -0.7570  0.3796
   7123SM  H13T 9283   4.083   0.657  11.955  0.5914 -0.1985  0.0042
   7123SM  C14S 9284   3.903   0.624  11.827  0.2335  0.1914 -0.6828
   7123SM  H14S 9285   3.876   0.732  11.822  0.3459  0.1740 -2.1615
   7123SM  H14T 9286   3.844   0.570  11.904  0.4320  0.6181 -0.2301
   7123SM  C15S 9287   3.872   0.562  11.688  0.4563  0.4156 -0.3273
   7123SM  H15S 9288   3.897   0.454  11.687  0.4319  0.3942  0.5071
   7123SM  H15T 9289   3.920   0.622  11.608  0.0334  0.4754 -0.5397
   7123SM  C16S 9290   3.724   0.574  11.652 -0.6613  0.1289  0.0255
   7123SM  H16S 9291   3.670   0.669  11.672  0.0382  0.6356 -0.4507
   7123SM  H16T 9292   3.671   0.490  11.702 -1.9972 -0.0477 -1.5928
   7123SM  C17S 9293   3.698   0.569  11.500  0.3189 -0.3467 -0.7935
   7123SM  H17S 9294   3.751   0.486  11.448 -1.1049 -2.3049  0.7393
   7123SM  H17T 9295   3.732   0.661  11.448  0.0500  0.0598 -0.2573
   7123SM  C18S 9296   3.550   0.555  11.465  0.2005  0.3264 -0.1644
   7123SM  H18S 9297   3.512   0.622  11.385 -0.1252  2.4634  1.6749
   7123SM  H18T 9298   3.486   0.575  11.553 -1.8491 -1.3914 -1.1640
   7123SM  H18U 9299   3.522   0.451  11.439 -0.7502  1.0122 -2.1329
   7123SM   C1F 9300   4.131  -0.124  12.763 -0.4496 -0.3621  0.3627
   7123SM    OF 9301   4.027  -0.121  12.820 -0.2138  0.3879 -0.1748
   7123SM   C2F 9302   4.174  -0.222  12.658  1.0440 -0.0321 -0.1381
   7123SM   H2F 9303   4.130  -0.323  12.673  0.6489  0.4132  2.2182
   7123SM   H2G 9304   4.284  -0.234  12.666  1.0768 -2.2595 -2.7295
   7123SM   C3F 9305   4.131  -0.186  12.518 -0.0779  0.8870  0.6579
   7123SM   H3F 9306   4.020  -0.177  12.522 -0.2775 -1.4656  2.0491
   7123SM   H3G 9307   4.163  -0.266  12.449  1.4570  0.8522  1.3757
   7123SM   C4F 9308   4.192  -0.054  12.477 -0.1184  0.1835  0.1925
   7123SM   H4F 9309   4.302  -0.069  12.482  0.0922 -0.3419 -3.4303
   7123SM   H4G 9310   4.164   0.030  12.544  3.0191  0.9074  0.7575
   7123SM   C5F 9311   4.155  -0.021  12.339  0.1080 -0.8117 -0.1894
   7123SM   H5F 9312   4.193  -0.099  12.269 -1.0500 -0.5725 -1.1335
   7123SM   H5G 9313   4.213   0.068  12.308 -0.8028 -0.3821 -0.6985
   7123SM   C6F 9314   4.003   0.000  12.311 -0.1658  0.0628  0.0163
   7123SM   H6F 9315   3.948   0.060  12.386 -3.3811 -0.8472 -1.4542
   7123SM   H6G 9316   3.964  -0.103  12.318 -1.6473  0.3946 -2.3145
   7123SM   C7F 9317   3.986   0.048  12.169  0.2750 -0.1022  1.1045
   7123SM   H7F 9318   4.030  -0.020  12.092 -1.0335  0.9260 -0.6141
   7123SM   H7G 9319   4.051   0.138  12.158 -0.6317  0.2622 -2.3057
   7123SM   C8F 9320   3.843   0.083  12.133 -0.3370 -0.0184 -0.0889
   7123SM   H8F 9321   3.848   0.133  12.034 -0.2567  0.2479  0.0500
   7123SM   H8G 9322   3.817   0.158  12.211 -1.9204 -0.4136 -0.1945
   7123SM   C9F 9323   3.741  -0.032  12.137  0.5271  0.3934 -0.1336
   7123SM   H9F 9324   3.638   0.004  12.157 -0.1302 -0.8267 -1.2122
   7123SM   H9G 9325   3.759  -0.096  12.226  0.9643 -1.0898 -1.2458
   7123SM  C10F 9326   3.759  -0.112  12.012  0.1682  0.2291 -0.6435
   7123SM  H10F 9327   3.854  -0.168  12.011 -0.4995 -1.0574  1.6976
   7123SM  H10G 9328   3.752  -0.036  11.931  2.5425  0.4676 -0.6811
   7123SM  C11F 9329   3.640  -0.207  11.989  0.3973  0.5369  0.8657
   7123SM  H11F 9330   3.552  -0.142  12.009  0.1361  1.7581 -3.2577
   7123SM  H11G 9331   3.641  -0.298  12.052  0.1157 -0.1130 -0.0424
   7123SM  C12F 9332   3.629  -0.249  11.837 -0.0821 -0.5145 -0.0062
   7123SM  H12F 9333   3.614  -0.150  11.787 -0.0565 -1.3753 -1.8186
   7123SM  H12G 9334   3.549  -0.326  11.827 -0.4476 -0.4905  2.3380
   7123SM  C13F 9335   3.753  -0.313  11.781  0.0971 -0.2348  0.5866
   7123SM  H13F 9336   3.788  -0.403  11.836  1.9247  0.5595  0.8171
   7123SM  H13G 9337   3.838  -0.241  11.787  0.7682 -0.8948 -0.6339
   7123SM  C14F 9338   3.744  -0.348  11.627  0.0740 -0.7392  0.7886
   7123SM  H14F 9339   3.677  -0.436  11.617 -3.0685  1.5456  0.2195
   7123SM  H14G 9340   3.845  -0.368  11.584  0.4045  1.9230  0.1254
   7123SM  C15F 9341   3.681  -0.230  11.529 -0.5120  0.2982  0.5562
   7123SM  H15F 9342   3.744  -0.141  11.549  0.2135 -0.1264  0.2180
   7123SM  H15G 9343   3.576  -0.212  11.559 -0.6079 -1.3751  1.3077
   7123SM  C16F 9344   3.689  -0.281  11.381 -0.2557  0.2621  0.0147
   7123SM  H16F 9345   3.654  -0.386  11.388 -1.1744  0.5871  0.5137
   7123SM  H16G 9346   3.795  -0.265  11.351 -0.1731  0.0761  0.2039
   7123SM  C17F 9347   3.597  -0.208  11.286  0.3117  0.3535  0.4069
   7123SM  H17F 9348   3.602  -0.098  11.304 -2.3435  0.5491  0.4454
   7123SM  H17G 9349   3.492  -0.242  11.302  0.3279 -0.3458 -0.8788
   7123SM  C18F 9350   3.644  -0.227  11.145  0.8725 -0.5204  0.1596
   7123SM  H18F 9351   3.657  -0.335  11.122 -2.1574 -0.9346  0.0871
   7123SM  H18G 9352   3.739  -0.172  11.126  0.2085  0.9055  0.8523
   7123SM  C19F 9353   3.543  -0.162  11.051 -0.0639  0.4357 -0.2613
   7123SM  H19F 9354   3.522  -0.058  11.083  1.7276  0.2902  1.5744
   7123SM  H19G 9355   3.447  -0.218  11.044  0.4692 -0.5435  0.0970
   7123SM  C20F 9356   3.601  -0.163  10.910 -0.7190 -0.2093  0.0927
   7123SM  H20F 9357   3.698  -0.109  10.902 -0.2365 -1.1510 -0.6924
   7123SM  H20G 9358   3.531  -0.106  10.846 -1.1070  0.9275  1.4807
   7123SM  C21F 9359   3.628  -0.303  10.852  0.9787 -0.4605  0.1837
   7123SM  H21F 9360   3.538  -0.366  10.863 -0.8633  1.8577 -0.8130
   7123SM  H21G 9361   3.709  -0.350  10.911  1.3710  0.8070  0.6773
   7123SM  C22F 9362   3.670  -0.290  10.701 -0.3931  0.1306  0.8038
   7123SM  H22F 9363   3.686  -0.393  10.664 -0.3309  0.8128 -1.1769
   7123SM  H22G 9364   3.763  -0.230  10.690 -0.7077  0.5670  0.4721
   7123SM  C23F 9365   3.556  -0.224  10.624  0.9534  0.1456  0.9542
   7123SM  H23F 9366   3.557  -0.245  10.515  1.3780 -0.2810  1.0406
   7123SM  H23G 9367   3.562  -0.113  10.624 -1.3449  0.3459 -1.0867
   7123SM  H23H 9368   3.464  -0.269  10.667  0.5802  0.5846  0.6247
   7223SM     N 9369   5.847   3.639  13.364  0.4608 -0.3287  0.4792
   7223SM   C15 9370   5.803   3.596  13.228 -0.1558 -0.1111  0.3858
   7223SM  H15A 9371   5.848   3.662  13.156 -0.2955  0.4648  0.8234
   7223SM  H15B 9372   5.696   3.590  13.216 -0.3128  0.1026  1.6031
   7223SM  H15C 9373   5.851   3.502  13.204  2.8202  1.0800  1.2184
   7223SM   C14 9374   5.767   3.557  13.462 -0.6542 -0.5159  0.3144
   7223SM  H14A 9375   5.667   3.595  13.480 -0.7300 -0.9396  0.8295
   7223SM  H14B 9376   5.817   3.546  13.557  1.2897 -3.0922 -0.8903
   7223SM  H14C 9377   5.765   3.454  13.428 -0.5302 -0.7111  0.8841
   7223SM   C13 9378   5.990   3.608  13.374 -0.0975 -0.0768 -0.3312
   7223SM  H13A 9379   6.014   3.634  13.477 -1.7122 -0.2149  0.1083
   7223SM  H13B 9380   6.051   3.667  13.307 -0.7135 -0.9788 -1.7311
   7223SM  H13C 9381   6.016   3.503  13.368 -1.4502 -0.4557  0.0772
   7223SM   C12 9382   5.822   3.782  13.382  0.0290  0.2669  0.2601
   7223SM  H12A 9383   5.894   3.838  13.324 -0.2386  0.8245  0.4573
   7223SM  H12B 9384   5.831   3.806  13.487 -1.5246 -1.0785  0.7467
   7223SM   C11 9385   5.684   3.833  13.332 -0.3383  0.4965 -0.0961
   7223SM  H11A 9386   5.601   3.771  13.372  1.4308 -2.6448 -0.9778
   7223SM  H11B 9387   5.683   3.826  13.221  1.1643 -0.2491 -0.0860
   7223SM     P 9388   5.566   4.054  13.423 -0.0094 -0.1946  0.0217
   7223SM   O13 9389   5.530   3.998  13.551  0.0004 -0.1370  0.2269
   7223SM   O14 9390   5.606   4.201  13.412 -0.1116 -0.3843  0.1379
   7223SM   O11 9391   5.446   4.023  13.330 -0.0052 -0.2050  0.3269
   7223SM   O12 9392   5.683   3.969  13.362  0.5539 -0.4383 -0.3266
   7223SM   C1S 9393   5.452   4.004  13.185  0.4106  0.0001 -0.1187
   7223SM   H1S 9394   5.466   3.897  13.157 -0.8465 -0.1712 -0.1589
   7223SM   H1T 9395   5.536   4.061  13.141 -0.6272 -0.0448 -2.3009
   7223SM    NF 9396   5.365   4.077  12.961 -1.1027 -0.3434 -0.1852
   7223SM   HNF 9397   5.377   4.167  12.921  0.4911 -0.2733  0.3908
   7223SM   C2S 9398   5.333   4.067  13.102  0.8934 -0.8358  0.3446
   7223SM   H2S 9399   5.245   4.003  13.124  0.9439 -0.1138  3.0306
   7223SM   C3S 9400   5.297   4.209  13.159 -0.4728 -0.1535 -0.5355
   7223SM   H3S 9401   5.385   4.269  13.129 -0.3546 -0.6940 -1.3009
   7223SM    O3 9402   5.286   4.219  13.301  0.2719  0.4617 -0.0007
   7223SM   HO3 9403   5.307   4.133  13.338  0.0343  0.3034 -0.2263
   7223SM   C4S 9404   5.180   4.276  13.085 -0.1271 -0.0169 -0.4626
   7223SM   H4S 9405   5.214   4.360  13.022  0.0289  0.4285  0.2022
   7223SM   C5S 9406   5.046   4.245  13.104  0.6377  0.2522 -0.0899
   7223SM   H5S 9407   5.027   4.173  13.186  0.0382 -3.0879 -2.9297
   7223SM   C6S 9408   4.925   4.315  13.037 -0.6493  0.5900  0.5195
   7223SM   H6S 9409   4.867   4.371  13.113  0.8175  2.1343  0.5634
   7223SM   H6T 9410   4.854   4.240  12.996  0.5913 -0.0113 -0.5985
   7223SM   C7S 9411   4.952   4.404  12.915 -0.4085  0.1284 -0.3992
   7223SM   H7S 9412   5.010   4.345  12.840 -1.8959 -0.5634 -1.0321
   7223SM   H7T 9413   5.005   4.499  12.937  1.9234 -1.1551 -0.1310
   7223SM   C8S 9414   4.820   4.443  12.846 -0.0386 -0.2229  0.2348
   7223SM   H8S 9415   4.749   4.474  12.926 -0.5208 -0.7202  0.0043
   7223SM   H8T 9416   4.768   4.356  12.802  1.1287 -0.6431 -0.3568
   7223SM   C9S 9417   4.847   4.554  12.744  0.2879  0.0230  0.1160
   7223SM   H9S 9418   4.876   4.652  12.787 -1.8401  1.1451 -0.8178
   7223SM   H9T 9419   4.746   4.570  12.700  0.4268  1.5823  0.2895
   7223SM  C10S 9420   4.942   4.516  12.628 -0.7482 -0.3649  0.1661
   7223SM  H10S 9421   4.903   4.425  12.577  1.0942 -0.6122 -0.8990
   7223SM  H10T 9422   5.036   4.487  12.682 -0.7537 -0.3117  0.2056
   7223SM  C11S 9423   4.971   4.620  12.527 -0.2466  0.4490  0.3324
   7223SM  H11S 9424   5.039   4.574  12.452 -0.8991  0.7828 -0.4697
   7223SM  H11T 9425   5.026   4.705  12.574 -1.5981 -0.1381  3.1935
   7223SM  C12S 9426   4.853   4.673  12.451 -0.1667 -0.3338  0.4309
   7223SM  H12S 9427   4.794   4.736  12.521  1.8161  2.0728  0.0684
   7223SM  H12T 9428   4.791   4.588  12.415  0.7313  0.0114 -2.0848
   7223SM  C13S 9429   4.902   4.773  12.329  0.4327  0.0985 -0.6209
   7223SM  H13S 9430   4.826   4.801  12.252  1.7888  2.8931 -1.0820
   7223SM  H13T 9431   4.984   4.737  12.263  0.5561  0.4718 -0.6740
   7223SM  C14S 9432   4.940   4.903  12.399  0.3734  0.1473 -0.4033
   7223SM  H14S 9433   5.041   4.915  12.445  1.0526 -0.0371 -1.8095
   7223SM  H14T 9434   4.869   4.919  12.483 -0.8896  0.2034 -1.4521
   7223SM  C15S 9435   4.925   5.011  12.293 -0.2598 -0.7920 -0.3031
   7223SM  H15S 9436   4.825   5.003  12.244 -0.2102  0.7870 -0.7213
   7223SM  H15T 9437   4.997   5.002  12.209  0.2573 -1.0747  0.1655
   7223SM  C16S 9438   4.968   5.154  12.342  0.2641 -0.6843  0.2238
   7223SM  H16S 9439   5.074   5.146  12.372  1.2254 -0.0859 -2.7135
   7223SM  H16T 9440   4.893   5.179  12.420  0.8653  1.9785  0.0568
   7223SM  C17S 9441   4.954   5.263  12.236  0.1616  0.1397  0.2548
   7223SM  H17S 9442   4.849   5.281  12.208  0.6319  0.5734 -1.2985
   7223SM  H17T 9443   5.006   5.225  12.145 -2.4700 -0.5752 -1.0445
   7223SM  C18S 9444   5.024   5.401  12.273 -0.2238  0.5239  0.2847
   7223SM  H18S 9445   5.003   5.471  12.189  2.0911 -0.5838 -1.3205
   7223SM  H18T 9446   5.133   5.393  12.291 -0.1437 -0.8620 -0.6925
   7223SM  H18U 9447   4.978   5.440  12.367  1.0584 -0.7282  1.4784
   7223SM   C1F 9448   5.397   3.971  12.889 -0.0433 -0.4044  0.7213
   7223SM    OF 9449   5.402   3.861  12.936  0.2445 -0.8575 -0.1608
   7223SM   C2F 9450   5.415   3.991  12.737  0.2696 -0.0993 -0.2590
   7223SM   H2F 9451   5.516   4.033  12.722  0.5044 -0.6430 -0.2173
   7223SM   H2G 9452   5.344   4.072  12.708  1.1333  1.0543  0.7494
   7223SM   C3F 9453   5.402   3.858  12.671  0.1816  0.1463 -0.4714
   7223SM   H3F 9454   5.307   3.805  12.689 -0.2056  0.6160 -1.0949
   7223SM   H3G 9455   5.486   3.792  12.704 -0.2338  0.0617  0.4421
   7223SM   C4F 9456   5.415   3.885  12.519 -0.2393 -0.5280  0.3092
   7223SM   H4F 9457   5.489   3.967  12.511 -1.3390  0.7158  2.2006
   7223SM   H4G 9458   5.319   3.922  12.478 -0.5820 -0.1581  1.4250
   7223SM   C5F 9459   5.450   3.758  12.438 -0.6587 -0.4748 -0.0190
   7223SM   H5F 9460   5.379   3.673  12.450  1.3955 -2.4253 -0.9694
   7223SM   H5G 9461   5.540   3.706  12.477  0.8689  2.5861  0.8112
   7223SM   C6F 9462   5.460   3.781  12.286  0.1716  0.0521 -0.5632
   7223SM   H6F 9463   5.564   3.817  12.270  0.1687  0.0253 -0.6409
   7223SM   H6G 9464   5.389   3.864  12.267 -1.2481 -0.1913  2.9123
   7223SM   C7F 9465   5.438   3.651  12.205  0.1669  0.6286  0.3375
   7223SM   H7F 9466   5.345   3.594  12.225  1.5285 -1.6185  0.6287
   7223SM   H7G 9467   5.522   3.580  12.220  0.0718  0.4666  0.1146
   7223SM   C8F 9468   5.450   3.677  12.058  0.0284  0.2918 -0.5693
   7223SM   H8F 9469   5.543   3.727  12.025  1.7343 -0.9882  2.0466
   7223SM   H8G 9470   5.371   3.752  12.037  1.0311  1.3639 -0.5923
   7223SM   C9F 9471   5.442   3.547  11.971  0.1568  0.7010 -0.1041
   7223SM   H9F 9472   5.335   3.522  11.989  0.1456  1.5192  1.0761
   7223SM   H9G 9473   5.510   3.465  12.004 -1.5650 -1.3231 -1.2893
   7223SM  C10F 9474   5.466   3.573  11.826  0.2479  0.3494 -0.1480
   7223SM  H10F 9475   5.562   3.628  11.822  1.4705 -1.7512 -0.8786
   7223SM  H10G 9476   5.389   3.640  11.781 -1.0033  0.3882  1.9225
   7223SM  C11F 9477   5.477   3.445  11.741  0.4789  0.6431  0.2684
   7223SM  H11F 9478   5.520   3.360  11.799  1.3387  0.0089 -1.2385
   7223SM  H11G 9479   5.536   3.457  11.647 -0.3372 -0.5978 -0.4325
   7223SM  C12F 9480   5.335   3.392  11.687 -0.7007 -0.4218 -0.3442
   7223SM  H12F 9481   5.280   3.475  11.637 -2.3087 -1.4032 -0.2817
   7223SM  H12G 9482   5.265   3.381  11.772  1.5788  2.2145  2.0566
   7223SM  C13F 9483   5.340   3.265  11.593 -0.0190  0.3553 -0.8568
   7223SM  H13F 9484   5.414   3.197  11.640  2.0179  2.1639 -1.2614
   7223SM  H13G 9485   5.380   3.299  11.495  0.4354 -2.1369 -1.5976
   7223SM  C14F 9486   5.197   3.213  11.559 -0.1921  0.4882  0.6647
   7223SM  H14F 9487   5.152   3.294  11.497 -0.7565  0.5508  1.1518
   7223SM  H14G 9488   5.150   3.189  11.657 -2.1176 -0.6255 -0.4455
   7223SM  C15F 9489   5.191   3.085  11.465 -0.1058 -0.4086 -0.2755
   7223SM  H15F 9490   5.221   3.116  11.362  1.4363 -2.0444 -0.3747
   7223SM  H15G 9491   5.090   3.038  11.455 -0.0411 -0.4351 -0.8338
   7223SM  C16F 9492   5.300   2.984  11.500  0.8910  0.0149  0.3643
   7223SM  H16F 9493   5.291   2.942  11.602 -0.4684 -1.0403 -0.1459
   7223SM  H16G 9494   5.393   3.045  11.498  0.8100  0.1402  0.4130
   7223SM  C17F 9495   5.308   2.878  11.382  0.1405  0.0080  0.2323
   7223SM  H17F 9496   5.405   2.825  11.395  0.8560  1.6177  2.0114
   7223SM  H17G 9497   5.316   2.935  11.287  2.7923 -0.6102  0.0069
   7223SM  C18F 9498   5.201   2.770  11.391 -0.0850  0.3581  0.1618
   7223SM  H18F 9499   5.154   2.778  11.492  0.6551 -1.3988  0.6769
   7223SM  H18G 9500   5.249   2.670  11.383 -3.8827 -1.5228 -1.4510
   7223SM  C19F 9501   5.088   2.783  11.282 -1.1875 -0.4631  0.2593
   7223SM  H19F 9502   5.139   2.794  11.184  0.4650  2.7155  1.3459
   7223SM  H19G 9503   5.032   2.877  11.303 -1.1077 -0.0314 -1.3157
   7223SM  C20F 9504   5.001   2.656  11.270  0.0653 -0.6674 -0.2296
   7223SM  H20F 9505   4.957   2.628  11.368 -1.1199  1.7797  0.0388
   7223SM  H20G 9506   5.065   2.577  11.226 -1.1982 -1.5930 -0.4582
   7223SM  C21F 9507   4.876   2.677  11.181  0.4043  0.0182  0.0117
   7223SM  H21F 9508   4.888   2.754  11.102 -1.4049  0.1576 -0.1770
   7223SM  H21G 9509   4.799   2.723  11.247 -2.3132  1.9575 -4.0639
   7223SM  C22F 9510   4.823   2.545  11.118 -0.9145 -0.0932  0.1343
   7223SM  H22F 9511   4.823   2.455  11.184  0.1882  0.6309  1.1700
   7223SM  H22G 9512   4.900   2.520  11.041 -0.2422  0.4165  0.6265
   7223SM  C23F 9513   4.674   2.563  11.081  0.3622 -0.6259 -0.2473
   7223SM  H23F 9514   4.606   2.604  11.158  0.7917 -0.0816 -0.1502
   7223SM  H23G 9515   4.633   2.461  11.067 -1.1866 -0.3207  1.6882
   7223SM  H23H 9516   4.665   2.631  10.993 -0.2105  1.7056  1.5104
   7323SM     N 9517   2.247   2.111  13.472 -0.0429 -0.6831 -0.2209
   7323SM   C15 9518   2.382   2.177  13.478  0.2314 -0.0739 -0.6514
   7323SM  H15A 9519   2.463   2.105  13.480 -0.5902 -1.0552  1.9149
   7323SM  H15B 9520   2.393   2.234  13.569  0.6446 -1.5567  0.2696
   7323SM  H15C 9521   2.401   2.240  13.392  0.4133  0.5910 -0.1293
   7323SM   C14 9522   2.226   2.031  13.600 -0.0907  0.1517 -0.1296
   7323SM  H14A 9523   2.207   2.100  13.680  0.3052  0.2414 -0.1088
   7323SM  H14B 9524   2.298   1.957  13.633 -1.4657 -0.6278  1.2716
   7323SM  H14C 9525   2.135   1.973  13.606  0.6184 -0.8563  2.3697
   7323SM   C13 9526   2.138   2.219  13.465  0.3762 -0.9244 -0.0761
   7323SM  H13A 9527   2.139   2.275  13.557  0.4588 -0.3405 -0.4250
   7323SM  H13B 9528   2.043   2.168  13.472 -1.2030  1.9975  1.8122
   7323SM  H13C 9529   2.149   2.292  13.387 -1.1939  1.1845  1.5715
   7323SM   C12 9530   2.234   2.013  13.355  0.1750  0.2439 -0.0290
   7323SM  H12A 9531   2.160   1.939  13.382  0.5203 -0.7743 -1.7611
   7323SM  H12B 9532   2.328   1.960  13.353  0.1140  0.1437 -2.1475
   7323SM   C11 9533   2.215   2.070  13.211  0.6307  0.0601  0.5796
   7323SM  H11A 9534   2.130   2.141  13.207  0.9637  0.4742  0.7671
   7323SM  H11B 9535   2.189   1.982  13.149  0.4348  1.2310 -1.0613
   7323SM     P 9536   2.454   2.065  13.100  0.7129  0.4322 -0.0490
   7323SM   O13 9537   2.573   2.156  13.077  0.3268 -0.3377 -0.4152
   7323SM   O14 9538   2.482   1.951  13.186  0.1444 -0.3123 -0.4730
   7323SM   O11 9539   2.419   2.002  12.957 -0.1641 -0.2517  0.1350
   7323SM   O12 9540   2.327   2.143  13.161  0.3790 -0.5327  0.1119
   7323SM   C1S 9541   2.328   2.071  12.877 -0.3297  0.3321  0.5232
   7323SM   H1S 9542   2.341   2.182  12.884  0.6845  0.1568  1.8492
   7323SM   H1T 9543   2.222   2.044  12.897  0.1381 -2.2376 -0.1738
   7323SM    NF 9544   2.268   2.125  12.652  0.1895  0.1044  0.4888
   7323SM   HNF 9545   2.171   2.107  12.645  0.2797  0.3492 -2.0632
   7323SM   C2S 9546   2.342   2.030  12.731  0.8352 -0.1236  0.2505
   7323SM   H2S 9547   2.448   2.034  12.696  0.8960 -1.2754  0.2540
   7323SM   C3S 9548   2.281   1.889  12.714  0.3877 -0.5509  0.1259
   7323SM   H3S 9549   2.175   1.903  12.743  0.1019 -0.7835 -0.7984
   7323SM    O3 9550   2.340   1.787  12.790 -0.6126  0.1042  0.1034
   7323SM   HO3 9551   2.389   1.843  12.851 -2.3672  0.5897  1.1236
   7323SM   C4S 9552   2.286   1.850  12.570 -0.3096  0.5650  0.1739
   7323SM   H4S 9553   2.184   1.866  12.533 -1.4401 -1.2759  2.3123
   7323SM   C5S 9554   2.383   1.797  12.492 -0.5887  0.6163 -0.2905
   7323SM   H5S 9555   2.468   1.756  12.550 -0.9396  1.6743  1.0305
   7323SM   C6S 9556   2.377   1.754  12.347 -0.0107 -0.1999 -0.2617
   7323SM   H6S 9557   2.473   1.796  12.311  0.5558 -1.8290 -0.7069
   7323SM   H6T 9558   2.292   1.788  12.284 -1.0777 -0.6296  0.9022
   7323SM   C7S 9559   2.387   1.599  12.332  0.5808 -0.0297  0.2644
   7323SM   H7S 9560   2.321   1.556  12.411  0.4006 -1.9844 -0.8872
   7323SM   H7T 9561   2.490   1.561  12.351  0.7941  0.2814 -0.2692
   7323SM   C8S 9562   2.348   1.542  12.194 -0.0498 -0.2513  0.3562
   7323SM   H8S 9563   2.432   1.472  12.172  0.0508 -0.1287  0.3486
   7323SM   H8T 9564   2.371   1.634  12.136 -2.5448  0.1779 -0.0715
   7323SM   C9S 9565   2.198   1.482  12.192 -0.1624 -0.3676 -0.2445
   7323SM   H9S 9566   2.188   1.421  12.284 -1.5429 -2.0240 -1.4326
   7323SM   H9T 9567   2.188   1.413  12.106 -2.7590  2.2978 -2.2868
   7323SM  C10S 9568   2.085   1.594  12.185 -0.5427  0.0647  0.5979
   7323SM  H10S 9569   2.090   1.651  12.281 -0.6267 -0.7287  1.0851
   7323SM  H10T 9570   1.987   1.541  12.183 -1.2909  1.2908  2.2347
   7323SM  C11S 9571   2.091   1.675  12.053 -0.3079 -0.0712  0.1368
   7323SM  H11S 9572   2.065   1.606  11.970 -0.6014  0.5543 -0.2989
   7323SM  H11T 9573   2.197   1.705  12.040 -0.1032 -0.4998  0.7434
   7323SM  C12S 9574   1.996   1.796  12.052  0.3651  0.4420 -0.5998
   7323SM  H12S 9575   1.897   1.764  12.094  1.1853  0.8317  1.8163
   7323SM  H12T 9576   1.973   1.835  11.951  2.1516  1.8204 -0.5184
   7323SM  C13S 9577   2.027   1.911  12.151  0.3856 -1.0305  0.4391
   7323SM  H13S 9578   2.130   1.953  12.148 -0.0475  0.0021  0.0454
   7323SM  H13T 9579   2.015   1.875  12.256 -1.1249  3.0966  1.8789
   7323SM  C14S 9580   1.913   2.011  12.140 -0.1491 -0.1572 -0.0011
   7323SM  H14S 9581   1.818   1.958  12.123 -0.0195  0.2701 -2.3493
   7323SM  H14T 9582   1.915   2.084  12.056 -0.5466 -0.8358 -0.6041
   7323SM  C15S 9583   1.899   2.095  12.274  0.1787 -0.0899 -0.0129
   7323SM  H15S 9584   1.998   2.136  12.302  0.5160 -1.0289  0.2142
   7323SM  H15T 9585   1.867   2.028  12.357  0.7125  1.8966  1.8907
   7323SM  C16S 9586   1.783   2.195  12.247 -0.0614 -0.0949  0.4404
   7323SM  H16S 9587   1.688   2.139  12.236  0.7791 -1.8195  1.4904
   7323SM  H16T 9588   1.795   2.259  12.157 -1.8924 -1.9121 -1.1852
   7323SM  C17S 9589   1.765   2.289  12.372  0.1005  0.0476 -0.7900
   7323SM  H17S 9590   1.858   2.342  12.400  0.1116 -1.3123  2.1928
   7323SM  H17T 9591   1.743   2.229  12.463 -0.2468 -0.3858 -1.1581
   7323SM  C18S 9592   1.647   2.391  12.353  0.5230 -0.4013  0.6051
   7323SM  H18S 9593   1.627   2.458  12.439  1.9345  2.5626 -1.1906
   7323SM  H18T 9594   1.553   2.332  12.354  0.0340  0.3637  0.3552
   7323SM  H18U 9595   1.644   2.454  12.261 -2.1011 -1.8509 -0.4338
   7323SM   C1F 9596   2.323   2.239  12.605 -0.5822  0.2842 -0.6442
   7323SM    OF 9597   2.443   2.269  12.630 -0.0722  0.6463  0.1901
   7323SM   C2F 9598   2.244   2.327  12.526  0.0132  0.0642 -0.0879
   7323SM   H2F 9599   2.227   2.419  12.585 -0.6491  1.2671 -2.0287
   7323SM   H2G 9600   2.140   2.287  12.530  0.3068 -0.6486  0.5696
   7323SM   C3F 9601   2.292   2.348  12.381 -0.1504  0.4436  0.6579
   7323SM   H3F 9602   2.308   2.244  12.344 -1.8054 -0.3516  2.0168
   7323SM   H3G 9603   2.394   2.391  12.393  0.1234 -0.3726  1.3865
   7323SM   C4F 9604   2.202   2.429  12.287 -0.2284  0.2501 -0.0345
   7323SM   H4F 9605   2.203   2.532  12.327  2.6620  0.3663 -0.1830
   7323SM   H4G 9606   2.098   2.391  12.281 -0.7113  1.5185 -0.0252
   7323SM   C5F 9607   2.256   2.443  12.145 -0.2083  0.5169 -0.4101
   7323SM   H5F 9608   2.182   2.480  12.071 -0.8882 -0.1794 -0.0956
   7323SM   H5G 9609   2.291   2.344  12.108  2.0064  1.0167  0.1799
   7323SM   C6F 9610   2.372   2.547  12.143  0.0078 -0.4506  0.3745
   7323SM   H6F 9611   2.455   2.520  12.212 -0.9572  0.1124  1.7755
   7323SM   H6G 9612   2.332   2.638  12.191  2.5243  0.4020  1.0405
   7323SM   C7F 9613   2.426   2.585  12.004  0.4913 -0.8991  0.3903
   7323SM   H7F 9614   2.405   2.691  11.979  0.5315 -0.1269  3.2341
   7323SM   H7G 9615   2.373   2.535  11.921 -1.7475 -0.2813  1.3771
   7323SM   C8F 9616   2.573   2.553  11.992 -0.3316 -0.1791 -0.4199
   7323SM   H8F 9617   2.577   2.449  12.031  0.2346  0.7152  2.1008
   7323SM   H8G 9618   2.626   2.616  12.067 -0.3443 -0.1196 -0.4614
   7323SM   C9F 9619   2.620   2.565  11.846 -0.6338  0.4742  0.0313
   7323SM   H9F 9620   2.559   2.511  11.769  0.6164  0.9977 -1.3759
   7323SM   H9G 9621   2.718   2.516  11.830 -1.8515 -1.0871 -3.9495
   7323SM  C10F 9622   2.627   2.712  11.807 -0.2974 -0.4190  0.0172
   7323SM  H10F 9623   2.718   2.754  11.855 -0.2976  2.4866 -2.2617
   7323SM  H10G 9624   2.531   2.755  11.844 -0.3590 -1.1087  0.6847
   7323SM  C11F 9625   2.619   2.730  11.650 -0.2652  0.3692  0.0578
   7323SM  H11F 9626   2.592   2.833  11.617 -0.4430  0.0209 -0.8971
   7323SM  H11G 9627   2.543   2.656  11.616  0.4190 -0.3675  0.1274
   7323SM  C12F 9628   2.751   2.686  11.589 -0.1160 -0.0248  0.6583
   7323SM  H12F 9629   2.736   2.684  11.479 -0.2884  0.7288  0.6580
   7323SM  H12G 9630   2.777   2.584  11.625  1.4995  0.3627  0.6547
   7323SM  C13F 9631   2.869   2.782  11.627  0.5525  0.0486  0.5263
   7323SM  H13F 9632   2.877   2.783  11.738 -1.5514  1.0037  0.7168
   7323SM  H13G 9633   2.850   2.880  11.577 -0.0320 -1.1364 -1.6981
   7323SM  C14F 9634   3.003   2.722  11.586 -0.4076 -0.3392  0.6535
   7323SM  H14F 9635   3.002   2.702  11.477 -0.5574  0.2154  0.5496
   7323SM  H14G 9636   3.013   2.623  11.634 -3.5389  0.3214  2.9963
   7323SM  C15F 9637   3.137   2.793  11.612 -0.8630 -0.1845  0.5269
   7323SM  H15F 9638   3.226   2.727  11.597 -1.5951 -0.9699 -0.4953
   7323SM  H15G 9639   3.136   2.818  11.720  0.9026  2.0486  0.1051
   7323SM  C16F 9640   3.161   2.924  11.541  0.2474 -0.2234  0.1067
   7323SM  H16F 9641   3.069   2.985  11.549  0.2487 -0.3385  1.2025
   7323SM  H16G 9642   3.180   2.904  11.434 -2.5205  1.9784 -0.8932
   7323SM  C17F 9643   3.276   2.995  11.608 -0.4882 -0.0234 -0.0064
   7323SM  H17F 9644   3.364   2.928  11.592 -1.1840 -0.8340 -0.5050
   7323SM  H17G 9645   3.257   3.003  11.717  0.1810  2.2486 -0.0047
   7323SM  C18F 9646   3.296   3.137  11.554  0.2490 -0.2482 -0.4833
   7323SM  H18F 9647   3.364   3.195  11.619 -1.5205  0.9335  0.3799
   7323SM  H18G 9648   3.200   3.192  11.556  0.9180  0.9439  1.6354
   7323SM  C19F 9649   3.354   3.138  11.417  0.6209  0.3937  0.3356
   7323SM  H19F 9650   3.289   3.077  11.350 -0.0393 -0.1593  1.4613
   7323SM  H19G 9651   3.451   3.084  11.416 -0.1895 -1.1614  1.0327
   7323SM  C20F 9652   3.372   3.273  11.348 -0.2039 -0.2466  0.1744
   7323SM  H20F 9653   3.414   3.258  11.246  0.7032  0.3615  0.4474
   7323SM  H20G 9654   3.444   3.337  11.403  0.1897 -0.7667  0.2728
   7323SM  C21F 9655   3.235   3.340  11.325 -0.5251 -0.1548  0.2038
   7323SM  H21F 9656   3.158   3.260  11.318 -0.5000 -0.0702 -1.7453
   7323SM  H21G 9657   3.249   3.386  11.224  1.0978 -0.1622  0.3988
   7323SM  C22F 9658   3.201   3.452  11.423  0.0243 -0.0255  0.6160
   7323SM  H22F 9659   3.257   3.540  11.385 -1.6337  1.0647  0.6294
   7323SM  H22G 9660   3.255   3.428  11.518 -1.3987 -1.8472  1.0143
   7323SM  C23F 9661   3.049   3.477  11.446 -0.4671 -0.0243  0.2772
   7323SM  H23F 9662   3.003   3.402  11.513 -0.5669  0.7387  1.0656
   7323SM  H23G 9663   3.000   3.489  11.347  0.3852  2.3520  0.0857
   7323SM  H23H 9664   3.033   3.566  11.510  0.7241 -0.0072  0.5755
   7423SM     N 9665   6.903   5.448  13.675  0.0368  1.0963  0.5980
   7423SM   C15 9666   7.041   5.484  13.725 -0.1922 -0.4077  0.8569
   7423SM  H15A 9667   7.049   5.434  13.821  0.6453  1.4799  1.8405
   7423SM  H15B 9668   7.056   5.589  13.748 -0.6425  0.2253 -1.5207
   7423SM  H15C 9669   7.117   5.456  13.655  0.4617  1.4232  0.7762
   7423SM   C14 9670   6.804   5.478  13.779  0.7873  0.5622 -0.0702
   7423SM  H14A 9671   6.815   5.441  13.880  1.5509  0.7393 -0.0850
   7423SM  H14B 9672   6.717   5.426  13.742  0.1683  1.9659 -0.6626
   7423SM  H14C 9673   6.776   5.582  13.783  1.0961  0.6275  0.3982
   7423SM   C13 9674   6.860   5.525  13.553 -0.0358 -0.1778 -0.9960
   7423SM  H13A 9675   6.921   5.489  13.472  0.9150  0.9214 -0.7906
   7423SM  H13B 9676   6.881   5.629  13.576 -0.9647 -0.6473  2.6890
   7423SM  H13C 9677   6.754   5.507  13.538  0.1218 -1.4105 -0.6698
   7423SM   C12 9678   6.903   5.300  13.636 -0.7574 -0.2150 -0.4060
   7423SM  H12A 9679   6.803   5.280  13.600 -0.7320 -0.4939 -0.3207
   7423SM  H12B 9680   6.910   5.250  13.731 -0.5314 -1.5317 -1.1065
   7423SM   C11 9681   7.011   5.236  13.539  0.3917 -0.0461  0.1792
   7423SM  H11A 9682   7.001   5.283  13.439  0.9079  1.0236  0.6067
   7423SM  H11B 9683   6.988   5.128  13.527  0.5953 -0.1996  1.0943
   7423SM     P 9684   7.262   5.270  13.488 -0.1348 -0.2005 -0.0931
   7423SM   O13 9685   7.383   5.266  13.570 -0.6698  0.2432 -0.4190
   7423SM   O14 9686   7.239   5.182  13.373  0.2475 -0.6327  0.1958
   7423SM   O11 9687   7.258   5.426  13.443  0.5252  0.0569 -0.1896
   7423SM   O12 9688   7.143   5.243  13.591 -0.0991 -0.1906  0.5470
   7423SM   C1S 9689   7.339   5.468  13.335  0.2067  0.1284 -0.5097
   7423SM   H1S 9690   7.436   5.415  13.341  0.0101 -0.2087 -0.2556
   7423SM   H1T 9691   7.365   5.573  13.358 -0.6786 -0.2976  3.0755
   7423SM    NF 9692   7.355   5.518  13.101 -0.4541 -0.1219  0.3620
   7423SM   HNF 9693   7.367   5.615  13.084  1.9902  0.0632  2.4547
   7423SM   C2S 9694   7.264   5.468  13.202 -0.7371  0.4032  0.3638
   7423SM   H2S 9695   7.238   5.364  13.172  3.3752 -0.1403 -2.0467
   7423SM   C3S 9696   7.133   5.547  13.199  0.3209  0.2329 -0.1375
   7423SM   H3S 9697   7.167   5.651  13.221  0.7054  0.3842 -1.3754
   7423SM    O3 9698   7.043   5.520  13.308 -0.2715  0.2147  0.0838
   7423SM   HO3 9699   7.100   5.516  13.385  1.2939 -0.2846 -1.0280
   7423SM   C4S 9700   7.059   5.538  13.067  0.2586 -0.3226  0.2424
   7423SM   H4S 9701   7.117   5.465  13.007  1.2950  0.1201  0.6906
   7423SM   C5S 9702   6.977   5.629  13.010 -0.3813  0.2146  0.3269
   7423SM   H5S 9703   6.957   5.722  13.067 -0.8682  0.6628 -0.5515
   7423SM   C6S 9704   6.950   5.645  12.861  0.2077 -0.5041 -0.6830
   7423SM   H6S 9705   6.953   5.755  12.843  2.0739 -0.5653 -0.9558
   7423SM   H6T 9706   6.846   5.613  12.840 -0.3582  0.8821 -0.1207
   7423SM   C7S 9707   7.044   5.579  12.763 -0.3277  0.1257  0.7277
   7423SM   H7S 9708   7.038   5.472  12.790 -3.2948 -0.0952 -0.3791
   7423SM   H7T 9709   7.146   5.620  12.775 -1.1148  2.5841 -0.1583
   7423SM   C8S 9710   7.008   5.593  12.614  0.0050 -0.1939  0.4699
   7423SM   H8S 9711   6.901   5.564  12.603 -0.2136  0.2363  1.4002
   7423SM   H8T 9712   7.069   5.527  12.549  0.5064  0.9437 -0.2404
   7423SM   C9S 9713   7.014   5.737  12.579  0.5512  1.1102  0.1026
   7423SM   H9S 9714   7.094   5.791  12.633  1.8191  0.4446 -1.0296
   7423SM   H9T 9715   6.924   5.795  12.607 -0.4565 -0.0637 -0.6155
   7423SM  C10S 9716   7.051   5.763  12.438 -0.1126 -0.0567  0.9570
   7423SM  H10S 9717   6.958   5.728  12.387 -0.4886 -1.0855  2.2825
   7423SM  H10T 9718   7.137   5.706  12.397 -1.1646 -0.2887 -1.0759
   7423SM  C11S 9719   7.079   5.915  12.395 -0.0616  1.3675 -0.1526
   7423SM  H11S 9720   7.186   5.944  12.397  0.6884 -0.8860 -2.4099
   7423SM  H11T 9721   7.020   5.983  12.461  0.8637  0.8238  1.2984
   7423SM  C12S 9722   7.034   5.927  12.246 -0.4290 -0.3834  0.1236
   7423SM  H12S 9723   6.926   5.908  12.232 -0.3475 -0.0156 -1.1851
   7423SM  H12T 9724   7.079   5.847  12.182 -1.4984 -1.1991  0.3775
   7423SM  C13S 9725   7.085   6.055  12.185  0.7283  0.3377 -0.5644
   7423SM  H13S 9726   7.193   6.034  12.167  1.2094  2.7575 -0.8161
   7423SM  H13T 9727   7.079   6.142  12.253  0.8598  1.9881 -2.5506
   7423SM  C14S 9728   7.018   6.075  12.049  0.4851  0.7284  0.1518
   7423SM  H14S 9729   7.024   5.984  11.986 -2.1575  0.6091 -0.0380
   7423SM  H14T 9730   7.074   6.150  11.990 -1.6512  1.2016 -1.3780
   7423SM  C15S 9731   6.875   6.131  12.060  0.4548 -1.1398  0.4433
   7423SM  H15S 9732   6.882   6.224  12.121  1.9554 -0.9989  0.0956
   7423SM  H15T 9733   6.800   6.064  12.107  1.5042 -0.7907  2.8098
   7423SM  C16S 9734   6.824   6.161  11.920  0.8902 -0.7367 -0.1735
   7423SM  H16S 9735   6.765   6.077  11.876 -1.0162  1.9363 -3.2243
   7423SM  H16T 9736   6.908   6.164  11.847 -0.0774  0.6841 -1.3039
   7423SM  C17S 9737   6.755   6.294  11.903 -0.2396  0.4285 -0.7139
   7423SM  H17S 9738   6.723   6.300  11.796 -2.8103  2.3628  0.0610
   7423SM  H17T 9739   6.834   6.373  11.901  2.5095 -2.0735  0.6136
   7423SM  C18S 9740   6.626   6.327  11.989 -0.0088  0.3247 -0.5234
   7423SM  H18S 9741   6.602   6.435  11.976  2.2268  0.8699 -0.5589
   7423SM  H18T 9742   6.645   6.302  12.096 -2.0850 -0.3629 -0.2756
   7423SM  H18U 9743   6.539   6.262  11.969 -0.0216  0.0988  0.2232
   7423SM   C1F 9744   7.458   5.440  13.056  0.0467 -0.0390 -0.2387
   7423SM    OF 9745   7.481   5.334  13.110 -0.2226 -0.0081 -0.1282
   7423SM   C2F 9746   7.546   5.501  12.951  0.1412  0.0109  0.1279
   7423SM   H2F 9747   7.638   5.540  13.001  1.1215 -1.4253 -0.4724
   7423SM   H2G 9748   7.483   5.575  12.898  0.5170  1.5342  1.7168
   7423SM   C3F 9749   7.610   5.389  12.852  0.2796  0.0802 -0.6006
   7423SM   H3F 9750   7.686   5.342  12.918 -2.5249  0.8681  3.5889
   7423SM   H3G 9751   7.659   5.447  12.770 -1.0756 -1.3557 -2.4972
   7423SM   C4F 9752   7.503   5.296  12.790 -0.6944  1.1015  0.8112
   7423SM   H4F 9753   7.446   5.228  12.857 -2.2803 -1.1393 -2.5451
   7423SM   H4G 9754   7.553   5.226  12.719 -2.8346  1.2162 -0.9148
   7423SM   C5F 9755   7.405   5.374  12.702  0.1304 -0.3339  0.0959
   7423SM   H5F 9756   7.457   5.408  12.610 -2.9618  0.7466 -1.4160
   7423SM   H5G 9757   7.375   5.467  12.756  0.7611  0.9196 -1.6127
   7423SM   C6F 9758   7.287   5.300  12.653  0.2205 -0.6817  1.6573
   7423SM   H6F 9759   7.206   5.370  12.625 -0.0229 -0.4296  2.9422
   7423SM   H6G 9760   7.248   5.230  12.730 -1.1033 -0.5905  1.1028
   7423SM   C7F 9761   7.320   5.229  12.513 -0.8336 -0.4015  0.9103
   7423SM   H7F 9762   7.397   5.152  12.538 -1.2289 -1.1610 -0.1317
   7423SM   H7G 9763   7.366   5.299  12.440 -0.7381  0.0783  1.4258
   7423SM   C8F 9764   7.202   5.152  12.453 -0.2436 -0.2082  0.7847
   7423SM   H8F 9765   7.157   5.087  12.531 -1.4306  1.1037  1.2465
   7423SM   H8G 9766   7.237   5.094  12.366  0.7556  0.8142  0.4758
   7423SM   C9F 9767   7.103   5.249  12.396  0.3237 -0.9244  0.5099
   7423SM   H9F 9768   7.067   5.305  12.486  1.9911  1.1469 -0.0276
   7423SM   H9G 9769   7.023   5.188  12.350 -1.5209  0.6395  1.5010
   7423SM  C10F 9770   7.167   5.353  12.298  0.3657  0.8270  0.0986
   7423SM  H10F 9771   7.246   5.290  12.252 -2.3943 -0.8909 -2.7824
   7423SM  H10G 9772   7.210   5.435  12.360  1.2646  0.1003  0.4584
   7423SM  C11F 9773   7.079   5.417  12.194 -0.1788  0.2768  0.0407
   7423SM  H11F 9774   7.015   5.502  12.227 -0.2231  0.7988 -1.3269
   7423SM  H11G 9775   7.015   5.333  12.160 -1.1018  0.7151  0.6392
   7423SM  C12F 9776   7.162   5.457  12.076  0.0343 -0.4933  0.2592
   7423SM  H12F 9777   7.219   5.370  12.035  0.2380 -0.9114  1.3926
   7423SM  H12G 9778   7.234   5.520  12.132 -0.2174 -1.7499  2.0750
   7423SM  C13F 9779   7.089   5.550  11.968 -0.6454  0.3853 -0.8364
   7423SM  H13F 9780   7.051   5.631  12.034 -0.3668  0.4621 -0.7670
   7423SM  H13G 9781   7.003   5.490  11.932 -0.3093  0.5807 -2.0011
   7423SM  C14F 9782   7.179   5.618  11.865 -0.0806  0.4375 -0.0327
   7423SM  H14F 9783   7.262   5.656  11.928 -1.8761  1.2714  1.9354
   7423SM  H14G 9784   7.130   5.704  11.814 -0.6814  0.3661  0.4100
   7423SM  C15F 9785   7.224   5.511  11.755 -0.3071  0.6560 -0.1138
   7423SM  H15F 9786   7.138   5.459  11.708 -0.6927  1.5471 -0.4019
   7423SM  H15G 9787   7.279   5.425  11.799 -2.6139 -1.0631 -0.3973
   7423SM  C16F 9788   7.309   5.567  11.640 -0.4299 -0.0049  0.6551
   7423SM  H16F 9789   7.252   5.602  11.551  0.9656  2.7073  0.7199
   7423SM  H16G 9790   7.372   5.488  11.594  0.6657  0.5506  1.1666
   7423SM  C17F 9791   7.401   5.688  11.672  0.4027  0.2064 -0.4221
   7423SM  H17F 9792   7.473   5.652  11.748 -0.8377 -0.0747  0.6654
   7423SM  H17G 9793   7.347   5.772  11.720  1.0262 -0.7415  2.1241
   7423SM  C18F 9794   7.494   5.732  11.566 -0.2160 -0.4382 -0.0083
   7423SM  H18F 9795   7.554   5.652  11.518  2.3145  1.0334  0.4970
   7423SM  H18G 9796   7.578   5.789  11.612  1.0412 -1.7519 -0.6151
   7423SM  C19F 9797   7.430   5.814  11.453  0.4083  0.4717 -0.1292
   7423SM  H19F 9798   7.339   5.767  11.409 -0.1974  1.2388  0.2702
   7423SM  H19G 9799   7.509   5.818  11.375  2.2170 -0.3045  1.5979
   7423SM  C20F 9800   7.407   5.957  11.493  0.2389 -0.3607 -0.4680
   7423SM  H20F 9801   7.507   6.004  11.502  0.4184 -0.6315 -1.0209
   7423SM  H20G 9802   7.339   5.951  11.581 -1.5592  0.0759 -1.7740
   7423SM  C21F 9803   7.337   6.032  11.379 -0.3910  0.4190 -0.5184
   7423SM  H21F 9804   7.238   5.990  11.350  0.3156 -1.3475 -0.4758
   7423SM  H21G 9805   7.393   6.007  11.286 -2.0994 -0.9404 -1.2436
   7423SM  C22F 9806   7.331   6.181  11.405 -0.6252  0.6253  0.4709
   7423SM  H22F 9807   7.432   6.228  11.404  0.6228 -1.8968 -0.4524
   7423SM  H22G 9808   7.285   6.204  11.503 -0.0603  1.8086  0.4798
   7423SM  C23F 9809   7.255   6.252  11.288  0.3302  0.4619 -0.7902
   7423SM  H23F 9810   7.258   6.362  11.298 -0.4464  0.2856  2.8562
   7423SM  H23G 9811   7.150   6.217  11.292  0.9149 -1.2852  0.6373
   7423SM  H23H 9812   7.292   6.226  11.186  0.9788 -0.1201 -0.4129
   7523SM     N 9813   5.840   6.013  13.327 -0.2292 -0.3659  0.1492
   7523SM   C15 9814   5.904   5.887  13.278 -0.5084 -0.2053 -0.3159
   7523SM  H15A 9815   5.905   5.817  13.360 -0.2819  0.1255 -0.0327
   7523SM  H15B 9816   6.004   5.903  13.241  0.0937 -0.7838  1.0092
   7523SM  H15C 9817   5.858   5.839  13.193  1.6855 -0.9243 -1.1577
   7523SM   C14 9818   5.839   6.111  13.214  0.0586  0.1548 -0.2354
   7523SM  H14A 9819   5.848   6.059  13.120 -1.1474 -0.2460 -0.1424
   7523SM  H14B 9820   5.926   6.174  13.229  0.3893 -0.5627  1.0517
   7523SM  H14C 9821   5.757   6.181  13.226 -0.6504 -1.0418  3.3802
   7523SM   C13 9822   5.697   5.987  13.357 -0.5589  0.1660  0.4394
   7523SM  H13A 9823   5.647   6.078  13.387  0.3345  0.6900  0.3793
   7523SM  H13B 9824   5.682   5.915  13.436 -1.4696  0.0197  0.1400
   7523SM  H13C 9825   5.655   5.943  13.268 -2.0106  2.6007 -0.1670
   7523SM   C12 9826   5.910   6.071  13.450 -0.0258 -0.1423  0.2804
   7523SM  H12A 9827   6.011   6.085  13.414 -0.3919 -0.2958 -0.8277
   7523SM  H12B 9828   5.907   5.987  13.518 -1.7504 -0.9690 -0.7507
   7523SM   C11 9829   5.867   6.206  13.513 -0.7387  0.1983 -0.3729
   7523SM  H11A 9830   5.918   6.215  13.612  1.9899 -0.0687 -1.6643
   7523SM  H11B 9831   5.757   6.213  13.523 -0.5384  2.1371  1.0606
   7523SM     P 9832   5.847   6.448  13.426 -0.1421  0.1397  0.3585
   7523SM   O13 9833   5.755   6.462  13.534  0.1580  0.1490 -0.3306
   7523SM   O14 9834   5.959   6.548  13.415 -0.3496  0.0788  0.4900
   7523SM   O11 9835   5.754   6.451  13.290 -0.2218  0.0684 -0.3318
   7523SM   O12 9836   5.921   6.305  13.436 -0.3604 -0.5231  0.4369
   7523SM   C1S 9837   5.810   6.515  13.170 -0.0406 -0.5813 -0.3720
   7523SM   H1S 9838   5.903   6.463  13.141  1.8579  3.3193 -1.9913
   7523SM   H1T 9839   5.838   6.619  13.200  2.3622 -1.7053  1.6252
   7523SM    NF 9840   5.777   6.572  12.936  0.3750  0.2774 -0.1058
   7523SM   HNF 9841   5.747   6.667  12.938 -0.6820 -0.0582  0.3093
   7523SM   C2S 9842   5.714   6.510  13.052  0.1145 -0.1045  0.3508
   7523SM   H2S 9843   5.702   6.404  13.021 -1.2799  0.2017 -0.2345
   7523SM   C3S 9844   5.567   6.557  13.090  0.3608 -0.0895 -0.1021
   7523SM   H3S 9845   5.579   6.661  13.126  0.4764  0.3214 -1.2745
   7523SM    O3 9846   5.507   6.487  13.194  0.1554 -0.2199 -0.3957
   7523SM   HO3 9847   5.586   6.447  13.232 -1.2744 -1.5769  1.3388
   7523SM   C4S 9848   5.480   6.559  12.970 -0.9030 -0.1267 -0.1658
   7523SM   H4S 9849   5.502   6.481  12.895  1.3230  0.6948 -0.4306
   7523SM   C5S 9850   5.375   6.648  12.949 -0.1130 -0.2147  0.5233
   7523SM   H5S 9851   5.361   6.725  13.026  1.0971 -0.8562  1.4279
   7523SM   C6S 9852   5.284   6.647  12.822 -0.0210  0.2811  0.4269
   7523SM   H6S 9853   5.264   6.755  12.801 -2.2254 -0.1765 -0.1384
   7523SM   H6T 9854   5.186   6.598  12.844  0.1347  0.1231  0.7754
   7523SM   C7S 9855   5.356   6.596  12.689  0.2147 -0.1367 -0.2137
   7523SM   H7S 9856   5.356   6.485  12.695 -0.2037 -0.0328  3.1818
   7523SM   H7T 9857   5.462   6.630  12.689  0.7567 -1.6927  0.9748
   7523SM   C8S 9858   5.280   6.637  12.556  0.2235  0.2554 -0.2697
   7523SM   H8S 9859   5.234   6.738  12.553  0.8001  0.5569 -3.7428
   7523SM   H8T 9860   5.201   6.560  12.543  0.2487  0.2987 -0.6833
   7523SM   C9S 9861   5.368   6.607  12.430  0.3779  0.6418  0.0331
   7523SM   H9S 9862   5.407   6.504  12.421  2.7093  1.5881 -1.7613
   7523SM   H9T 9863   5.454   6.677  12.435  0.2180  0.7880  1.1415
   7523SM  C10S 9864   5.301   6.621  12.289  0.3401  0.1046 -0.6256
   7523SM  H10S 9865   5.389   6.632  12.222 -0.1023 -2.6570 -1.7703
   7523SM  H10T 9866   5.239   6.713  12.290 -0.7790 -0.6321  0.2665
   7523SM  C11S 9867   5.219   6.500  12.243 -0.1390 -0.6723  0.6051
   7523SM  H11S 9868   5.124   6.496  12.301  0.1710  3.3310  1.7286
   7523SM  H11T 9869   5.282   6.409  12.251  0.1540 -0.6964 -1.4978
   7523SM  C12S 9870   5.173   6.511  12.093  0.6188 -0.4054 -0.3235
   7523SM  H12S 9871   5.130   6.414  12.060 -2.0919 -0.1526  2.0090
   7523SM  H12T 9872   5.266   6.524  12.034  0.4435  2.2015 -0.1311
   7523SM  C13S 9873   5.076   6.627  12.065 -0.0991 -0.8908 -0.6285
   7523SM  H13S 9874   5.090   6.697  12.151 -2.1885 -1.5984  0.3543
   7523SM  H13T 9875   4.969   6.596  12.065 -0.4575  0.2546 -1.6341
   7523SM  C14S 9876   5.091   6.700  11.930 -0.1260 -0.3311  0.0678
   7523SM  H14S 9877   5.195   6.731  11.907  0.6343 -2.5431  0.3218
   7523SM  H14T 9878   5.035   6.794  11.950  1.2600  0.5762 -0.1968
   7523SM  C15S 9879   5.021   6.620  11.822  0.0223  0.1041  0.0983
   7523SM  H15S 9880   4.919   6.590  11.854 -1.8247  4.0224 -1.4335
   7523SM  H15T 9881   5.081   6.526  11.812  0.3773  0.1521  1.5535
   7523SM  C16S 9882   5.015   6.692  11.683 -0.0108  0.5246  0.2019
   7523SM  H16S 9883   4.952   6.784  11.688 -1.2146 -0.3115  1.0647
   7523SM  H16T 9884   4.966   6.624  11.610  2.6140  0.7263 -1.8691
   7523SM  C17S 9885   5.156   6.733  11.633  0.5816 -0.0779 -0.4687
   7523SM  H17S 9886   5.222   6.646  11.651  0.9149  0.5416  1.4538
   7523SM  H17T 9887   5.190   6.806  11.709 -1.0583 -0.1469  0.3751
   7523SM  C18S 9888   5.158   6.787  11.497 -0.5203  0.0331 -0.3070
   7523SM  H18S 9889   5.167   6.702  11.425 -0.2139  0.1984 -0.4657
   7523SM  H18T 9890   5.244   6.856  11.481 -0.4728 -0.3834 -2.1048
   7523SM  H18U 9891   5.062   6.832  11.463 -2.1901 -2.0082  1.4249
   7523SM   C1F 9892   5.878   6.529  12.869 -0.2448  0.4326 -0.1541
   7523SM    OF 9893   5.906   6.407  12.866 -0.0791 -0.3948  0.2649
   7523SM   C2F 9894   5.972   6.630  12.805  0.5393  0.1641  0.0649
   7523SM   H2F 9895   6.013   6.687  12.890  0.3667 -1.2155  1.1129
   7523SM   H2G 9896   5.896   6.693  12.753  0.3571  0.1392  0.2975
   7523SM   C3F 9897   6.083   6.562  12.719  0.2184 -0.0491  0.4989
   7523SM   H3F 9898   6.041   6.506  12.633 -1.3759  1.3666  0.2909
   7523SM   H3G 9899   6.134   6.482  12.777 -1.3646 -1.2432  0.3137
   7523SM   C4F 9900   6.180   6.665  12.660 -0.4569 -0.5125 -0.1591
   7523SM   H4F 9901   6.279   6.616  12.667 -0.2607  0.0671  2.3253
   7523SM   H4G 9902   6.182   6.746  12.736 -2.8181  0.6422 -1.2332
   7523SM   C5F 9903   6.140   6.724  12.523  0.9402  0.4409 -0.4549
   7523SM   H5F 9904   6.189   6.821  12.502 -1.4677  2.5410  2.6336
   7523SM   H5G 9905   6.033   6.752  12.532 -0.0237 -2.6100 -1.1137
   7523SM   C6F 9906   6.138   6.626  12.405  0.6189 -0.1163 -0.1813
   7523SM   H6F 9907   6.096   6.529  12.438 -0.7110  0.4138 -0.2681
   7523SM   H6G 9908   6.244   6.602  12.381  1.3726  2.0111  0.7239
   7523SM   C7F 9909   6.053   6.686  12.289 -0.5615  0.3871 -0.4932
   7523SM   H7F 9910   5.949   6.714  12.318 -0.6974 -0.6853  0.1263
   7523SM   H7G 9911   6.049   6.603  12.215 -1.0949  0.6873 -0.8041
   7523SM   C8F 9912   6.120   6.802  12.235 -0.2080 -0.6499  0.3048
   7523SM   H8F 9913   6.229   6.784  12.222 -0.0262  0.7999 -0.3520
   7523SM   H8G 9914   6.100   6.893  12.296  0.3440  0.1939 -0.7380
   7523SM   C9F 9915   6.065   6.842  12.096 -0.0876 -0.2396  0.1671
   7523SM   H9F 9916   5.954   6.839  12.101 -0.0548 -1.5173  0.4575
   7523SM   H9G 9917   6.089   6.762  12.023 -0.7521 -0.7811  0.5305
   7523SM  C10F 9918   6.123   6.973  12.053 -0.3251 -0.2904  0.1931
   7523SM  H10F 9919   6.230   6.963  12.026 -0.5648 -0.9489 -0.5221
   7523SM  H10G 9920   6.127   7.048  12.135 -2.8409  0.6229 -0.4453
   7523SM  C11F 9921   6.056   7.026  11.925 -0.2081 -0.4446  0.3778
   7523SM  H11F 9922   6.105   7.120  11.892 -0.3662 -0.6350 -0.4226
   7523SM  H11G 9923   5.951   7.051  11.950 -0.6009 -2.1016  0.5103
   7523SM  C12F 9924   6.056   6.927  11.805  0.7944  0.7393 -0.0440
   7523SM  H12F 9925   6.004   6.837  11.843 -1.4696  1.5991 -0.9075
   7523SM  H12G 9926   6.165   6.910  11.801  0.8791  1.2353  0.0592
   7523SM  C13F 9927   6.004   6.984  11.669 -0.3100 -0.0801  0.0355
   7523SM  H13F 9928   6.078   7.048  11.618  0.3143  0.1130  1.1398
   7523SM  H13G 9929   5.913   7.043  11.694 -1.4186 -1.9365  0.6081
   7523SM  C14F 9930   5.961   6.883  11.565  0.4145  0.0441  0.1326
   7523SM  H14F 9931   5.879   6.821  11.609 -1.7483  2.3972 -0.3481
   7523SM  H14G 9932   6.051   6.829  11.530  0.7492 -0.1571  1.2679
   7523SM  C15F 9933   5.886   6.949  11.456  0.1886 -0.1818  0.3007
   7523SM  H15F 9934   5.962   6.991  11.386 -0.0951 -1.6718 -0.9675
   7523SM  H15G 9935   5.818   7.029  11.492  0.9986  0.7995 -0.2990
   7523SM  C16F 9936   5.789   6.855  11.380 -0.1832 -1.0771 -0.2648
   7523SM  H16F 9937   5.740   6.903  11.292  0.6654  0.8968  0.2697
   7523SM  H16G 9938   5.704   6.823  11.443 -0.3252 -2.2727 -1.0219
   7523SM  C17F 9939   5.851   6.719  11.335 -0.4391  0.5873  0.1933
   7523SM  H17F 9940   5.862   6.653  11.424  0.3926 -0.0553 -0.3701
   7523SM  H17G 9941   5.948   6.733  11.282 -0.0970 -0.0092  0.6498
   7523SM  C18F 9942   5.764   6.650  11.234  0.8854 -0.3953 -0.0945
   7523SM  H18F 9943   5.657   6.655  11.262  0.9879  1.6329  0.0744
   7523SM  H18G 9944   5.803   6.546  11.222 -0.9085 -0.9743 -1.2361
   7523SM  C19F 9945   5.791   6.696  11.087  0.4699 -0.2305  0.1803
   7523SM  H19F 9946   5.900   6.714  11.077  0.0563  2.1186 -0.6151
   7523SM  H19G 9947   5.738   6.793  11.083 -0.6920 -0.6261  3.2608
   7523SM  C20F 9948   5.736   6.595  10.986  0.6810 -0.3424 -0.6202
   7523SM  H20F 9949   5.732   6.648  10.888  0.7685  0.1298 -0.3745
   7523SM  H20G 9950   5.639   6.548  11.013 -0.6529  2.5455  0.0464
   7523SM  C21F 9951   5.832   6.480  10.954  0.4534 -0.1757 -0.4822
   7523SM  H21F 9952   5.841   6.429  11.052  0.5817  0.3897 -0.1994
   7523SM  H21G 9953   5.935   6.513  10.928  0.1021  2.1129  0.8463
   7523SM  C22F 9954   5.791   6.379  10.845 -0.7625 -0.2925 -0.2162
   7523SM  H22F 9955   5.688   6.337  10.854 -0.1405 -1.4543  2.4016
   7523SM  H22G 9956   5.858   6.291  10.846 -0.7233 -0.2629 -0.2652
   7523SM  C23F 9957   5.818   6.420  10.700  0.0210 -0.2901 -0.8806
   7523SM  H23F 9958   5.928   6.417  10.683  0.3764  0.9075  0.8472
   7523SM  H23G 9959   5.789   6.524  10.673  0.2302 -0.6475 -2.6043
   7523SM  H23H 9960   5.771   6.343  10.635 -0.1057 -0.6557 -0.3619
   7623SM     N 9961   7.699   7.456  13.066 -0.6945  0.1770  0.5574
   7623SM   C15 9962   7.831   7.515  13.112 -0.8188  0.0608 -0.7670
   7623SM  H15A 9963   7.923   7.483  13.066 -0.2879 -0.8941  0.8971
   7623SM  H15B 9964   7.850   7.496  13.216 -0.5130  0.2351 -0.7907
   7623SM  H15C 9965   7.823   7.623  13.106 -0.4678  0.1653  0.3480
   7623SM   C14 9966   7.596   7.491  13.174 -0.0387 -0.5132  0.0050
   7623SM  H14A 9967   7.617   7.425  13.257  2.2872 -0.1515 -0.2330
   7623SM  H14B 9968   7.494   7.461  13.154 -0.8892 -2.0387  5.0383
   7623SM  H14C 9969   7.615   7.593  13.204  1.6428 -1.2538  1.6901
   7623SM   C13 9970   7.650   7.517  12.937  0.1765  0.4898 -1.0988
   7623SM  H13A 9971   7.719   7.497  12.857  2.7793  0.5138  1.0217
   7623SM  H13B 9972   7.661   7.624  12.944  2.4558  0.1571  2.6151
   7623SM  H13C 9973   7.548   7.488  12.916  0.3663 -1.6049  0.5936
   7623SM   C12 9974   7.710   7.311  13.052  0.2912  0.4666  0.0283
   7623SM  H12A 9975   7.794   7.300  12.986 -1.4650  1.5412 -2.5496
   7623SM  H12B 9976   7.621   7.265  13.011  0.6678 -1.2788  1.0508
   7623SM   C11 9977   7.753   7.241  13.182 -0.3955  0.1026  0.1754
   7623SM  H11A 9978   7.847   7.273  13.232 -0.7557  1.1116  0.2200
   7623SM  H11B 9979   7.770   7.135  13.154  1.8147  0.8104 -1.4242
   7623SM     P 9980   7.618   7.130  13.375 -0.2689 -0.1157 -0.2688
   7623SM   O13 9981   7.740   7.105  13.458  0.2800  0.0218  0.3345
   7623SM   O14 9982   7.497   7.153  13.455  0.2388  0.5054  0.2443
   7623SM   O11 9983   7.590   7.011  13.273 -0.2434 -0.0150 -0.0429
   7623SM   O12 9984   7.650   7.246  13.276 -0.0792 -0.3194 -0.7137
   7623SM   C1S 9985   7.479   7.039  13.185 -0.1183 -0.5857  0.4868
   7623SM   H1S 9986   7.480   7.143  13.147  0.2424 -0.2324  1.4399
   7623SM   H1T 9987   7.382   7.015  13.234 -0.7502  0.1134 -0.3859
   7623SM    NF 9988   7.377   6.968  12.971 -0.0983  0.4068  0.1904
   7623SM   HNF 9989   7.316   6.889  12.974  0.7280 -0.2170  1.3098
   7623SM   C2S 9990   7.498   6.949  13.057 -0.2617 -0.6875 -0.3865
   7623SM   H2S 9991   7.593   6.984  13.013 -0.7693  1.4821  0.0765
   7623SM   C3S 9992   7.510   6.802  13.101  0.3041  0.0237 -0.5621
   7623SM   H3S 9993   7.406   6.767  13.116 -0.0308  1.1257 -0.2028
   7623SM    O3 9994   7.578   6.775  13.222 -0.0942  0.0197  0.1632
   7623SM   HO3 9995   7.579   6.860  13.267 -0.2917 -0.4902  1.1743
   7623SM   C4S 9996   7.578   6.728  12.992  0.3391 -0.0412 -0.9388
   7623SM   H4S 9997   7.506   6.694  12.916  0.8491 -0.3301 -1.2903
   7623SM   C5S 9998   7.704   6.697  12.972  0.1544 -0.0107  0.3858
   7623SM   H5S 9999   7.782   6.739  13.037  0.1177  0.1310  0.3377
   7623SM   C6S10000   7.763   6.629  12.848 -0.9613 -0.0963 -0.3885
   7623SM   H6S10001   7.802   6.529  12.877 -1.6578  0.3175  2.2638
   7623SM   H6T10002   7.858   6.676  12.815 -0.7960 -1.1555 -1.4723
   7623SM   C7S10003   7.676   6.613  12.723  0.6417  0.0436 -0.1242
   7623SM   H7S10004   7.616   6.703  12.698 -1.6181 -1.1087  0.7841
   7623SM   H7T10005   7.606   6.526  12.728 -0.7714  1.0737 -1.1723
   7623SM   C8S10006   7.772   6.584  12.603  0.6247  0.1658 -0.1333
   7623SM   H8S10007   7.831   6.491  12.614 -0.2095 -0.2954  0.5207
   7623SM   H8T10008   7.842   6.670  12.599 -1.3178  1.8179 -0.6229
   7623SM   C9S10009   7.704   6.588  12.471 -0.1315  0.8867  0.2626
   7623SM   H9S10010   7.643   6.679  12.456 -1.6148  0.4003  2.8816
   7623SM   H9T10011   7.634   6.502  12.468  0.4927  0.1987  2.8290
   7623SM  C10S10012   7.806   6.571  12.362 -0.3232  0.2553  0.4079
   7623SM  H10S10013   7.849   6.469  12.372  0.8329  0.2489 -3.2698
   7623SM  H10T10014   7.892   6.638  12.381  1.2803 -1.7863  0.7059
   7623SM  C11S10015   7.740   6.559  12.218 -0.6612  0.8107 -0.0306
   7623SM  H11S10016   7.680   6.651  12.198 -3.2605 -0.7515  0.1662
   7623SM  H11T10017   7.664   6.480  12.229  0.1536 -0.1266 -0.9225
   7623SM  C12S10018   7.841   6.542  12.108 -0.6113  0.2402  0.0436
   7623SM  H12S10019   7.904   6.452  12.127 -0.7343 -0.1581 -1.3635
   7623SM  H12T10020   7.913   6.626  12.097 -0.0906 -0.2432 -0.2445
   7623SM  C13S10021   7.769   6.516  11.987  0.5049 -0.1204  0.2721
   7623SM  H13S10022   7.685   6.588  11.984 -0.4103 -1.0297  2.3071
   7623SM  H13T10023   7.728   6.413  11.990  2.2758 -0.8354  2.1402
   7623SM  C14S10024   7.859   6.521  11.863  0.9512  0.0199 -0.1345
   7623SM  H14S10025   7.915   6.427  11.844  0.3868  0.0097 -1.9370
   7623SM  H14T10026   7.926   6.608  11.879  1.1253 -0.4283  1.8689
   7623SM  C15S10027   7.765   6.564  11.752  0.7474  0.1170  0.1233
   7623SM  H15S10028   7.825   6.601  11.665  2.8987  2.2710  2.3552
   7623SM  H15T10029   7.706   6.649  11.792  0.8441 -0.0585  0.6472
   7623SM  C16S10030   7.671   6.452  11.704 -0.0881 -0.8577 -0.0987
   7623SM  H16S10031   7.609   6.412  11.787  0.5623 -1.9202 -0.1152
   7623SM  H16T10032   7.743   6.376  11.668  0.0826 -1.1574  0.8533
   7623SM  C17S10033   7.570   6.496  11.591 -0.5968  0.5713  0.1347
   7623SM  H17S10034   7.544   6.602  11.608  1.3898  1.0220  0.7341
   7623SM  H17T10035   7.480   6.431  11.599  0.4062 -0.7883  0.9403
   7623SM  C18S10036   7.641   6.478  11.452  0.4920 -0.9662  0.0086
   7623SM  H18S10037   7.569   6.468  11.367 -1.5080  0.4010  1.4600
   7623SM  H18T10038   7.694   6.380  11.453  3.5350  0.5712  1.4795
   7623SM  H18U10039   7.711   6.562  11.432 -0.5674 -0.7210 -3.2523
   7623SM   C1F10040   7.368   7.078  12.897  0.2625 -1.0409  0.1945
   7623SM    OF10041   7.466   7.154  12.896 -0.2468  0.6737  0.3523
   7623SM   C2F10042   7.238   7.100  12.821  0.1347  0.4152 -0.1071
   7623SM   H2F10043   7.207   7.205  12.839  0.4182  0.5893 -0.6058
   7623SM   H2G10044   7.159   7.032  12.858 -2.0049  2.9735  0.3127
   7623SM   C3F10045   7.257   7.060  12.669 -0.2098  0.0097  0.6169
   7623SM   H3F10046   7.300   6.958  12.670 -1.1345 -0.4025  2.6389
   7623SM   H3G10047   7.335   7.124  12.623  1.8527 -1.8626  1.3286
   7623SM   C4F10048   7.126   7.064  12.584  0.1098  0.3637 -0.3378
   7623SM   H4F10049   7.079   7.165  12.587 -0.6860  0.0128 -0.7583
   7623SM   H4G10050   7.063   6.981  12.622  0.4707 -0.0206 -0.5781
   7623SM   C5F10051   7.155   7.030  12.442 -0.1799  0.5552 -0.0796
   7623SM   H5F10052   7.210   6.933  12.446 -0.4690  0.4275  1.7178
   7623SM   H5G10053   7.213   7.116  12.402  0.3223 -0.9745 -2.9046
   7623SM   C6F10054   7.038   7.003  12.354  0.0941  0.2880  0.6871
   7623SM   H6F10055   6.963   6.937  12.404  1.0928 -1.0344  0.4935
   7623SM   H6G10056   7.065   6.960  12.255  0.7593  1.3571  0.3892
   7623SM   C7F10057   6.960   7.131  12.317 -0.0660 -0.4184  0.0492
   7623SM   H7F10058   7.031   7.187  12.252 -1.7820  0.1265 -1.4434
   7623SM   H7G10059   6.946   7.196  12.406 -0.2173  0.2034 -0.4176
   7623SM   C8F10060   6.830   7.105  12.231  0.7693  0.2296  0.7399
   7623SM   H8F10061   6.758   7.045  12.291 -0.3745  1.8846  1.1033
   7623SM   H8G10062   6.859   7.060  12.134  0.1867 -0.3699  0.8352
   7623SM   C9F10063   6.769   7.246  12.189  0.5943  0.4532 -0.3510
   7623SM   H9F10064   6.847   7.295  12.128  1.8339 -2.7084 -1.5214
   7623SM   H9G10065   6.774   7.303  12.285 -0.6660 -2.2075  1.4342
   7623SM  C10F10066   6.634   7.231  12.125  0.2059  0.1944  0.0693
   7623SM  H10F10067   6.596   7.335  12.130  0.3770  0.2213  1.2347
   7623SM  H10G10068   6.569   7.172  12.193  2.3249 -1.2677  0.9512
   7623SM  C11F10069   6.627   7.167  11.982  0.2357 -0.2842 -0.1300
   7623SM  H11F10070   6.646   7.058  11.983  0.2733 -0.2987 -1.3092
   7623SM  H11G10071   6.686   7.221  11.904 -0.3271 -1.0848 -1.1350
   7623SM  C12F10072   6.494   7.168  11.911  0.3309  0.2585  1.0205
   7623SM  H12F10073   6.464   7.275  11.905 -2.8759 -0.6292 -1.5806
   7623SM  H12G10074   6.428   7.111  11.980  0.2606 -1.0219 -0.0855
   7623SM  C13F10075   6.504   7.101  11.770 -0.8044 -0.1608  0.1372
   7623SM  H13F10076   6.512   6.991  11.779  1.1477 -0.0871 -0.1462
   7623SM  H13G10077   6.595   7.134  11.716 -1.8732  0.9294 -1.0644
   7623SM  C14F10078   6.383   7.145  11.691 -0.1927  0.0557 -0.1700
   7623SM  H14F10079   6.382   7.256  11.700 -0.5235 -0.0211  0.8450
   7623SM  H14G10080   6.294   7.103  11.742  0.1110 -0.5400 -0.1102
   7623SM  C15F10081   6.396   7.105  11.538 -0.1101 -0.6403 -0.8087
   7623SM  H15F10082   6.499   7.139  11.513  0.7115 -1.3772  1.3141
   7623SM  H15G10083   6.321   7.157  11.475 -0.9229 -1.5894 -0.6436
   7623SM  C16F10084   6.375   6.956  11.508  0.3290  0.1097 -0.3966
   7623SM  H16F10085   6.282   6.920  11.558  1.1209  0.4328  1.3718
   7623SM  H16G10086   6.450   6.899  11.567  1.2435  0.9302 -0.7518
   7623SM  C17F10087   6.373   6.912  11.364 -0.1611 -0.0554  0.1611
   7623SM  H17F10088   6.405   6.806  11.359 -1.6929 -0.5207 -0.5348
   7623SM  H17G10089   6.448   6.970  11.306  1.2389 -2.2784 -0.3757
   7623SM  C18F10090   6.237   6.955  11.289  0.6790  0.7972 -0.4570
   7623SM  H18F10091   6.231   7.066  11.296 -0.2597  0.7160  0.1758
   7623SM  H18G10092   6.155   6.916  11.353  0.8359 -1.6139 -1.6380
   7623SM  C19F10093   6.231   6.902  11.143 -0.1570  0.3553  0.2756
   7623SM  H19F10094   6.239   6.792  11.134  1.6838  0.4044  0.7694
   7623SM  H19G10095   6.324   6.933  11.091  0.2813  1.3121  1.5467
   7623SM  C20F10096   6.107   6.960  11.070  0.1524  0.5459  0.5108
   7623SM  H20F10097   6.111   7.070  11.082  2.5545  0.2796  3.2519
   7623SM  H20G10098   6.018   6.928  11.128  0.6724  1.4612  1.8598
   7623SM  C21F10099   6.088   6.915  10.926 -0.7939 -0.1100  0.3932
   7623SM  H21F10100   6.087   6.804  10.926  1.1577 -0.1814 -0.9905
   7623SM  H21G10101   6.176   6.931  10.860 -0.0595 -1.6442  0.9420
   7623SM  C22F10102   5.956   6.959  10.863 -0.0247  0.7359  0.1738
   7623SM  H22F10103   5.941   7.069  10.865 -0.5391  0.6642  0.3877
   7623SM  H22G10104   5.882   6.903  10.924  2.1657  0.2343  2.5562
   7623SM  C23F10105   5.935   6.910  10.712  0.4546 -0.4540  0.7146
   7623SM  H23F10106   5.933   6.798  10.710  0.5577 -0.4673  1.4035
   7623SM  H23G10107   6.006   6.955  10.639 -1.5216  0.5919 -0.6745
   7623SM  H23H10108   5.833   6.952  10.697  1.0001  1.2844  1.7299
   7723SM     N10109   7.206   4.085  13.086  0.6004  0.4348 -0.4078
   7723SM   C1510110   7.303   4.149  13.169 -0.1767 -0.2641  0.3825
   7723SM  H15A10111   7.356   4.077  13.230 -0.1330 -1.0351 -0.5265
   7723SM  H15B10112   7.255   4.222  13.231 -0.5305 -0.3750  0.2438
   7723SM  H15C10113   7.384   4.195  13.113 -0.9777  0.9096  0.1732
   7723SM   C1410114   7.109   4.029  13.180  0.3008 -0.3429 -0.3651
   7723SM  H14A10115   7.071   3.935  13.142  3.7314 -1.5646 -1.1563
   7723SM  H14B10116   7.027   4.095  13.206 -0.5842 -1.2370 -0.8324
   7723SM  H14C10117   7.161   4.007  13.272 -0.6571 -2.1309 -0.1883
   7723SM   C1310118   7.129   4.187  12.992 -0.4255  0.3918 -0.4412
   7723SM  H13A10119   7.191   4.230  12.915 -0.9520  0.4339 -0.8413
   7723SM  H13B10120   7.083   4.262  13.055  0.8034 -0.3886  1.4710
   7723SM  H13C10121   7.041   4.138  12.953  0.0308 -0.5958 -0.2623
   7723SM   C1210122   7.272   3.976  12.996  0.4796 -0.2571 -0.1330
   7723SM  H12A10123   7.333   3.916  13.063 -0.9277 -1.6352 -0.0386
   7723SM  H12B10124   7.327   4.028  12.919 -0.6803  0.7837 -0.3001
   7723SM   C1110125   7.184   3.872  12.921  0.1814  0.0268 -0.4387
   7723SM  H11A10126   7.246   3.830  12.839  0.1668 -0.3215 -0.2735
   7723SM  H11B10127   7.107   3.945  12.890  1.3476  1.1128 -0.8858
   7723SM     P10128   6.978   3.718  12.989  0.4516 -0.0766 -0.0373
   7723SM   O1310129   6.936   3.647  13.118 -0.3962  0.1634  0.1790
   7723SM   O1410130   6.889   3.826  12.938 -0.8263  0.3412 -0.2165
   7723SM   O1110131   6.984   3.607  12.884  0.0024  0.2954  0.2207
   7723SM   O1210132   7.129   3.774  13.011  0.2217  0.2954 -0.0663
   7723SM   C1S10133   6.953   3.622  12.744  0.3229 -0.5097 -0.0818
   7723SM   H1S10134   6.888   3.711  12.726  1.0806 -0.4827 -3.2245
   7723SM   H1T10135   6.899   3.530  12.713 -0.1788 -0.6157  1.0535
   7723SM    NF10136   7.039   3.683  12.515  0.0075  0.3351 -0.0632
   7723SM   HNF10137   7.034   3.601  12.458  0.2072 -0.1445  0.5879
   7723SM   C2S10138   7.073   3.645  12.650 -0.6794 -0.4974  0.2987
   7723SM   H2S10139   7.124   3.734  12.692  1.3724 -0.8239 -1.3650
   7723SM   C3S10140   7.168   3.524  12.675  0.2561  0.4041  0.0798
   7723SM   H3S10141   7.118   3.431  12.641 -0.1115  0.2754  0.9503
   7723SM    O310142   7.199   3.493  12.809  0.1950  0.6217 -0.4538
   7723SM   HO310143   7.145   3.553  12.861  0.0951  2.3762 -2.4767
   7723SM   C4S10144   7.301   3.537  12.598  0.1470  0.3186  0.1812
   7723SM   H4S10145   7.356   3.630  12.620  1.0739  0.3203 -1.8663
   7723SM   C5S10146   7.339   3.447  12.505 -0.8563 -0.5553  0.1104
   7723SM   H5S10147   7.275   3.361  12.481  2.4554 -2.9995 -0.6781
   7723SM   C6S10148   7.450   3.462  12.402  0.0180 -0.6716  0.0648
   7723SM   H6S10149   7.534   3.398  12.435 -0.4100 -2.1866 -1.6265
   7723SM   H6T10150   7.482   3.569  12.397 -0.0777 -0.6438  0.0438
   7723SM   C7S10151   7.414   3.407  12.260 -1.2213 -0.0128 -0.6342
   7723SM   H7S10152   7.376   3.304  12.279 -1.1167  0.4251  2.3939
   7723SM   H7T10153   7.510   3.406  12.204  0.2487 -4.2108  1.5255
   7723SM   C8S10154   7.304   3.478  12.181  0.1543  0.1376  0.5328
   7723SM   H8S10155   7.209   3.450  12.231  0.2356 -1.5880 -0.1989
   7723SM   H8T10156   7.304   3.430  12.080  0.3689  1.4282 -0.1070
   7723SM   C9S10157   7.299   3.630  12.173  0.1904 -0.3946  0.3823
   7723SM   H9S10158   7.400   3.669  12.148  0.1115  1.1789  2.2818
   7723SM   H9T10159   7.286   3.681  12.271  1.9616  1.0205 -0.0545
   7723SM  C10S10160   7.198   3.678  12.067 -0.3254 -0.4688 -0.2584
   7723SM  H10S10161   7.093   3.686  12.105 -0.3717 -1.8024 -0.0519
   7723SM  H10T10162   7.193   3.596  11.992 -0.2696 -1.2553  0.5632
   7723SM  C11S10163   7.223   3.819  12.020 -0.7051  0.0919 -0.1454
   7723SM  H11S10164   7.332   3.829  12.002 -0.5495 -0.5069  0.4273
   7723SM  H11T10165   7.194   3.896  12.094  1.0363 -1.1074  1.8921
   7723SM  C12S10166   7.147   3.851  11.888  0.4658 -0.7294 -0.3011
   7723SM  H12S10167   7.046   3.890  11.910  0.8357 -0.4874  1.0074
   7723SM  H12T10168   7.129   3.765  11.819 -0.2056 -0.4092 -0.5289
   7723SM  C13S10169   7.215   3.972  11.812 -0.3272 -0.6022 -0.0821
   7723SM  H13S10170   7.319   3.946  11.782 -0.2484 -0.8940  0.4387
   7723SM  H13T10171   7.218   4.059  11.882  3.2033  0.8831 -1.7883
   7723SM  C14S10172   7.150   4.038  11.688 -0.3971  0.6446  0.1400
   7723SM  H14S10173   7.142   3.956  11.613  2.4784  0.3679  0.0487
   7723SM  H14T10174   7.217   4.120  11.655  1.0696 -0.5143  0.1694
   7723SM  C15S10175   7.008   4.096  11.721 -0.1773 -0.1939 -0.9412
   7723SM  H15S10176   7.028   4.184  11.787 -2.0384  1.1323 -2.0518
   7723SM  H15T10177   6.946   4.019  11.773  0.6914  0.0922  0.5888
   7723SM  C16S10178   6.920   4.131  11.598 -0.1618 -0.9702 -0.5195
   7723SM  H16S10179   6.814   4.151  11.626  0.7044 -0.7886  3.1273
   7723SM  H16T10180   6.900   4.043  11.534 -0.5562 -1.7071  0.5814
   7723SM  C17S10181   6.984   4.247  11.527  0.4665  0.2666  0.0806
   7723SM  H17S10182   7.090   4.224  11.507  0.9323  3.9089 -2.6099
   7723SM  H17T10183   6.980   4.349  11.571  0.4608  0.9935 -1.5509
   7723SM  C18S10184   6.912   4.264  11.387 -0.3125 -0.3602  0.2206
   7723SM  H18S10185   6.965   4.348  11.337 -1.4813  0.9114  1.0454
   7723SM  H18T10186   6.804   4.280  11.410 -0.8371 -2.8393 -0.2721
   7723SM  H18U10187   6.925   4.173  11.324  1.0307 -2.1829  2.9498
   7723SM   C1F10188   6.979   3.794  12.482  0.8263  0.3416 -0.7162
   7723SM    OF10189   6.969   3.891  12.555  0.2772 -0.1646  0.5068
   7723SM   C2F10190   6.908   3.801  12.350 -0.2035  0.1813  0.5985
   7723SM   H2F10191   6.809   3.754  12.371 -0.8237  2.2144  2.5788
   7723SM   H2G10192   6.973   3.754  12.274  2.4238  1.9355  1.6165
   7723SM   C3F10193   6.892   3.947  12.299 -0.4756 -0.0324 -0.9265
   7723SM   H3F10194   6.991   3.995  12.289 -1.3132  1.4459 -2.8326
   7723SM   H3G10195   6.840   4.001  12.381  2.9626  0.7100  0.9615
   7723SM   C4F10196   6.813   3.951  12.165  0.0677  0.8634  0.6144
   7723SM   H4F10197   6.730   3.879  12.184  0.7362  0.2181  1.1432
   7723SM   H4G10198   6.874   3.908  12.082 -1.1523  2.3215 -1.1255
   7723SM   C5F10199   6.756   4.086  12.123  0.1176  0.1564 -0.0881
   7723SM   H5F10200   6.842   4.155  12.127  0.2651  0.0452 -1.0229
   7723SM   H5G10201   6.680   4.107  12.202  1.3657 -1.2636  1.5544
   7723SM   C6F10202   6.688   4.080  11.984  0.7144  0.3634 -0.1079
   7723SM   H6F10203   6.602   4.010  11.979 -0.4134  1.7002  0.3371
   7723SM   H6G10204   6.763   4.034  11.915  1.4090  0.6916  0.4130
   7723SM   C7F10205   6.637   4.209  11.918 -0.2729  0.1055  0.3306
   7723SM   H7F10206   6.716   4.288  11.916 -0.0386 -0.1395 -1.5526
   7723SM   H7G10207   6.564   4.259  11.985 -2.8573 -0.9828 -1.5267
   7723SM   C8F10208   6.573   4.193  11.781 -0.1820  0.3321  0.1971
   7723SM   H8F10209   6.482   4.134  11.806  2.4860 -3.5941  1.4690
   7723SM   H8G10210   6.635   4.121  11.724 -0.4371 -0.6965  1.1700
   7723SM   C9F10211   6.531   4.320  11.698  0.0538 -0.2969 -0.5063
   7723SM   H9F10212   6.627   4.371  11.676 -0.4030  0.5455 -0.6036
   7723SM   H9G10213   6.473   4.382  11.769  0.7208  0.2042 -0.3877
   7723SM  C10F10214   6.467   4.274  11.565  0.1394 -0.0193  0.1854
   7723SM  H10F10215   6.365   4.237  11.587  0.7063 -0.7787  1.6164
   7723SM  H10G10216   6.525   4.190  11.521 -1.3294 -0.6468 -0.6395
   7723SM  C11F10217   6.461   4.379  11.448 -0.4614 -0.1194 -0.2917
   7723SM  H11F10218   6.403   4.339  11.362 -0.2577 -1.5287  0.2034
   7723SM  H11G10219   6.564   4.389  11.409 -0.0938 -0.3722  0.6015
   7723SM  C12F10220   6.381   4.508  11.490 -0.4257  0.9523  0.2026
   7723SM  H12F10221   6.440   4.566  11.564 -0.0798 -0.2404  0.8894
   7723SM  H12G10222   6.285   4.472  11.533 -0.1168  0.2289  0.3036
   7723SM  C13F10223   6.350   4.585  11.362  0.5128  0.0132 -0.9920
   7723SM  H13F10224   6.313   4.512  11.286  0.6887 -1.0330 -0.0883
   7723SM  H13G10225   6.444   4.625  11.319  0.8689  1.3644  0.9043
   7723SM  C14F10226   6.244   4.697  11.395  0.2206  0.1914  0.4086
   7723SM  H14F10227   6.304   4.769  11.455  1.1970 -0.0685 -0.2211
   7723SM  H14G10228   6.160   4.651  11.450 -1.0653  1.6530 -0.2763
   7723SM  C15F10229   6.197   4.763  11.266 -0.6309 -0.6430  0.5124
   7723SM  H15F10230   6.155   4.689  11.195  0.1428  0.3813 -1.0975
   7723SM  H15G10231   6.291   4.804  11.224 -1.4573 -1.0853 -1.9558
   7723SM  C16F10232   6.096   4.877  11.290  0.2093 -0.6945 -0.7076
   7723SM  H16F10233   6.084   4.947  11.205 -0.2769 -0.1530 -0.2002
   7723SM  H16G10234   6.133   4.938  11.376  3.5630 -0.5291 -2.1017
   7723SM  C17F10235   5.950   4.832  11.321 -0.6687  0.5702  0.4374
   7723SM  H17F10236   5.941   4.766  11.410  0.2682  1.1923  1.0082
   7723SM  H17G10237   5.912   4.782  11.229  2.1288 -2.6177  0.8117
   7723SM  C18F10238   5.866   4.959  11.339 -0.0828  0.4604 -0.4868
   7723SM  H18F10239   5.874   5.021  11.247  0.9230 -0.1027 -0.7870
   7723SM  H18G10240   5.899   5.018  11.428 -0.9828 -1.7622  1.4298
   7723SM  C19F10241   5.722   4.931  11.368  0.0490 -0.1900  0.1628
   7723SM  H19F10242   5.707   4.904  11.474 -0.5542 -0.8244 -0.0786
   7723SM  H19G10243   5.685   4.846  11.307 -0.7786 -1.5178  2.4216
   7723SM  C20F10244   5.632   5.046  11.326  0.3242  0.1103  0.8138
   7723SM  H20F10245   5.524   5.030  11.347 -0.0489  0.2772 -0.7974
   7723SM  H20G10246   5.647   5.054  11.216  1.5568 -2.8779  0.6830
   7723SM  C21F10247   5.671   5.180  11.394  0.7675  0.3101 -0.4822
   7723SM  H21F10248   5.601   5.251  11.344 -0.4367  0.1351  0.8698
   7723SM  H21G10249   5.775   5.203  11.364  0.8955  2.5677  1.4526
   7723SM  C22F10250   5.644   5.195  11.544  0.1473 -0.0807  0.9551
   7723SM  H22F10251   5.709   5.279  11.576  1.8392 -1.4782  1.3358
   7723SM  H22G10252   5.674   5.105  11.602  1.2482 -0.4716 -0.1552
   7723SM  C23F10253   5.497   5.240  11.563 -0.3681  1.0432  0.5898
   7723SM  H23F10254   5.475   5.275  11.666  1.1051 -0.5841  1.5139
   7723SM  H23G10255   5.440   5.147  11.542  0.4310  1.1081 -2.3503
   7723SM  H23H10256   5.472   5.320  11.489  0.9173  1.5155  0.6399
   7823SM     N10257   8.332   3.177  13.348  0.1531 -0.8215  0.0697
   7823SM   C1510258   8.244   3.291  13.312  0.2723  0.0042  0.3690
   7823SM  H15A10259   8.297   3.366  13.256  0.6857 -1.8413 -1.8813
   7823SM  H15B10260   8.195   3.331  13.399 -0.6677  0.5517 -0.3981
   7823SM  H15C10261   8.160   3.271  13.248 -0.1308  0.7944  0.6464
   7823SM   C1410262   8.396   3.124  13.230 -0.3558  0.8108  0.2731
   7823SM  H14A10263   8.461   3.044  13.262 -0.2850  1.3621  1.5647
   7823SM  H14B10264   8.454   3.197  13.176 -2.3372  1.2815 -1.3759
   7823SM  H14C10265   8.332   3.081  13.154 -0.8722 -0.9824  1.6504
   7823SM   C1310266   8.435   3.224  13.446  0.3174 -0.2701 -0.7470
   7823SM  H13A10267   8.495   3.308  13.414  1.0160 -1.6355 -3.2340
   7823SM  H13B10268   8.503   3.142  13.464  0.9665  0.6356  1.2597
   7823SM  H13C10269   8.391   3.242  13.543 -0.4000 -0.3833 -1.0497
   7823SM   C1210270   8.237   3.076  13.414 -0.0899 -0.0372 -0.0977
   7823SM  H12A10271   8.150   3.049  13.356 -0.2231 -2.1973  0.9699
   7823SM  H12B10272   8.198   3.113  13.508 -1.0786  1.4976 -1.0863
   7823SM   C1110273   8.312   2.943  13.450 -0.2285  0.6636  0.2698
   7823SM  H11A10274   8.245   2.890  13.521 -0.5775 -0.5621 -0.9423
   7823SM  H11B10275   8.406   2.967  13.504 -0.5079  4.5624 -0.6311
   7823SM     P10276   8.416   2.750  13.315  0.0805 -0.3297  0.0511
   7823SM   O1310277   8.529   2.783  13.398  0.0800 -0.7997 -0.5914
   7823SM   O1410278   8.349   2.623  13.345  0.1655 -0.0089 -0.2473
   7823SM   O1110279   8.467   2.759  13.167  0.2886 -0.5818  0.2683
   7823SM   O1210280   8.316   2.870  13.327 -0.4919  0.2833  0.3129
   7823SM   C1S10281   8.552   2.659  13.109  0.7712 -0.8140  0.7102
   7823SM   H1S10282   8.563   2.569  13.173 -1.0623  0.6050  3.1816
   7823SM   H1T10283   8.655   2.702  13.110  0.0418  1.1194 -0.9567
   7823SM    NF10284   8.579   2.516  12.926 -0.4277 -0.7977  0.0762
   7823SM   HNF10285   8.664   2.535  12.877 -0.0825  0.6801  1.1780
   7823SM   C2S10286   8.510   2.628  12.965 -0.2724 -0.3679  0.4457
   7823SM   H2S10287   8.401   2.613  12.953  0.1130 -2.0454 -1.5618
   7823SM   C3S10288   8.538   2.756  12.874  0.3521  0.1348  0.0366
   7823SM   H3S10289   8.644   2.765  12.845  0.0487  1.1810 -0.8161
   7823SM    O310290   8.498   2.881  12.932 -0.0260  0.1381 -0.7169
   7823SM   HO310291   8.483   2.858  13.023 -0.0079  1.2052 -0.4241
   7823SM   C4S10292   8.461   2.731  12.744  0.0488 -0.0393  0.0174
   7823SM   H4S10293   8.356   2.763  12.749  0.1608  0.4088 -0.4172
   7823SM   C5S10294   8.517   2.701  12.626  0.3293 -0.0935 -0.1253
   7823SM   H5S10295   8.626   2.684  12.621  0.5714  0.8178  1.3896
   7823SM   C6S10296   8.436   2.695  12.499  0.3410 -0.4475  0.1065
   7823SM   H6S10297   8.482   2.766  12.426 -1.1876 -0.0351 -0.4902
   7823SM   H6T10298   8.338   2.742  12.518 -0.4280 -1.5770 -0.9251
   7823SM   C7S10299   8.406   2.559  12.434  0.0156 -0.2595  0.0349
   7823SM   H7S10300   8.348   2.584  12.343  1.9970 -0.5148 -1.3653
   7823SM   H7T10301   8.338   2.518  12.512 -0.2125  1.6930  0.9194
   7823SM   C8S10302   8.526   2.474  12.415 -0.4440  0.2264  1.3538
   7823SM   H8S10303   8.581   2.466  12.511 -1.8317 -1.3124  2.0694
   7823SM   H8T10304   8.591   2.518  12.337 -0.2659  2.1096  2.5041
   7823SM   C9S10305   8.496   2.321  12.387 -0.0614  0.6261  0.7400
   7823SM   H9S10306   8.444   2.275  12.473 -0.1398 -0.7426 -0.0221
   7823SM   H9T10307   8.590   2.266  12.364  2.0004  4.6098 -1.6236
   7823SM  C10S10308   8.409   2.315  12.257  0.1433 -0.6035  1.0107
   7823SM  H10S10309   8.465   2.359  12.172 -2.0500  1.4374  0.5402
   7823SM  H10T10310   8.311   2.363  12.276  0.2223 -0.0112 -0.0056
   7823SM  C11S10311   8.376   2.171  12.218  0.2039 -0.0340 -0.5665
   7823SM  H11S10312   8.294   2.129  12.281 -0.6623  1.5146 -0.6219
   7823SM  H11T10313   8.466   2.105  12.216  1.0788  1.0626  0.5503
   7823SM  C12S10314   8.304   2.159  12.083  0.2967 -0.5522 -0.3219
   7823SM  H12S10315   8.363   2.190  11.994  1.7204 -2.2351 -0.0128
   7823SM  H12T10316   8.221   2.231  12.097  1.4852  0.8567 -0.2668
   7823SM  C13S10317   8.250   2.019  12.034  0.2823  0.3875  0.4173
   7823SM  H13S10318   8.251   1.935  12.106  2.5491  0.7015  0.8287
   7823SM  H13T10319   8.305   1.985  11.944  0.6395  0.2131  0.7007
   7823SM  C14S10320   8.105   2.045  11.994  0.6529 -0.5147  0.2134
   7823SM  H14S10321   8.102   2.143  11.941 -0.0806  0.4007  1.8705
   7823SM  H14T10322   8.041   2.068  12.081 -2.6631 -0.6842 -1.9871
   7823SM  C15S10323   8.024   1.937  11.908  0.2899  0.1177 -0.7555
   7823SM  H15S10324   8.068   1.928  11.806 -0.7283  0.7200 -1.2771
   7823SM  H15T10325   7.919   1.973  11.898 -0.3279 -1.5836 -0.7184
   7823SM  C16S10326   8.034   1.795  11.969  0.8367 -0.0054 -0.0615
   7823SM  H16S10327   8.013   1.812  12.077  0.4007  0.5433 -0.2311
   7823SM  H16T10328   8.134   1.750  11.951 -1.2306 -4.0163 -3.0646
   7823SM  C17S10329   7.916   1.717  11.904 -0.2568 -0.4150 -0.0867
   7823SM  H17S10330   7.913   1.704  11.793  0.4310 -2.3004  0.0633
   7823SM  H17T10331   7.827   1.767  11.946  0.8625  1.2426  0.4230
   7823SM  C18S10332   7.914   1.573  11.954  0.1444 -0.7068  0.2674
   7823SM  H18S10333   7.864   1.575  12.053 -0.7555  0.1596 -0.1928
   7823SM  H18T10334   8.016   1.529  11.957  0.0484 -0.9432  0.0946
   7823SM  H18U10335   7.857   1.499  11.893 -0.7283  0.1895 -0.0233
   7823SM   C1F10336   8.552   2.390  12.963  0.4032  0.0552 -0.1479
   7823SM    OF10337   8.463   2.380  13.043 -0.4001 -0.4571  0.2588
   7823SM   C2F10338   8.617   2.272  12.899 -0.1535 -0.4687  0.1041
   7823SM   H2F10339   8.672   2.211  12.973  2.1633 -0.6633 -1.6840
   7823SM   H2G10340   8.701   2.304  12.834  1.2633 -4.3798 -0.2437
   7823SM   C3F10341   8.514   2.185  12.820 -0.4576 -0.2283 -0.2877
   7823SM   H3F10342   8.479   2.250  12.737 -0.0978  0.3643  0.0172
   7823SM   H3G10343   8.427   2.153  12.881 -1.7074 -1.0864 -2.4324
   7823SM   C4F10344   8.575   2.056  12.761  0.5609 -0.5746  0.0562
   7823SM   H4F10345   8.602   1.992  12.848  0.7258  1.3841  1.5094
   7823SM   H4G10346   8.670   2.082  12.708  0.8860  0.8497  1.2790
   7823SM   C5F10347   8.478   1.982  12.673 -0.2310 -0.6479  0.2417
   7823SM   H5F10348   8.446   2.051  12.592  0.1238  0.2798  0.8794
   7823SM   H5G10349   8.398   1.949  12.743 -0.9146  0.4770  0.0242
   7823SM   C6F10350   8.538   1.860  12.604 -0.2813 -0.6105 -0.5495
   7823SM   H6F10351   8.576   1.793  12.683  0.5417 -0.5740 -0.9073
   7823SM   H6G10352   8.627   1.889  12.545 -0.0899 -1.5339 -0.7222
   7823SM   C7F10353   8.438   1.774  12.532  0.2277  0.6352  0.0831
   7823SM   H7F10354   8.345   1.759  12.590 -0.6205  0.3671 -1.3038
   7823SM   H7G10355   8.486   1.675  12.515  1.2389  0.8372  1.5723
   7823SM   C8F10356   8.396   1.839  12.396 -0.0378 -0.0855  0.1321
   7823SM   H8F10357   8.489   1.895  12.374 -0.0965 -0.1507 -0.2761
   7823SM   H8G10358   8.318   1.917  12.408  0.4782  0.1350  3.0315
   7823SM   C9F10359   8.341   1.744  12.295 -0.6342  0.2218  0.0088
   7823SM   H9F10360   8.387   1.643  12.307  0.9443  0.8554 -0.4166
   7823SM   H9G10361   8.361   1.777  12.192 -2.4365 -2.6201 -1.3847
   7823SM  C10F10362   8.189   1.717  12.295  0.1657 -0.1503  0.5811
   7823SM  H10F10363   8.160   1.656  12.207 -0.9024 -0.3795  1.0680
   7823SM  H10G10364   8.137   1.815  12.293  0.8227  0.1916  0.2343
   7823SM  C11F10365   8.142   1.652  12.424 -0.0722 -0.2168  0.5146
   7823SM  H11F10366   8.109   1.727  12.499 -2.8672 -3.6061  3.0311
   7823SM  H11G10367   8.225   1.596  12.473  0.0206 -0.0924  0.5003
   7823SM  C12F10368   8.028   1.552  12.401  0.2287  0.5938  0.3793
   7823SM  H12F10369   7.996   1.516  12.501  1.2175  1.3989  1.0083
   7823SM  H12G10370   8.074   1.470  12.342  0.8646  3.2031 -3.0566
   7823SM  C13F10371   7.905   1.600  12.327 -0.3644  0.1275  0.2816
   7823SM  H13F10372   7.918   1.656  12.232 -2.5388 -0.7684 -0.6037
   7823SM  H13G10373   7.857   1.669  12.400  0.0308 -0.3845  1.0377
   7823SM  C14F10374   7.799   1.490  12.315 -0.7039  0.4233  0.5036
   7823SM  H14F10375   7.786   1.451  12.418 -1.9753  1.5197  0.7759
   7823SM  H14G10376   7.830   1.411  12.243  0.6260  0.7086  0.7393
   7823SM  C15F10377   7.659   1.544  12.272 -0.2427  0.5497 -0.8963
   7823SM  H15F10378   7.677   1.566  12.164  0.8118  1.0313 -0.6325
   7823SM  H15G10379   7.648   1.641  12.326 -0.7939 -0.5067  0.9539
   7823SM  C16F10380   7.544   1.455  12.311  0.6100 -0.6188  0.4952
   7823SM  H16F10381   7.538   1.445  12.421 -2.0299 -1.9110  0.3264
   7823SM  H16G10382   7.556   1.352  12.272 -0.4194 -0.3470 -0.6245
   7823SM  C17F10383   7.409   1.500  12.250 -0.4510 -1.0757 -0.0042
   7823SM  H17F10384   7.398   1.606  12.282 -0.0132 -0.7586 -0.8821
   7823SM  H17G10385   7.333   1.433  12.295 -1.5632  0.1402 -0.0139
   7823SM  C18F10386   7.397   1.472  12.097 -0.4552 -0.3245 -0.1261
   7823SM  H18F10387   7.438   1.372  12.071  0.1142 -0.2176  0.3506
   7823SM  H18G10388   7.459   1.548  12.045 -2.2528  2.5111  1.6352
   7823SM  C19F10389   7.263   1.497  12.031  0.8450 -0.6208  1.0888
   7823SM  H19F10390   7.213   1.591  12.063  1.0401 -0.4546  0.9145
   7823SM  H19G10391   7.190   1.422  12.069 -1.2720  1.7336  1.9510
   7823SM  C20F10392   7.271   1.489  11.880  0.3102 -0.4692  0.0811
   7823SM  H20F10393   7.299   1.387  11.845 -0.5023 -0.2713 -1.2347
   7823SM  H20G10394   7.357   1.551  11.846 -0.0637 -0.4544 -0.8910
   7823SM  C21F10395   7.145   1.515  11.801 -0.4773  0.9124 -0.3450
   7823SM  H21F10396   7.174   1.519  11.694 -0.3183  3.4496 -0.2723
   7823SM  H21G10397   7.114   1.618  11.829  0.6181  1.6510 -1.7749
   7823SM  C22F10398   7.027   1.417  11.825  0.4307  0.7590 -0.4794
   7823SM  H22F10399   6.949   1.449  11.752 -0.2411 -1.5701 -0.8788
   7823SM  H22G10400   6.986   1.431  11.927 -3.1083 -1.2774 -1.4474
   7823SM  C23F10401   7.058   1.265  11.787 -1.0919  0.1481  0.3504
   7823SM  H23F10402   7.103   1.213  11.874  0.9484 -0.8548 -1.2045
   7823SM  H23G10403   7.142   1.267  11.715 -1.2174 -0.8213  0.1647
   7823SM  H23H10404   6.971   1.204  11.755  1.5570 -2.6832 -2.1840
   7923SM     N10405   3.436   1.321  13.521  0.5923 -0.6634 -0.6596
   7923SM   C1510406   3.573   1.358  13.477  0.6964  0.3092 -0.1298
   7923SM  H15A10407   3.623   1.277  13.424 -1.4456 -1.8994  1.0029
   7923SM  H15B10408   3.628   1.380  13.568 -1.3788 -0.0535  1.2955
   7923SM  H15C10409   3.570   1.437  13.404  1.0055 -0.7600 -1.3349
   7923SM   C1410410   3.437   1.188  13.595 -0.3447  0.0003  0.4423
   7923SM  H14A10411   3.339   1.160  13.632 -0.4313 -0.8074 -0.3695
   7923SM  H14B10412   3.506   1.201  13.677  0.4586 -0.0032 -0.2209
   7923SM  H14C10413   3.480   1.113  13.531 -0.8911  0.0283  0.0289
   7923SM   C1310414   3.390   1.431  13.619 -0.2579 -0.0874  0.2934
   7923SM  H13A10415   3.285   1.420  13.641 -0.4449 -0.0209 -0.5440
   7923SM  H13B10416   3.404   1.524  13.566  0.8014 -0.6055 -0.3782
   7923SM  H13C10417   3.452   1.436  13.707 -1.5353  1.4122  1.1591
   7923SM   C1210418   3.337   1.314  13.407  0.5765  0.0597 -0.2251
   7923SM  H12A10419   3.238   1.291  13.445  0.1946  0.4249 -0.9772
   7923SM  H12B10420   3.370   1.247  13.330  0.8027  0.6886 -0.6854
   7923SM   C1110421   3.323   1.450  13.325  0.6252 -0.4625  0.8945
   7923SM  H11A10422   3.308   1.533  13.397 -2.8902 -0.3439  0.2026
   7923SM  H11B10423   3.225   1.454  13.273  0.0994 -1.7571  1.7343
   7923SM     P10424   3.461   1.384  13.114 -0.8442 -0.1869 -0.5723
   7923SM   O1310425   3.611   1.375  13.096 -0.2449  0.1648  0.5072
   7923SM   O1410426   3.390   1.255  13.128  0.2393  0.1856  0.3584
   7923SM   O1110427   3.395   1.473  13.003  0.2216  0.2668 -0.0613
   7923SM   O1210428   3.434   1.477  13.239 -0.2682  0.6211  0.0688
   7923SM   C1S10429   3.391   1.616  13.010  0.1376 -0.9653  1.3238
   7923SM   H1S10430   3.491   1.661  13.025  1.1898 -2.1336 -1.5086
   7923SM   H1T10431   3.315   1.660  13.078 -1.2341  0.5223 -1.0216
   7923SM    NF10432   3.356   1.814  12.840  0.0057  0.2757 -0.3722
   7923SM   HNF10433   3.282   1.880  12.844  1.1975  1.6935 -0.9646
   7923SM   C2S10434   3.327   1.670  12.872 -0.3688 -0.3422 -0.2158
   7923SM   H2S10435   3.385   1.608  12.799 -1.6019 -0.6965 -0.9303
   7923SM   C3S10436   3.179   1.626  12.863 -0.7013  0.0157  0.8902
   7923SM   H3S10437   3.120   1.681  12.940 -0.4282  0.6344  0.6703
   7923SM    O310438   3.150   1.487  12.891  0.2796 -0.0547 -0.3143
   7923SM   HO310439   3.232   1.451  12.927  0.6056  1.4438  0.5106
   7923SM   C4S10440   3.133   1.649  12.724 -0.3061 -0.0545 -0.2258
   7923SM   H4S10441   3.117   1.552  12.674  1.5665 -1.5775  1.9824
   7923SM   C5S10442   3.107   1.772  12.662  0.2668  0.4436 -0.5445
   7923SM   H5S10443   3.111   1.871  12.711 -1.5067  0.0448  0.4750
   7923SM   C6S10444   3.075   1.790  12.516  0.0825  0.1439  0.1606
   7923SM   H6S10445   2.967   1.799  12.492  0.1757 -0.5431 -0.5478
   7923SM   H6T10446   3.102   1.697  12.462  1.8688  0.4086  0.5355
   7923SM   C7S10447   3.150   1.912  12.452 -0.1706  0.2622  0.2178
   7923SM   H7S10448   3.124   2.007  12.504 -1.7526 -0.0272 -0.0004
   7923SM   H7T10449   3.123   1.915  12.345  1.2864 -0.8308 -0.2181
   7923SM   C8S10450   3.307   1.898  12.456 -0.0975 -0.4366  0.1495
   7923SM   H8S10451   3.326   1.804  12.400  0.1062 -1.2536  1.5372
   7923SM   H8T10452   3.333   1.890  12.563 -0.2150  1.3639  0.3369
   7923SM   C9S10453   3.382   2.016  12.386 -0.1885 -0.2342  0.4220
   7923SM   H9S10454   3.488   1.982  12.390  0.2301  0.6591 -1.6366
   7923SM   H9T10455   3.385   2.113  12.441  1.7898 -0.7374  1.3119
   7923SM  C10S10456   3.349   2.047  12.241  0.2229  0.2560 -0.0110
   7923SM  H10S10457   3.263   2.117  12.236 -0.6222 -0.8143 -1.0169
   7923SM  H10T10458   3.320   1.947  12.201 -0.5014  0.8719 -1.0400
   7923SM  C11S10459   3.462   2.108  12.164  0.0664  0.4712  0.1400
   7923SM  H11S10460   3.563   2.062  12.176 -0.5380 -0.8776  0.2170
   7923SM  H11T10461   3.465   2.211  12.206 -1.6803  0.4488  0.3874
   7923SM  C12S10462   3.449   2.100  12.013  0.3750  0.0319 -0.4242
   7923SM  H12S10463   3.351   2.136  11.974  0.3155 -1.7757 -2.1387
   7923SM  H12T10464   3.441   1.992  11.988  0.5804 -0.6118  2.0771
   7923SM  C13S10465   3.569   2.155  11.932  0.4939 -0.2402  0.1112
   7923SM  H13S10466   3.542   2.147  11.824 -0.1619 -1.3211  0.3450
   7923SM  H13T10467   3.646   2.077  11.949 -1.8577 -3.1767 -1.6382
   7923SM  C14S10468   3.614   2.293  11.964  0.2284 -0.7467 -0.6685
   7923SM  H14S10469   3.641   2.290  12.072 -1.4831 -1.6289 -0.2249
   7923SM  H14T10470   3.527   2.360  11.951 -0.3416 -0.7822  2.2215
   7923SM  C15S10471   3.740   2.337  11.885  0.5663  0.7136 -0.2731
   7923SM  H15S10472   3.743   2.315  11.776 -0.0807  0.1760 -0.1935
   7923SM  H15T10473   3.830   2.289  11.928  2.0245  1.1468 -2.6652
   7923SM  C16S10474   3.758   2.485  11.884  0.0344 -0.7660 -0.2720
   7923SM  H16S10475   3.681   2.524  11.814 -0.3501 -2.6055 -0.9526
   7923SM  H16T10476   3.849   2.496  11.820 -0.4086  1.2062 -0.6215
   7923SM  C17S10477   3.772   2.556  12.018  0.0797 -0.3961 -0.4581
   7923SM  H17S10478   3.674   2.541  12.069 -0.1457 -1.7622 -1.2347
   7923SM  H17T10479   3.786   2.666  12.012 -3.0197  0.2228  1.3960
   7923SM  C18S10480   3.887   2.498  12.102 -0.4602 -0.2759 -0.9007
   7923SM  H18S10481   3.983   2.507  12.047  0.3309  1.5785  0.6705
   7923SM  H18T10482   3.879   2.389  12.125 -0.7115 -0.2992 -1.0913
   7923SM  H18U10483   3.911   2.565  12.187  0.6114  0.2574 -1.5986
   7923SM   C1F10484   3.479   1.858  12.827  0.1800 -0.3436 -0.3141
   7923SM    OF10485   3.578   1.789  12.843  0.4193 -0.0233 -0.0020
   7923SM   C2F10486   3.481   2.002  12.798  0.2659  0.2740  0.2371
   7923SM   H2F10487   3.489   2.052  12.897 -0.1356  0.3956  0.2105
   7923SM   H2G10488   3.385   2.036  12.753 -0.0319 -1.2883 -0.3775
   7923SM   C3F10489   3.606   2.037  12.715 -0.0701  0.3896 -0.2832
   7923SM   H3F10490   3.601   2.007  12.608  1.0827 -0.5363 -0.1031
   7923SM   H3G10491   3.691   1.987  12.766 -0.5138 -0.8089 -0.6881
   7923SM   C4F10492   3.635   2.189  12.725  0.0150 -0.3220  0.6774
   7923SM   H4F10493   3.743   2.206  12.705 -0.3160 -0.6656 -1.8097
   7923SM   H4G10494   3.613   2.232  12.825 -0.3593  4.0352 -1.0786
   7923SM   C5F10495   3.548   2.276  12.628 -0.6889 -0.4703 -0.1975
   7923SM   H5F10496   3.441   2.276  12.656 -1.2430 -1.4376 -2.1303
   7923SM   H5G10497   3.549   2.216  12.534 -1.1736  0.0326 -0.5232
   7923SM   C6F10498   3.598   2.420  12.604 -0.2654 -0.6310 -0.4027
   7923SM   H6F10499   3.699   2.419  12.557 -0.4462 -0.6472 -0.7884
   7923SM   H6G10500   3.609   2.476  12.699 -2.5224 -2.8199  1.2771
   7923SM   C7F10501   3.505   2.508  12.527 -0.3721 -0.6925  0.1811
   7923SM   H7F10502   3.546   2.611  12.536 -0.8381 -0.6493  2.4525
   7923SM   H7G10503   3.406   2.526  12.575 -0.1631 -0.9801  0.7255
   7923SM   C8F10504   3.472   2.469  12.386 -0.1897  0.4162 -0.1210
   7923SM   H8F10505   3.412   2.377  12.373 -0.5909  0.8281 -1.2512
   7923SM   H8G10506   3.569   2.454  12.333 -0.3710  1.0370 -0.6505
   7923SM   C9F10507   3.392   2.583  12.317 -0.1968 -0.3261  0.3443
   7923SM   H9F10508   3.455   2.675  12.310 -2.2275  1.1984  1.2495
   7923SM   H9G10509   3.307   2.614  12.381 -1.0917 -0.5573 -0.7195
   7923SM  C10F10510   3.330   2.538  12.184  0.2791 -1.0232 -0.3686
   7923SM  H10F10511   3.260   2.455  12.210  0.6391 -1.1202  0.3242
   7923SM  H10G10512   3.402   2.492  12.114  0.4955 -0.3500 -0.5955
   7923SM  C11F10513   3.258   2.645  12.098  0.1694  0.5609 -0.1425
   7923SM  H11F10514   3.333   2.698  12.036  0.0987  0.0070 -0.7157
   7923SM  H11G10515   3.216   2.715  12.173  1.1035 -0.1396  1.0746
   7923SM  C12F10516   3.146   2.580  12.015 -0.2620 -0.4368 -0.1711
   7923SM  H12F10517   3.101   2.670  11.968 -1.4927 -1.0986 -0.3085
   7923SM  H12G10518   3.076   2.549  12.096  0.8910  0.4022  1.1857
   7923SM  C13F10519   3.191   2.473  11.915 -0.6307  0.0612 -0.0645
   7923SM  H13F10520   3.099   2.451  11.858 -1.6404 -0.2771  1.6391
   7923SM  H13G10521   3.232   2.380  11.959  2.5406 -0.2940 -3.2284
   7923SM  C14F10522   3.300   2.521  11.816  0.0026 -0.2505 -0.3412
   7923SM  H14F10523   3.382   2.565  11.877 -0.7752 -2.5122  2.5631
   7923SM  H14G10524   3.256   2.601  11.753 -0.8415 -2.2155 -2.3472
   7923SM  C15F10525   3.340   2.418  11.717  0.2187  0.2481  0.2891
   7923SM  H15F10526   3.257   2.349  11.692  0.1444  0.4808 -0.1110
   7923SM  H15G10527   3.418   2.352  11.760 -1.3663 -1.5497  0.5803
   7923SM  C16F10528   3.400   2.485  11.598 -0.1839  0.6608 -0.4567
   7923SM  H16F10529   3.475   2.551  11.646 -0.2378  0.3309  0.0822
   7923SM  H16G10530   3.328   2.556  11.551 -2.1941 -1.6867 -1.0742
   7923SM  C17F10531   3.448   2.382  11.492  0.1774 -0.0477  0.3642
   7923SM  H17F10532   3.510   2.309  11.548  0.4049  0.4416  0.7578
   7923SM  H17G10533   3.519   2.436  11.425 -1.0408  2.0478  0.6590
   7923SM  C18F10534   3.331   2.316  11.417 -0.1008 -0.0830 -0.0015
   7923SM  H18F10535   3.279   2.240  11.479  1.3151 -0.5839  0.6110
   7923SM  H18G10536   3.381   2.258  11.336 -1.3097 -0.1120 -0.7418
   7923SM  C19F10537   3.248   2.419  11.343  0.2114 -0.4676  0.1144
   7923SM  H19F10538   3.315   2.485  11.283 -0.1112 -1.7288 -1.7398
   7923SM  H19G10539   3.194   2.493  11.406  0.0405  0.5979 -1.2161
   7923SM  C20F10540   3.138   2.351  11.259  0.4504  0.1873  0.2346
   7923SM  H20F10541   3.191   2.291  11.182 -2.6432  0.6446 -2.4802
   7923SM  H20G10542   3.101   2.435  11.196 -1.7023 -0.0661  1.0601
   7923SM  C21F10543   3.022   2.283  11.330  0.5030 -0.9579  0.2915
   7923SM  H21F10544   3.065   2.208  11.401 -0.8282 -0.7395  1.3625
   7923SM  H21G10545   2.952   2.242  11.254 -0.7509  1.0640  0.2829
   7923SM  C22F10546   2.934   2.375  11.413  0.5996 -0.1819 -0.2698
   7923SM  H22F10547   2.893   2.452  11.343 -1.2070 -1.2637 -0.4567
   7923SM  H22G10548   3.002   2.423  11.486  2.8286  1.0033 -2.9594
   7923SM  C23F10549   2.820   2.299  11.477  0.1281 -0.2232  0.3604
   7923SM  H23F10550   2.760   2.367  11.541 -0.8026  0.6955 -1.3927
   7923SM  H23G10551   2.844   2.204  11.530 -2.2148 -0.7407  0.6127
   7923SM  H23H10552   2.750   2.277  11.393  1.1180 -2.4633  0.0460
   8023SM     N10553   6.352   1.924  12.896  0.1554  0.0711 -0.0637
   8023SM   C1510554   6.266   1.811  12.930 -0.0957 -0.0309  0.2335
   8023SM  H15A10555   6.186   1.845  12.994 -1.4814 -1.0184 -0.9195
   8023SM  H15B10556   6.319   1.730  12.978 -0.8532 -0.7262 -0.0734
   8023SM  H15C10557   6.227   1.764  12.841 -1.2059  1.2754 -0.0041
   8023SM   C1410558   6.417   1.969  13.025  0.1881  0.4585 -0.6961
   8023SM  H14A10559   6.461   2.068  13.012 -0.4183  1.2473  2.4709
   8023SM  H14B10560   6.486   1.893  13.058 -1.0393  0.2655  1.6025
   8023SM  H14C10561   6.342   1.984  13.100  0.6841 -1.1727  0.1471
   8023SM   C1310562   6.465   1.882  12.809  0.2367 -0.2665  0.3204
   8023SM  H13A10563   6.531   1.812  12.859  0.5951  0.7155  1.2573
   8023SM  H13B10564   6.515   1.972  12.778 -0.4372  0.0634  0.1743
   8023SM  H13C10565   6.428   1.847  12.714  3.4730  0.7539 -1.4600
   8023SM   C1210566   6.270   2.034  12.834  0.4265 -0.3828  0.2789
   8023SM  H12A10567   6.195   2.065  12.906  2.3046  1.4027  1.5850
   8023SM  H12B10568   6.212   1.993  12.753 -0.8385  0.8972  0.4874
   8023SM   C1110569   6.336   2.166  12.795  0.2584  0.6416  0.1465
   8023SM  H11A10570   6.261   2.214  12.729  0.7186 -0.0055 -0.8671
   8023SM  H11B10571   6.431   2.158  12.738 -0.0728  0.0901 -0.3402
   8023SM     P10572   6.360   2.393  12.927  0.6165  0.0993  0.2390
   8023SM   O1310573   6.218   2.423  12.940  0.1087  0.3065 -0.7017
   8023SM   O1410574   6.448   2.433  13.040  0.1790  0.0586 -0.5380
   8023SM   O1110575   6.400   2.456  12.785  0.2888  0.1640  0.4161
   8023SM   O1210576   6.371   2.241  12.911 -0.6126 -0.3137  0.9168
   8023SM   C1S10577   6.534   2.459  12.751 -0.7005  0.7309 -0.7176
   8023SM   H1S10578   6.576   2.357  12.737  1.1013  0.6933  3.5226
   8023SM   H1T10579   6.583   2.510  12.836 -1.1415  1.5062 -0.9189
   8023SM    NF10580   6.718   2.507  12.604  0.4914 -0.4377 -0.4658
   8023SM   HNF10581   6.768   2.591  12.622  0.4901 -0.1958 -1.4826
   8023SM   C2S10582   6.575   2.523  12.617 -0.1908 -0.1221 -0.4920
   8023SM   H2S10583   6.526   2.458  12.541  1.0196 -0.5352 -0.9373
   8023SM   C3S10584   6.523   2.668  12.610  0.6565 -0.3154 -0.3123
   8023SM   H3S10585   6.578   2.721  12.691  1.6217 -2.2346  0.3431
   8023SM    O310586   6.384   2.680  12.632 -0.3122 -0.0780 -0.5097
   8023SM   HO310587   6.358   2.594  12.664 -3.0976  1.6786  2.6005
   8023SM   C4S10588   6.563   2.741  12.475  0.4700  0.1526 -0.6352
   8023SM   H4S10589   6.661   2.791  12.482  2.0596 -2.7781  0.2043
   8023SM   C5S10590   6.493   2.747  12.362  0.0812  0.3971 -1.1855
   8023SM   H5S10591   6.391   2.708  12.349 -1.4971  3.3143  1.3844
   8023SM   C6S10592   6.547   2.815  12.238 -0.4160 -0.3871 -0.7367
   8023SM   H6S10593   6.467   2.877  12.193  0.0761  1.2746  0.5684
   8023SM   H6T10594   6.576   2.737  12.164 -0.3588 -2.2068  1.1093
   8023SM   C7S10595   6.664   2.919  12.253 -0.1984 -0.4471 -0.2197
   8023SM   H7S10596   6.750   2.860  12.292 -0.5958 -0.2061  1.0682
   8023SM   H7T10597   6.645   2.997  12.330  1.0583  0.8850 -1.1931
   8023SM   C8S10598   6.689   2.991  12.121  0.3541 -0.3464  0.1138
   8023SM   H8S10599   6.618   3.075  12.109 -0.1136 -0.7542 -0.0255
   8023SM   H8T10600   6.658   2.929  12.034 -0.0020 -0.0319  0.0123
   8023SM   C9S10601   6.836   3.038  12.088 -0.1156  0.1478  0.6719
   8023SM   H9S10602   6.861   3.099  12.177 -0.7733 -0.3569  1.2118
   8023SM   H9T10603   6.838   3.090  11.990  0.6402  0.1349  0.6718
   8023SM  C10S10604   6.932   2.914  12.074  0.5809 -0.7387 -0.0797
   8023SM  H10S10605   6.892   2.837  12.004  1.3242 -0.4621 -0.8267
   8023SM  H10T10606   6.939   2.871  12.176  0.5373 -0.6930 -0.0581
   8023SM  C11S10607   7.067   2.952  12.026 -0.2826  0.1789  0.3199
   8023SM  H11S10608   7.111   3.042  12.075 -0.6169  1.6421 -1.9000
   8023SM  H11T10609   7.062   2.976  11.918  0.8133 -0.7030  0.0575
   8023SM  C12S10610   7.177   2.837  12.023  0.0894  0.9164 -0.2417
   8023SM  H12S10611   7.260   2.860  11.953 -1.2402 -4.0412 -4.0247
   8023SM  H12T10612   7.130   2.748  11.974 -0.1260 -0.1855  1.8702
   8023SM  C13S10613   7.233   2.794  12.160  0.0371 -0.2601 -0.0989
   8023SM  H13S10614   7.288   2.701  12.133 -0.6965 -0.8727  0.4589
   8023SM  H13T10615   7.152   2.768  12.231  0.0813 -1.2489 -0.3875
   8023SM  C14S10616   7.329   2.891  12.229 -0.1368  0.2835 -0.1149
   8023SM  H14S10617   7.272   2.981  12.260 -2.1291 -0.8016 -0.4141
   8023SM  H14T10618   7.413   2.911  12.159  0.5481 -2.1668 -0.1083
   8023SM  C15S10619   7.374   2.822  12.357  0.4959 -0.4243  0.2377
   8023SM  H15S10620   7.286   2.810  12.424 -0.5912 -0.9037 -1.2086
   8023SM  H15T10621   7.441   2.894  12.407 -0.7151  1.3790 -0.6164
   8023SM  C16S10622   7.455   2.693  12.326  0.3804 -0.1500 -0.5606
   8023SM  H16S10623   7.508   2.698  12.228  1.4271  2.2316  0.0450
   8023SM  H16T10624   7.383   2.608  12.329 -0.9641  0.8750 -1.9046
   8023SM  C17S10625   7.566   2.670  12.434 -0.1943 -0.2285 -0.0583
   8023SM  H17S10626   7.623   2.765  12.444 -0.8200 -0.1076  3.6874
   8023SM  H17T10627   7.631   2.588  12.398  0.5507  0.4572 -0.3150
   8023SM  C18S10628   7.520   2.630  12.572 -0.4864  0.1142 -0.0582
   8023SM  H18S10629   7.602   2.578  12.626  0.5627  2.4911  0.7682
   8023SM  H18T10630   7.421   2.580  12.572  0.1055 -1.1310 -1.2132
   8023SM  H18U10631   7.510   2.723  12.631  0.0461 -1.1653  2.1490
   8023SM   C1F10632   6.773   2.393  12.575 -0.1584  0.7079 -0.7850
   8023SM    OF10633   6.702   2.299  12.545  0.0594  0.3282  0.1138
   8023SM   C2F10634   6.921   2.382  12.580 -0.0717  0.3453 -0.2786
   8023SM   H2F10635   6.946   2.357  12.685 -4.2679 -0.6335  0.6482
   8023SM   H2G10636   6.962   2.480  12.548  2.0894  0.1393  1.6173
   8023SM   C3F10637   6.980   2.265  12.491  0.0337 -0.1271 -0.2299
   8023SM   H3F10638   6.943   2.272  12.386  1.6103 -1.5688 -0.9405
   8023SM   H3G10639   6.947   2.174  12.547 -0.6596  1.4897  2.1550
   8023SM   C4F10640   7.133   2.249  12.492  0.2316 -0.0123  0.2211
   8023SM   H4F10641   7.164   2.162  12.431 -1.1555  0.0061 -0.5504
   8023SM   H4G10642   7.173   2.238  12.595 -1.6305  1.1172  1.1241
   8023SM   C5F10643   7.206   2.380  12.434  0.0625  0.3015 -0.0582
   8023SM   H5F10644   7.316   2.367  12.448  0.4893  3.9440  0.9198
   8023SM   H5G10645   7.187   2.477  12.484 -0.1636 -0.6522  1.8056
   8023SM   C6F10646   7.183   2.393  12.277 -0.0934 -0.2268 -0.0314
   8023SM   H6F10647   7.176   2.503  12.260  1.6330 -0.0365  0.2832
   8023SM   H6G10648   7.076   2.366  12.261 -0.1955  0.0153  0.2414
   8023SM   C7F10649   7.269   2.302  12.182  0.2495  0.6295 -0.4307
   8023SM   H7F10650   7.294   2.204  12.228 -2.7036 -0.7821 -1.5502
   8023SM   H7G10651   7.370   2.347  12.180  0.5847 -0.1309 -1.4173
   8023SM   C8F10652   7.206   2.298  12.043  0.4370 -0.0481 -0.4759
   8023SM   H8F10653   7.096   2.282  12.044  0.5314 -0.7117 -0.5599
   8023SM   H8G10654   7.250   2.216  11.983 -1.0425 -0.1285 -1.5057
   8023SM   C9F10655   7.231   2.430  11.970  0.3209 -0.9529  0.7547
   8023SM   H9F10656   7.168   2.516  11.999  1.1290 -0.0762 -0.0253
   8023SM   H9G10657   7.200   2.413  11.864 -1.1686  0.1496  0.9804
   8023SM  C10F10658   7.372   2.477  11.963 -0.2065 -0.7152 -0.2178
   8023SM  H10F10659   7.439   2.394  11.930  1.3408  0.5457 -0.4102
   8023SM  H10G10660   7.402   2.505  12.066 -1.8385  1.1624 -0.1896
   8023SM  C11F10661   7.394   2.600  11.867  0.8279  0.3967 -0.2986
   8023SM  H11F10662   7.322   2.675  11.906  1.1160  1.5345 -1.8787
   8023SM  H11G10663   7.366   2.571  11.764 -0.7687  2.7695 -0.6038
   8023SM  C12F10664   7.539   2.645  11.870  0.1816  1.0361 -0.1681
   8023SM  H12F10665   7.603   2.583  11.803 -0.0446 -0.3852  0.8940
   8023SM  H12G10666   7.557   2.625  11.977 -1.9697  1.2248  0.2711
   8023SM  C13F10667   7.560   2.791  11.828  0.0609  0.0471  0.1565
   8023SM  H13F10668   7.491   2.851  11.892  1.9475  2.2898  0.2308
   8023SM  H13G10669   7.559   2.809  11.719  2.8858 -1.1886 -0.1383
   8023SM  C14F10670   7.697   2.829  11.894 -0.3334 -0.5766 -0.1549
   8023SM  H14F10671   7.768   2.747  11.870  0.2440 -0.5306  1.2659
   8023SM  H14G10672   7.687   2.831  12.005  0.2532  0.1538 -0.1096
   8023SM  C15F10673   7.752   2.959  11.839 -0.2343 -0.0676 -0.7390
   8023SM  H15F10674   7.833   2.999  11.904 -0.3290  0.9601 -1.2311
   8023SM  H15G10675   7.671   3.035  11.844  1.4308  1.7413 -0.0051
   8023SM  C16F10676   7.817   2.948  11.701 -0.1007  0.5147  0.1398
   8023SM  H16F10677   7.732   2.945  11.630  0.3188 -1.8617 -0.3566
   8023SM  H16G10678   7.870   2.851  11.705  0.4195  0.8132  0.5302
   8023SM  C17F10679   7.907   3.063  11.672 -0.6184 -0.8238 -0.4476
   8023SM  H17F10680   7.969   3.036  11.584 -2.0907 -0.0244 -1.7780
   8023SM  H17G10681   7.977   3.087  11.755  2.5673 -2.5882 -2.3916
   8023SM  C18F10682   7.826   3.193  11.635 -0.1340  0.3583 -0.4063
   8023SM  H18F10683   7.760   3.206  11.723 -0.7044  0.5492 -0.8496
   8023SM  H18G10684   7.764   3.174  11.544  2.2021 -0.8881 -1.8292
   8023SM  C19F10685   7.917   3.307  11.610 -0.2460 -0.1217 -0.1901
   8023SM  H19F10686   7.988   3.273  11.530  0.7897  0.1730  0.5824
   8023SM  H19G10687   7.986   3.301  11.697 -0.9366 -2.1956  0.2607
   8023SM  C20F10688   7.841   3.442  11.594 -0.1018 -0.4103 -0.6022
   8023SM  H20F10689   7.778   3.466  11.683  0.7517 -1.4332  0.3032
   8023SM  H20G10690   7.774   3.436  11.505 -0.7784  0.7716 -0.1959
   8023SM  C21F10691   7.948   3.561  11.580 -0.0569 -0.5758  0.9386
   8023SM  H21F10692   7.896   3.659  11.569 -1.1931 -1.3556 -1.0700
   8023SM  H21G10693   8.006   3.542  11.488  0.9909  1.9090  0.9875
   8023SM  C22F10694   8.049   3.579  11.693 -0.7178  0.1178 -0.2868
   8023SM  H22F10695   8.092   3.480  11.719 -0.6178  0.7272  2.1552
   8023SM  H22G10696   8.004   3.611  11.790 -2.0629 -0.1347 -0.8113
   8023SM  C23F10697   8.160   3.679  11.664 -0.3631  0.2698  0.5650
   8023SM  H23F10698   8.191   3.711  11.766  3.3143  1.2319 -0.7159
   8023SM  H23G10699   8.124   3.763  11.602 -1.4143  0.5680  1.5304
   8023SM  H23H10700   8.241   3.625  11.611  0.3210 -0.3625  2.1678
   8123SM     N10701   2.717   6.143   8.830 -0.4542  0.0621  0.5241
   8123SM   C1510702   2.747   5.996   8.848 -0.0079  0.1488  0.6023
   8123SM  H15A10703   2.688   5.944   8.922  1.3659 -0.2240  1.4744
   8123SM  H15B10704   2.851   5.979   8.871  0.7018  1.2007 -1.6012
   8123SM  H15C10705   2.736   5.938   8.757  0.2729 -0.6513  1.0619
   8123SM   C1410706   2.827   6.191   8.747  0.0472  0.5358  0.3060
   8123SM  H14A10707   2.820   6.296   8.722 -0.0804  0.0479 -1.8984
   8123SM  H14B10708   2.844   6.142   8.653  0.8880  0.8537  0.2867
   8123SM  H14C10709   2.922   6.180   8.798  1.7886 -1.3240 -3.0023
   8123SM   C1310710   2.595   6.157   8.745  0.3219  0.4010 -0.2294
   8123SM  H13A10711   2.511   6.100   8.782  0.5033 -1.3072 -2.2272
   8123SM  H13B10712   2.616   6.108   8.651  1.0518  0.1907  0.0413
   8123SM  H13C10713   2.573   6.262   8.733  0.1839  0.4998  0.8362
   8123SM   C1210714   2.708   6.210   8.962 -0.2526  0.0879 -0.6328
   8123SM  H12A10715   2.712   6.314   8.934 -2.0276  0.4187  0.1879
   8123SM  H12B10716   2.799   6.183   9.014  0.3323  1.0998 -1.0883
   8123SM   C1110717   2.581   6.193   9.057 -0.3994  0.1939 -0.9571
   8123SM  H11A10718   2.486   6.226   9.009 -1.5984  0.6325  1.5221
   8123SM  H11B10719   2.606   6.264   9.139 -1.0442 -1.0645  0.3700
   8123SM     P10720   2.595   5.998   9.240  0.2047 -0.3154 -0.1293
   8123SM   O1310721   2.491   5.889   9.259 -0.4526  0.0012 -0.5791
   8123SM   O1410722   2.736   5.959   9.264 -0.0166  0.1836  0.0425
   8123SM   O1110723   2.564   6.124   9.332  0.2172  0.1339 -0.2148
   8123SM   O1210724   2.569   6.057   9.095  0.5396  0.0870 -0.2619
   8123SM   C1S10725   2.481   6.116   9.448  0.4151 -0.7635 -0.7755
   8123SM   H1S10726   2.500   6.029   9.514 -1.4681 -1.0141 -0.4904
   8123SM   H1T10727   2.378   6.105   9.406 -0.2474 -0.4127  0.7122
   8123SM    NF10728   2.381   6.204   9.653  0.1049  0.5912  0.2429
   8123SM   HNF10729   2.283   6.210   9.639  0.3069 -0.5033 -2.1255
   8123SM   C2S10730   2.467   6.244   9.537  0.3240 -0.4839 -0.1524
   8123SM   H2S10731   2.570   6.267   9.572  1.2794 -1.4742 -2.1668
   8123SM   C3S10732   2.415   6.359   9.444  0.2430 -0.0596  0.3245
   8123SM   H3S10733   2.322   6.328   9.392  1.6132  1.4366 -3.3699
   8123SM    O310734   2.520   6.394   9.355 -0.0951 -0.5918  0.2019
   8123SM   HO310735   2.571   6.313   9.361  1.1063  0.1448  0.3979
   8123SM   C4S10736   2.376   6.474   9.523  0.0919  0.0526 -0.6736
   8123SM   H4S10737   2.459   6.538   9.555  0.2894 -0.6142  0.2046
   8123SM   C5S10738   2.250   6.513   9.554 -0.2746  0.1255  0.2215
   8123SM   H5S10739   2.164   6.461   9.509 -0.4297  0.1477  0.4945
   8123SM   C6S10740   2.213   6.631   9.631 -0.1968  0.5819 -0.3135
   8123SM   H6S10741   2.103   6.625   9.640 -0.2231  0.8745 -0.4069
   8123SM   H6T10742   2.237   6.724   9.574  1.2485 -0.2478 -1.1112
   8123SM   C7S10743   2.287   6.663   9.768  0.5890 -0.3009  0.8523
   8123SM   H7S10744   2.262   6.766   9.802  4.3774  0.6820  1.2062
   8123SM   H7T10745   2.397   6.657   9.750  0.4957 -0.8257  0.4249
   8123SM   C8S10746   2.249   6.555   9.877  0.0121  0.5354  0.1678
   8123SM   H8S10747   2.281   6.455   9.839 -0.1373  1.0134 -1.2800
   8123SM   H8T10748   2.138   6.554   9.882 -0.0223  0.2123 -0.4811
   8123SM   C9S10749   2.308   6.598  10.011  0.7586  0.1885 -0.3702
   8123SM   H9S10750   2.288   6.706  10.029 -0.7179 -0.1196 -0.0235
   8123SM   H9T10751   2.417   6.590  10.028  0.3742  0.0836  2.4231
   8123SM  C10S10752   2.243   6.519  10.127 -0.4863  0.2123 -0.3701
   8123SM  H10S10753   2.274   6.414  10.144  3.9060  1.6399  1.6615
   8123SM  H10T10754   2.134   6.524  10.106 -0.7221  2.3941  1.1378
   8123SM  C11S10755   2.270   6.581  10.265 -0.0492  0.3901  0.4734
   8123SM  H11S10756   2.246   6.688  10.249 -1.5931  0.0426  0.3165
   8123SM  H11T10757   2.378   6.576  10.292  0.3412  0.9376 -0.8704
   8123SM  C12S10758   2.169   6.541  10.376  0.7545  0.6689  0.0783
   8123SM  H12S10759   2.063   6.526  10.349  0.5163  0.2482  1.1732
   8123SM  H12T10760   2.170   6.627  10.447 -2.5082  1.4823 -0.7204
   8123SM  C13S10761   2.211   6.425  10.460 -0.0518 -0.1502  0.3546
   8123SM  H13S10762   2.312   6.451  10.496 -1.0109  1.0120  2.4067
   8123SM  H13T10763   2.209   6.334  10.396 -0.7518  0.4605 -0.5202
   8123SM  C14S10764   2.115   6.401  10.582  0.0877 -0.0944  0.3204
   8123SM  H14S10765   2.032   6.336  10.547  0.3225 -0.0897 -0.2682
   8123SM  H14T10766   2.066   6.499  10.604 -4.5371 -1.2493 -3.2012
   8123SM  C15S10767   2.184   6.344  10.704  0.3710 -0.6363  0.0355
   8123SM  H15S10768   2.283   6.391  10.717 -0.3949  0.8537  0.6581
   8123SM  H15T10769   2.206   6.236  10.689  1.4801 -0.5712  1.0767
   8123SM  C16S10770   2.100   6.364  10.835 -0.7964 -0.0079 -0.6660
   8123SM  H16S10771   1.998   6.325  10.814 -2.6339  3.9665 -0.0841
   8123SM  H16T10772   2.080   6.470  10.860  0.0074 -0.5321  2.6404
   8123SM  C17S10773   2.171   6.316  10.960 -0.6908  0.0265  0.3141
   8123SM  H17S10774   2.276   6.352  10.963 -0.4391 -0.5993 -0.6666
   8123SM  H17T10775   2.179   6.206  10.959 -0.7431  0.0015  1.6844
   8123SM  C18S10776   2.101   6.369  11.087  0.0617 -0.1475 -0.6069
   8123SM  H18S10777   2.118   6.478  11.094  1.6916 -0.4693  2.1839
   8123SM  H18T10778   2.165   6.322  11.165  1.8553 -0.3851 -2.1638
   8123SM  H18U10779   1.998   6.332  11.105  0.5539 -1.7863 -0.9485
   8123SM   C1F10780   2.431   6.160   9.770 -0.0408  0.0919  0.0425
   8123SM    OF10781   2.553   6.134   9.776  0.4517 -0.7799  0.2081
   8123SM   C2F10782   2.341   6.158   9.891 -0.0556  0.2538 -0.0673
   8123SM   H2F10783   2.240   6.123   9.863  0.5751 -0.9918 -0.8752
   8123SM   H2G10784   2.331   6.253   9.947  0.1068 -0.1984  0.7436
   8123SM   C3F10785   2.399   6.068  10.003 -0.6235 -0.3066  0.2800
   8123SM   H3F10786   2.501   6.107  10.027  0.2712 -2.4145  0.1165
   8123SM   H3G10787   2.423   5.968   9.963 -1.1745 -0.2332 -0.2367
   8123SM   C4F10788   2.315   6.051  10.127 -0.2430 -0.1750  0.9306
   8123SM   H4F10789   2.219   5.999  10.105 -0.0404  0.1497 -0.9077
   8123SM   H4G10790   2.290   6.155  10.160  1.4658  0.5109  0.1874
   8123SM   C5F10791   2.400   5.997  10.244  0.4543 -0.0477  0.2045
   8123SM   H5F10792   2.496   6.053  10.247  0.0818  0.6899 -0.9845
   8123SM   H5G10793   2.422   5.890  10.224 -0.9099 -0.4680  0.8242
   8123SM   C6F10794   2.327   6.006  10.371 -0.4116  0.2723 -0.5588
   8123SM   H6F10795   2.224   5.965  10.372 -1.3375  2.3748 -1.9572
   8123SM   H6G10796   2.325   6.108  10.414  0.0869 -0.0563  0.2838
   8123SM   C7F10797   2.393   5.921  10.480  0.6188  0.0912  0.0449
   8123SM   H7F10798   2.488   5.970  10.511 -0.2804  2.4151 -0.6168
   8123SM   H7G10799   2.402   5.816  10.444 -1.9318 -0.9737  2.1905
   8123SM   C8F10800   2.302   5.923  10.608  0.9758 -0.0508 -0.2112
   8123SM   H8F10801   2.201   5.892  10.574  0.3529  1.0250  0.5734
   8123SM   H8G10802   2.296   6.027  10.647 -0.3670  0.5601 -1.9507
   8123SM   C9F10803   2.363   5.832  10.717  0.1106 -0.3050 -0.2824
   8123SM   H9F10804   2.457   5.876  10.756 -0.5357  1.3512 -0.5143
   8123SM   H9G10805   2.395   5.738  10.666  1.2491  0.9886 -2.0729
   8123SM  C10F10806   2.266   5.814  10.836  0.1507 -0.7327 -0.1919
   8123SM  H10F10807   2.165   5.799  10.794  0.0737 -3.1739  0.7418
   8123SM  H10G10808   2.260   5.913  10.887 -0.0688 -0.2829 -1.0619
   8123SM  C11F10809   2.292   5.699  10.930 -0.6977 -0.0136 -0.4615
   8123SM  H11F10810   2.369   5.727  11.004 -0.7018 -0.5670 -0.2443
   8123SM  H11G10811   2.339   5.611  10.882  0.0981 -2.6358  4.5367
   8123SM  C12F10812   2.167   5.651  11.009  0.3624 -0.2706  0.4611
   8123SM  H12F10813   2.202   5.577  11.083 -1.7649 -0.1375  1.7024
   8123SM  H12G10814   2.090   5.600  10.946 -0.7195  2.2082 -0.3745
   8123SM  C13F10815   2.096   5.764  11.087 -0.5398 -0.4468  0.4829
   8123SM  H13F10816   2.004   5.724  11.135 -1.1234 -1.2922 -1.2583
   8123SM  H13G10817   2.049   5.833  11.014  0.3982  0.2661  0.5324
   8123SM  C14F10818   2.178   5.848  11.183 -0.0755 -0.1480  0.5982
   8123SM  H14F10819   2.268   5.874  11.123 -1.0452  2.0276 -0.0160
   8123SM  H14G10820   2.219   5.789  11.268  1.8645 -0.7032 -0.6522
   8123SM  C15F10821   2.110   5.971  11.238  0.4612 -0.1552  0.0324
   8123SM  H15F10822   2.006   5.938  11.262  0.1933 -0.7913 -1.8379
   8123SM  H15G10823   2.092   6.047  11.159  0.0986 -0.1751  0.0908
   8123SM  C16F10824   2.180   6.030  11.361 -0.7260  0.9162  0.0504
   8123SM  H16F10825   2.282   6.063  11.331  0.4838 -1.3023  1.3633
   8123SM  H16G10826   2.187   5.952  11.440 -1.8779  1.3142  0.5589
   8123SM  C17F10827   2.094   6.147  11.419 -0.0267  0.8081  0.7931
   8123SM  H17F10828   1.989   6.114  11.434 -0.0923  0.5208 -0.2513
   8123SM  H17G10829   2.081   6.233  11.350  0.4394 -0.9295 -1.5960
   8123SM  C18F10830   2.155   6.210  11.543  0.0356 -0.0433  1.0170
   8123SM  H18F10831   2.257   6.244  11.515 -0.0469 -1.6188 -1.4897
   8123SM  H18G10832   2.148   6.122  11.611 -2.3736 -0.0467  0.8537
   8123SM  C19F10833   2.073   6.320  11.609 -0.5992 -0.1127 -0.4223
   8123SM  H19F10834   1.969   6.284  11.627 -0.6772  0.4240  0.2439
   8123SM  H19G10835   2.062   6.412  11.548  2.0623  0.2825 -0.4378
   8123SM  C20F10836   2.138   6.352  11.748  0.6690  0.2354  0.6561
   8123SM  H20F10837   2.236   6.405  11.745 -0.0338  1.5641 -1.2289
   8123SM  H20G10838   2.157   6.251  11.791  2.3071 -0.0758 -0.6796
   8123SM  C21F10839   2.048   6.439  11.838 -0.3445 -0.3157  0.1206
   8123SM  H21F10840   1.950   6.387  11.847 -0.0162 -1.0053 -0.2036
   8123SM  H21G10841   2.016   6.521  11.771  2.4896  0.2736 -0.6465
   8123SM  C22F10842   2.115   6.473  11.977  0.7076  0.2630 -1.0899
   8123SM  H22F10843   2.068   6.559  12.028  2.5404  0.9287 -0.4431
   8123SM  H22G10844   2.223   6.499  11.964  0.5729  0.8896 -1.0000
   8123SM  C23F10845   2.115   6.347  12.073  0.8192 -0.5764  0.1518
   8123SM  H23F10846   2.012   6.308  12.087  0.7023 -0.4809 -0.4157
   8123SM  H23G10847   2.164   6.374  12.169  0.3796 -2.0941  0.8280
   8123SM  H23H10848   2.172   6.266  12.023 -1.0777 -1.1008 -1.2795
   8223SM     N10849   1.631   6.201   8.800 -0.2227  0.2744  0.6663
   8223SM   C1510850   1.506   6.147   8.854  0.2382 -0.7952  0.2509
   8223SM  H15A10851   1.517   6.045   8.888  1.4613 -0.1435  1.9776
   8223SM  H15B10852   1.425   6.152   8.783  0.8690  0.0511 -0.4250
   8223SM  H15C10853   1.475   6.203   8.942 -1.3816  1.8367 -1.8324
   8223SM   C1410854   1.665   6.125   8.678 -0.1399 -0.2582 -0.3479
   8223SM  H14A10855   1.753   6.167   8.631 -0.7468  0.0760 -1.2165
   8223SM  H14B10856   1.593   6.128   8.597 -1.2259 -2.2312  0.4692
   8223SM  H14C10857   1.685   6.022   8.701  0.5154  0.1485  0.9938
   8223SM   C1310858   1.598   6.346   8.760 -0.0024 -0.3034  0.8095
   8223SM  H13A10859   1.532   6.342   8.675 -0.9380 -0.8878  1.5577
   8223SM  H13B10860   1.683   6.404   8.726 -1.1788  0.4867 -0.8925
   8223SM  H13C10861   1.552   6.392   8.846  1.9622  0.0457  1.7383
   8223SM   C1210862   1.747   6.192   8.904  0.1674 -0.4621 -0.2773
   8223SM  H12A10863   1.832   6.224   8.846  1.3081 -3.4330 -0.4410
   8223SM  H12B10864   1.777   6.091   8.926  0.1508 -0.8581 -1.9096
   8223SM   C1110865   1.737   6.279   9.030  0.1358  0.5923 -0.0586
   8223SM  H11A10866   1.770   6.381   9.001  3.0155  0.3268  1.8920
   8223SM  H11B10867   1.807   6.232   9.103  1.2415  2.9810  0.5045
   8223SM     P10868   1.569   6.200   9.218 -0.0711  0.1559  0.0541
   8223SM   O1310869   1.423   6.214   9.239  0.5900 -0.2817 -0.2515
   8223SM   O1410870   1.629   6.065   9.192 -0.0683  0.1521  0.2330
   8223SM   O1110871   1.650   6.262   9.340  0.1063 -0.1505 -0.3296
   8223SM   O1210872   1.607   6.286   9.093 -0.4636  0.1482  0.3217
   8223SM   C1S10873   1.617   6.378   9.420  0.1442  0.3788  0.2579
   8223SM   H1S10874   1.509   6.401   9.406  0.2420  0.3090 -0.6875
   8223SM   H1T10875   1.667   6.467   9.376 -0.1952  0.7506  0.6147
   8223SM    NF10876   1.582   6.459   9.643 -0.0214 -0.3719  0.1234
   8223SM   HNF10877   1.624   6.546   9.666 -1.2534  0.0256  0.9958
   8223SM   C2S10878   1.658   6.362   9.568  0.1005 -0.2312 -0.0186
   8223SM   H2S10879   1.625   6.258   9.589 -0.1153  0.0361  1.0406
   8223SM   C3S10880   1.814   6.365   9.577 -0.2517 -0.4181  0.0616
   8223SM   H3S10881   1.854   6.467   9.560  0.1209 -1.1812 -5.2950
   8223SM    O310882   1.877   6.285   9.477  0.4724  0.0040 -0.3498
   8223SM   HO310883   1.804   6.272   9.416  0.4127  2.9593 -1.0564
   8223SM   C4S10884   1.854   6.317   9.713 -0.3857  0.0356  0.2556
   8223SM   H4S10885   1.851   6.208   9.728  2.0326 -0.2265 -0.8068
   8223SM   C5S10886   1.924   6.389   9.805 -1.0676 -0.3476  0.2347
   8223SM   H5S10887   1.980   6.476   9.770 -0.3096  0.0244  2.2146
   8223SM   C6S10888   1.967   6.335   9.940 -0.6494  0.4330 -0.2359
   8223SM   H6S10889   1.946   6.406  10.023 -0.4291  2.0351 -1.5043
   8223SM   H6T10890   2.078   6.334   9.943 -0.6636  0.8679  0.6602
   8223SM   C7S10891   1.909   6.192   9.981 -0.4188 -1.1922  0.2675
   8223SM   H7S10892   1.961   6.112   9.925 -2.6734 -0.9578 -2.3550
   8223SM   H7T10893   1.800   6.181   9.967 -0.5746 -0.4316  0.7616
   8223SM   C8S10894   1.930   6.177  10.131  0.1004 -0.2451 -0.4445
   8223SM   H8S10895   1.858   6.243  10.184  1.4933  2.6053 -1.8812
   8223SM   H8T10896   2.037   6.192  10.158 -0.1392 -2.8039  2.4399
   8223SM   C9S10897   1.909   6.038  10.195 -0.0225  0.4985  0.2252
   8223SM   H9S10898   1.994   5.969  10.209  0.3535  0.7293 -0.8067
   8223SM   H9T10899   1.848   5.991  10.116 -0.1303 -0.0551  0.6373
   8223SM  C10S10900   1.830   6.031  10.327 -0.4210 -0.2659  0.1770
   8223SM  H10S10901   1.818   5.924  10.357 -0.3464 -0.5699 -0.8618
   8223SM  H10T10902   1.728   6.076  10.324 -0.6639 -0.7932  0.3168
   8223SM  C11S10903   1.884   6.105  10.456  0.5921  0.1833 -0.5756
   8223SM  H11S10904   1.886   6.216  10.444  2.2581  0.2478  0.0937
   8223SM  H11T10905   1.986   6.072  10.484  1.1118  2.0388 -0.1291
   8223SM  C12S10906   1.787   6.074  10.573 -0.0890  0.2456 -0.6845
   8223SM  H12S10907   1.787   5.970  10.613 -2.6163  0.8540  1.1784
   8223SM  H12T10908   1.681   6.086  10.541 -0.1240 -0.7519 -0.9663
   8223SM  C13S10909   1.804   6.157  10.699 -0.1776 -0.0482 -0.4705
   8223SM  H13S10910   1.789   6.264  10.676  3.3951  0.9300  0.9510
   8223SM  H13T10911   1.909   6.150  10.737 -0.9041 -2.4040  1.4012
   8223SM  C14S10912   1.718   6.107  10.820 -0.0972 -0.2375 -0.0552
   8223SM  H14S10913   1.733   5.997  10.824  2.0815 -0.0178 -0.9252
   8223SM  H14T10914   1.610   6.130  10.809  0.4248  1.2503 -2.8845
   8223SM  C15S10915   1.767   6.176  10.957  0.0372 -0.7670 -0.0809
   8223SM  H15S10916   1.786   6.281  10.928  0.4242 -0.6529  0.5521
   8223SM  H15T10917   1.864   6.128  10.985 -0.6124 -0.1927  3.6829
   8223SM  C16S10918   1.684   6.163  11.086  0.0820  0.1503 -0.1814
   8223SM  H16S10919   1.699   6.065  11.135 -0.6751  0.3559  0.4856
   8223SM  H16T10920   1.579   6.162  11.051 -0.3176  1.2125  0.9299
   8223SM  C17S10921   1.722   6.282  11.180  0.3152  1.2117  0.4494
   8223SM  H17S10922   1.714   6.377  11.124  1.0114  1.3549  0.5810
   8223SM  H17T10923   1.833   6.270  11.190  0.3870  3.0271  2.6932
   8223SM  C18S10924   1.669   6.286  11.324  0.2917 -0.2060 -0.4188
   8223SM  H18S10925   1.701   6.380  11.375 -1.0424  0.8525 -1.4940
   8223SM  H18T10926   1.699   6.199  11.387 -1.4129 -0.1907  0.4753
   8223SM  H18U10927   1.559   6.286  11.317  0.1929 -3.2559 -0.3992
   8223SM   C1F10928   1.456   6.433   9.674 -0.4654 -0.2989  0.0670
   8223SM    OF10929   1.416   6.315   9.671 -0.0969 -0.4193  0.5715
   8223SM   C2F10930   1.371   6.549   9.709  0.1974  0.0014  0.0152
   8223SM   H2F10931   1.355   6.614   9.620 -0.2503 -1.2121 -0.8220
   8223SM   H2G10932   1.414   6.619   9.784 -1.8050  1.5569 -0.2157
   8223SM   C3F10933   1.223   6.524   9.756  0.2871 -0.4184  0.4771
   8223SM   H3F10934   1.167   6.466   9.680  0.0049 -1.9171  1.7807
   8223SM   H3G10935   1.175   6.623   9.741  2.1723  0.3600 -0.7984
   8223SM   C4F10936   1.193   6.476   9.904  0.1982  0.3845 -0.5365
   8223SM   H4F10937   1.231   6.564   9.960 -0.5640 -1.7896  3.7511
   8223SM   H4G10938   1.245   6.380   9.926 -0.1643  0.1473 -0.6943
   8223SM   C5F10939   1.048   6.460   9.943 -0.1891  0.1239  0.0634
   8223SM   H5F10940   1.000   6.376   9.887  0.6574 -0.6179  0.4324
   8223SM   H5G10941   0.995   6.558   9.936  0.7556  1.0152  3.6811
   8223SM   C6F10942   1.035   6.423  10.096  0.1054  0.6620  1.0174
   8223SM   H6F10943   1.108   6.479  10.158 -0.4213  2.6430 -0.0745
   8223SM   H6G10944   1.063   6.317  10.118 -1.8340 -0.6567 -2.0892
   8223SM   C7F10945   0.901   6.463  10.158  0.1405 -0.6592  0.4864
   8223SM   H7F10946   0.820   6.415  10.098  1.6591 -0.2023 -2.0435
   8223SM   H7G10947   0.894   6.573  10.152  1.6457 -0.5709  0.1526
   8223SM   C8F10948   0.891   6.427  10.306 -0.6808  0.7046 -0.5475
   8223SM   H8F10949   0.794   6.467  10.341 -0.6051  0.3057  0.1323
   8223SM   H8G10950   0.970   6.488  10.357 -1.9956  2.0051  0.0098
   8223SM   C9F10951   0.905   6.277  10.327  0.2038  0.4193 -0.1661
   8223SM   H9F10952   0.879   6.258  10.433 -0.1842  1.6040 -0.0271
   8223SM   H9G10953   1.007   6.236  10.313  0.6010  1.2384  0.2557
   8223SM  C10F10954   0.814   6.187  10.242 -0.4418  0.2810 -0.1906
   8223SM  H10F10955   0.864   6.185  10.143  0.6561  2.7802  0.2331
   8223SM  H10G10956   0.719   6.238  10.214 -1.4298 -2.2269 -1.6924
   8223SM  C11F10957   0.783   6.053  10.305  0.4838 -0.1279 -0.8953
   8223SM  H11F10958   0.718   6.070  10.394 -0.1750 -1.2491 -1.1470
   8223SM  H11G10959   0.872   5.998  10.344 -0.6981 -1.1636  0.4639
   8223SM  C12F10960   0.707   5.964  10.212 -0.4128  0.1854 -0.3663
   8223SM  H12F10961   0.761   5.965  10.115  0.2805  1.3458  0.0112
   8223SM  H12G10962   0.604   6.002  10.194 -1.3666 -1.5512  1.0602
   8223SM  C13F10963   0.685   5.824  10.268 -0.2001 -0.2200  0.4508
   8223SM  H13F10964   0.788   5.791  10.292 -0.0241  0.2867  0.4135
   8223SM  H13G10965   0.638   5.764  10.186  0.7206 -0.1144 -0.1655
   8223SM  C14F10966   0.593   5.807  10.387 -0.1365 -0.0424 -0.6647
   8223SM  H14F10967   0.492   5.843  10.358  0.5702 -0.8522 -4.6425
   8223SM  H14G10968   0.617   5.870  10.476  1.6649 -0.0806 -1.0846
   8223SM  C15F10969   0.575   5.665  10.443  0.3003 -0.3138 -0.1004
   8223SM  H15F10970   0.679   5.639  10.471  1.3575  1.5512 -1.9997
   8223SM  H15G10971   0.537   5.598  10.363  0.1155  0.0888 -0.3565
   8223SM  C16F10972   0.475   5.658  10.560  0.6281  0.2083 -0.1031
   8223SM  H16F10973   0.387   5.711  10.519 -0.4501 -2.6157 -1.7173
   8223SM  H16G10974   0.514   5.704  10.653  0.6818  0.3742 -0.2082
   8223SM  C17F10975   0.428   5.512  10.582 -0.2716 -0.3875  0.5893
   8223SM  H17F10976   0.507   5.449  10.631 -0.3787 -1.0447 -0.0686
   8223SM  H17G10977   0.407   5.468  10.483  2.0815  0.0265 -0.1545
   8223SM  C18F10978   0.303   5.500  10.673 -0.2302 -0.9133  0.2073
   8223SM  H18F10979   0.256   5.601  10.673 -1.5749 -1.5304 -0.4843
   8223SM  H18G10980   0.335   5.479  10.778 -0.2251  2.7776  1.0965
   8223SM  C19F10981   0.184   5.412  10.615  0.1209  0.4147 -0.7741
   8223SM  H19F10982   0.214   5.305  10.617 -0.8578  0.1235 -1.3885
   8223SM  H19G10983   0.181   5.450  10.510  1.0746 -1.7754 -1.6521
   8223SM  C20F10984   0.043   5.433  10.683  0.5312  0.2767  0.1379
   8223SM  H20F10985  -0.024   5.381  10.612  0.5947  2.2744 -1.4920
   8223SM  H20G10986   0.023   5.543  10.684  0.4525  0.2582  1.0446
   8223SM  C21F10987   0.033   5.383  10.829 -0.9750  0.0676 -0.7774
   8223SM  H21F10988   0.105   5.443  10.888 -0.0867  1.4411 -3.1387
   8223SM  H21G10989   0.058   5.274  10.823 -1.9469 -0.1862 -0.4362
   8223SM  C22F10990  -0.112   5.404  10.884 -0.8374  0.0090  0.2097
   8223SM  H22F10991  -0.181   5.394  10.798  0.2764 -0.8627 -0.6191
   8223SM  H22G10992  -0.130   5.506  10.923 -1.4498 -0.0217  0.0219
   8223SM  C23F10993  -0.152   5.300  10.997  0.5666  0.0837 -0.9690
   8223SM  H23F10994  -0.151   5.199  10.950 -0.1172  0.1713 -1.1812
   8223SM  H23G10995  -0.251   5.318  11.043  1.4191 -1.6161  1.7428
   8223SM  H23H10996  -0.075   5.294  11.077 -0.4297 -0.6967 -0.0354
   8323SM     N10997   4.122   7.329   9.387  0.2207  0.3103  0.1017
   8323SM   C1510998   4.226   7.371   9.485  0.5207 -0.0156 -0.2665
   8323SM  H15A10999   4.294   7.441   9.438 -0.4644 -0.3931 -2.3475
   8323SM  H15B11000   4.292   7.293   9.520  0.9628  1.1062  1.5327
   8323SM  H15C11001   4.174   7.417   9.568 -2.0235  1.3380 -2.4632
   8323SM   C1411002   4.037   7.445   9.340 -0.3014 -0.0298 -0.1152
   8323SM  H14A11003   4.105   7.529   9.329  0.5501 -0.4937  1.3573
   8323SM  H14B11004   3.966   7.474   9.417  1.1108 -0.5838  1.4497
   8323SM  H14C11005   3.982   7.426   9.249  0.5612 -1.5723 -0.3378
   8323SM   C1311006   4.186   7.258   9.272  0.5304  0.2863  0.1635
   8323SM  H13A11007   4.257   7.189   9.317 -0.5908 -0.7086  0.4518
   8323SM  H13B11008   4.245   7.317   9.204 -0.6415  1.4985  0.1631
   8323SM  H13C11009   4.107   7.216   9.211 -0.1909  2.0852 -0.2010
   8323SM   C1211010   4.025   7.223   9.457 -0.5327  0.3743  0.1594
   8323SM  H12A11011   4.093   7.140   9.470 -1.1746 -0.1266  0.4210
   8323SM  H12B11012   3.954   7.186   9.385  0.6335  0.0981 -0.8784
   8323SM   C1111013   3.962   7.254   9.593  0.4387 -0.0280 -0.6350
   8323SM  H11A11014   3.893   7.169   9.610 -0.5955  0.5047 -1.9889
   8323SM  H11B11015   3.886   7.332   9.571  0.3653 -0.2323 -1.1066
   8323SM     P11016   4.144   7.193   9.770 -0.1159 -0.2840 -0.0415
   8323SM   O1311017   4.122   7.055   9.723 -0.0086 -0.0658  0.5063
   8323SM   O1411018   4.283   7.233   9.757 -0.4208  0.0737  0.9862
   8323SM   O1111019   4.101   7.200   9.918 -0.3860  0.8285 -0.6537
   8323SM   O1211020   4.048   7.298   9.697 -0.0388 -0.6432  0.1231
   8323SM   C1S11021   3.971   7.169   9.962 -0.4377 -0.0514 -0.0152
   8323SM   H1S11022   3.914   7.100   9.897  1.6524 -1.1476 -0.7952
   8323SM   H1T11023   3.917   7.265   9.975  0.4617  0.4610  0.0350
   8323SM    NF11024   3.845   7.054  10.133  0.2839 -0.6395  0.0256
   8323SM   HNF11025   3.779   7.109  10.184  0.4904 -1.0914  0.8010
   8323SM   C2S11026   3.974   7.102  10.104 -0.0244 -0.3823 -0.1736
   8323SM   H2S11027   4.036   7.010  10.110 -0.4788 -0.6459  0.6134
   8323SM   C3S11028   4.033   7.209  10.203 -0.2181  0.2346 -0.7713
   8323SM   H3S11029   3.978   7.306  10.202  0.3710  0.6572  1.9643
   8323SM    O311030   4.173   7.241  10.179  0.2919  0.8289  0.2337
   8323SM   HO311031   4.179   7.219  10.086 -2.1788 -0.0679  0.2247
   8323SM   C4S11032   4.017   7.151  10.347 -0.3405  0.2836 -0.0110
   8323SM   H4S11033   4.075   7.058  10.350  1.7517  1.4126 -1.7768
   8323SM   C5S11034   3.964   7.207  10.453 -0.0177  0.6345 -0.2648
   8323SM   H5S11035   3.939   7.314  10.450  1.0518  0.8818 -0.7057
   8323SM   C6S11036   3.949   7.148  10.587  0.2330 -0.8653 -0.1233
   8323SM   H6S11037   3.943   7.038  10.578 -1.7135 -0.8649  0.7143
   8323SM   H6T11038   3.852   7.180  10.630 -0.0912  1.7690 -2.4663
   8323SM   C7S11039   4.053   7.182  10.689  0.0911 -0.0695 -0.5317
   8323SM   H7S11040   4.156   7.160  10.652 -0.4523 -0.3557 -1.9151
   8323SM   H7T11041   4.017   7.133  10.782 -1.6177  2.1335  0.0620
   8323SM   C8S11042   4.066   7.320  10.746 -0.5063 -0.1811  0.1343
   8323SM   H8S11043   3.962   7.355  10.762 -0.6058  0.5248 -1.7545
   8323SM   H8T11044   4.123   7.387  10.678  0.3787 -0.9482  0.0997
   8323SM   C9S11045   4.123   7.324  10.888 -0.6223 -0.2467  0.1937
   8323SM   H9S11046   4.190   7.236  10.905  3.1480  2.2041 -0.8203
   8323SM   H9T11047   4.038   7.326  10.959 -0.2687  0.4071  0.6059
   8323SM  C10S11048   4.196   7.451  10.918  0.3006  0.2663 -0.7877
   8323SM  H10S11049   4.135   7.532  10.872 -1.2472 -1.0677 -1.1467
   8323SM  H10T11050   4.299   7.447  10.878  1.0453 -1.2386  1.1454
   8323SM  C11S11051   4.212   7.473  11.071 -0.1964  0.2601  0.2864
   8323SM  H11S11052   4.269   7.386  11.112 -0.9069 -1.0475 -1.3876
   8323SM  H11T11053   4.106   7.485  11.100 -1.0240 -1.8971 -1.6061
   8323SM  C12S11054   4.305   7.595  11.085  0.3906  0.2637 -0.2436
   8323SM  H12S11055   4.256   7.682  11.037  0.7641  0.9656  0.6291
   8323SM  H12T11056   4.400   7.567  11.034 -0.1426 -1.6439 -0.2816
   8323SM  C13S11057   4.324   7.639  11.235 -0.2560 -0.4163 -0.4006
   8323SM  H13S11058   4.221   7.657  11.271  0.7162  2.3855  1.2931
   8323SM  H13T11059   4.374   7.738  11.229  0.1680 -0.6804 -1.4283
   8323SM  C14S11060   4.407   7.536  11.313  0.5613  0.8647 -0.0763
   8323SM  H14S11061   4.498   7.517  11.253  1.4358  0.3866  1.3305
   8323SM  H14T11062   4.352   7.441  11.329  2.2365  0.0528  1.2560
   8323SM  C15S11063   4.453   7.593  11.448 -0.2189  0.2265 -0.6551
   8323SM  H15S11064   4.358   7.623  11.497 -0.0306 -0.9506  0.4932
   8323SM  H15T11065   4.514   7.683  11.426 -0.2717  0.4372  0.0360
   8323SM  C16S11066   4.500   7.492  11.556 -0.3915  0.4372 -0.7681
   8323SM  H16S11067   4.604   7.471  11.521 -0.3128 -2.4382  0.9197
   8323SM  H16T11068   4.449   7.395  11.539  0.2843  0.2747 -2.0830
   8323SM  C17S11069   4.499   7.547  11.701 -0.1276 -0.1118 -0.0722
   8323SM  H17S11070   4.575   7.494  11.762 -0.2435 -0.8577 -0.5513
   8323SM  H17T11071   4.403   7.524  11.751 -1.1887 -0.2762 -2.0500
   8323SM  C18S11072   4.515   7.702  11.719 -0.4803 -0.1846 -0.2074
   8323SM  H18S11073   4.418   7.748  11.694  0.2089  0.0533 -2.7774
   8323SM  H18T11074   4.589   7.745  11.648 -1.5091  2.3236  0.1248
   8323SM  H18U11075   4.529   7.727  11.826 -1.2336 -0.7963  0.0385
   8323SM   C1F11076   3.786   6.948  10.082 -0.0187  0.4044  0.2119
   8323SM    OF11077   3.832   6.882   9.989 -0.6780 -0.1895 -0.0305
   8323SM   C2F11078   3.645   6.920  10.116 -1.1550 -0.7726  0.6579
   8323SM   H2F11079   3.586   6.893  10.025 -0.1005  0.0876 -0.2975
   8323SM   H2G11080   3.600   7.015  10.151 -1.5541 -0.1577 -1.3806
   8323SM   C3F11081   3.642   6.808  10.220  0.3477  0.1211 -0.5151
   8323SM   H3F11082   3.695   6.716  10.187  0.4798  0.0732 -0.1819
   8323SM   H3G11083   3.537   6.772  10.226  0.6615 -0.8676 -0.8076
   8323SM   C4F11084   3.687   6.836  10.356 -0.9680 -0.4302  0.1272
   8323SM   H4F11085   3.627   6.920  10.399  0.2633  0.5690 -0.0326
   8323SM   H4G11086   3.789   6.878  10.366 -0.5399 -1.1205 -1.1218
   8323SM   C5F11087   3.679   6.711  10.440  1.6215  0.7911 -0.4543
   8323SM   H5F11088   3.735   6.623  10.401 -0.0120 -1.0680  1.1715
   8323SM   H5G11089   3.576   6.669  10.438  2.6441 -1.9622 -0.3903
   8323SM   C6F11090   3.730   6.735  10.585 -0.2408  0.8797 -0.9112
   8323SM   H6F11091   3.728   6.845  10.605  0.6168  0.8197 -0.4260
   8323SM   H6G11092   3.837   6.708  10.592 -0.1894 -0.3289 -4.4406
   8323SM   C7F11093   3.648   6.654  10.689  0.0954 -0.5292 -0.1865
   8323SM   H7F11094   3.666   6.545  10.677 -0.2883 -0.6834  0.5491
   8323SM   H7G11095   3.541   6.674  10.668  0.4356  1.4610 -0.1691
   8323SM   C8F11096   3.687   6.670  10.839  0.3194 -0.8034 -0.1030
   8323SM   H8F11097   3.621   6.612  10.908 -0.1210 -0.4636 -0.2369
   8323SM   H8G11098   3.692   6.776  10.869  1.2265 -1.3004  1.6233
   8323SM   C9F11099   3.824   6.600  10.858 -0.4164 -0.3598 -0.2974
   8323SM   H9F11100   3.897   6.655  10.795 -0.1171 -0.4028  0.0066
   8323SM   H9G11101   3.829   6.497  10.817  2.0254  0.5060 -2.5286
   8323SM  C10F11102   3.869   6.587  11.005  0.2002 -1.3107 -0.2565
   8323SM  H10F11103   3.973   6.550  11.020  0.9378  0.9772  0.7004
   8323SM  H10G11104   3.799   6.523  11.063 -0.3086  0.8764  1.6807
   8323SM  C11F11105   3.883   6.718  11.084 -0.0003  0.4452 -0.4616
   8323SM  H11F11106   3.908   6.695  11.190 -1.9192  0.9039  0.1305
   8323SM  H11G11107   3.784   6.769  11.090 -1.1091 -1.6941  0.5486
   8323SM  C12F11108   3.987   6.812  11.029  0.0330  0.3695 -0.0456
   8323SM  H12F11109   3.957   6.850  10.929 -0.0299 -1.0028 -0.5682
   8323SM  H12G11110   4.086   6.764  11.025  0.0197  0.1668  1.4734
   8323SM  C13F11111   4.005   6.942  11.112  0.9193  0.0763  0.1995
   8323SM  H13F11112   3.906   6.983  11.141  0.3255 -2.9725  3.1999
   8323SM  H13G11113   4.060   7.021  11.057  0.3143  1.6981  1.8355
   8323SM  C14F11114   4.078   6.913  11.248 -0.5356  0.1285  0.6312
   8323SM  H14F11115   4.174   6.858  11.246  0.5540  1.9512  0.5400
   8323SM  H14G11116   4.007   6.849  11.306  0.9476 -1.7882  0.4031
   8323SM  C15F11117   4.107   7.043  11.325  0.2308 -0.1388  0.2129
   8323SM  H15F11118   4.003   7.078  11.342  0.0575 -0.6609  0.2597
   8323SM  H15G11119   4.170   7.115  11.269  1.0008 -1.0935 -0.1947
   8323SM  C16F11120   4.169   7.000  11.460  0.1047 -0.2314 -0.3116
   8323SM  H16F11121   4.220   6.902  11.468  1.3202  0.4672  0.8122
   8323SM  H16G11122   4.086   6.994  11.534  0.4065 -0.0348  0.0437
   8323SM  C17F11123   4.282   7.097  11.498 -0.1055  0.2012 -0.1356
   8323SM  H17F11124   4.265   7.131  11.602  1.0461  3.0865 -0.7783
   8323SM  H17G11125   4.267   7.196  11.448 -2.1940 -0.0001  0.0014
   8323SM  C18F11126   4.417   7.036  11.480  0.9872  0.1643  0.1505
   8323SM  H18F11127   4.435   6.984  11.383 -3.2266 -1.7627  0.2160
   8323SM  H18G11128   4.421   6.948  11.547  0.0592 -1.7805 -2.2050
   8323SM  C19F11129   4.529   7.122  11.531 -0.1066 -0.9137  0.0413
   8323SM  H19F11130   4.507   7.142  11.638 -0.6292  1.0474 -0.3942
   8323SM  H19G11131   4.526   7.219  11.478 -0.3149 -0.2467  1.2370
   8323SM  C20F11132   4.672   7.067  11.542  0.6274 -0.1439 -0.2461
   8323SM  H20F11133   4.720   7.048  11.444  1.6789  3.2993 -0.5418
   8323SM  H20G11134   4.655   6.961  11.569 -0.7206  0.5187  1.7905
   8323SM  C21F11135   4.755   7.147  11.646 -0.3656  0.6696  0.1380
   8323SM  H21F11136   4.700   7.158  11.742 -1.5109 -1.0925 -0.2642
   8323SM  H21G11137   4.784   7.247  11.610 -1.6190  1.6206  1.6349
   8323SM  C22F11138   4.889   7.066  11.674 -0.7807 -0.2924 -0.4240
   8323SM  H22F11139   4.932   7.055  11.572 -1.7511 -1.4034 -0.7447
   8323SM  H22G11140   4.866   6.969  11.724  0.3746 -0.0349  0.6625
   8323SM  C23F11141   4.998   7.142  11.763  0.2974 -0.2376  1.0588
   8323SM  H23F11142   5.097   7.092  11.769  0.3301 -0.6138 -1.3710
   8323SM  H23G11143   4.961   7.148  11.868 -0.5045 -2.0072  0.9189
   8323SM  H23H11144   5.023   7.238  11.712 -0.6321 -0.7444 -0.4075
   8423SM     N11145   1.859   3.470   9.116  0.1091  0.0368 -0.0155
   8423SM   C1511146   1.913   3.403   9.239 -0.6050 -0.1526  0.2442
   8423SM  H15A11147   2.008   3.442   9.274 -1.5035  0.5227  2.0927
   8423SM  H15B11148   1.916   3.297   9.218 -1.7671 -0.1129 -0.1741
   8423SM  H15C11149   1.844   3.421   9.320  1.8875  1.6274  2.1713
   8423SM   C1411150   1.946   3.448   8.994  0.4925  0.3795 -0.3440
   8423SM  H14A11151   1.930   3.526   8.921  1.5379  0.3505 -0.6197
   8423SM  H14B11152   1.932   3.358   8.937  1.4280 -0.8011  1.2106
   8423SM  H14C11153   2.051   3.445   9.019 -0.0728 -1.3638  2.2396
   8423SM   C1311154   1.725   3.431   9.073  0.6659  0.4740 -0.6036
   8423SM  H13A11155   1.648   3.475   9.134  1.8580  1.1121  0.5123
   8423SM  H13B11156   1.699   3.326   9.075 -0.7118  0.7698  1.9855
   8423SM  H13C11157   1.712   3.474   8.975  1.3409  0.3241 -0.7657
   8423SM   C1211158   1.853   3.615   9.145 -0.8752 -0.2459  0.1846
   8423SM  H12A11159   1.809   3.660   9.057  2.5779 -2.7623 -3.1646
   8423SM  H12B11160   1.952   3.659   9.146 -1.7162  1.7576  0.9422
   8423SM   C1111161   1.784   3.665   9.274  0.1526  0.3364  0.1876
   8423SM  H11A11162   1.825   3.619   9.366  2.3237 -2.1488 -1.8818
   8423SM  H11B11163   1.678   3.631   9.268  0.4695 -1.0143  1.7305
   8423SM     P11164   1.893   3.893   9.326  0.1478  0.1287 -0.1162
   8423SM   O1311165   2.010   3.803   9.358 -0.2823 -0.0538  0.0643
   8423SM   O1411166   1.917   4.001   9.228  0.1548 -0.0509 -0.4873
   8423SM   O1111167   1.853   3.966   9.463  0.2361  0.5447 -0.0875
   8423SM   O1211168   1.771   3.804   9.292  0.1061  0.1478 -0.0181
   8423SM   C1S11169   1.786   3.892   9.570  1.1327 -0.8644  0.0920
   8423SM   H1S11170   1.795   3.782   9.565  1.3127 -0.8480  0.0501
   8423SM   H1T11171   1.677   3.915   9.559  1.2259 -0.4691 -0.0406
   8423SM    NF11172   1.806   3.848   9.807 -0.6884 -0.7022 -0.0023
   8423SM   HNF11173   1.740   3.873   9.878 -1.4387 -0.3803 -0.7945
   8423SM   C2S11174   1.829   3.954   9.707  0.5301 -0.1966 -0.5672
   8423SM   H2S11175   1.939   3.969   9.710  0.4457  0.8214  3.3812
   8423SM   C3S11176   1.776   4.099   9.720 -0.3024 -0.8381 -0.2255
   8423SM   H3S11177   1.666   4.095   9.729 -0.6637  0.6814 -2.9451
   8423SM    O311178   1.799   4.185   9.604 -0.0709  0.0481 -0.6070
   8423SM   HO311179   1.830   4.118   9.542  1.9938  0.1634  0.2557
   8423SM   C4S11180   1.829   4.168   9.847 -0.4543 -0.3495 -0.2100
   8423SM   H4S11181   1.758   4.148   9.929 -0.6061 -0.3633 -0.3429
   8423SM   C5S11182   1.944   4.244   9.865 -0.2432  0.4673  0.4096
   8423SM   H5S11183   2.001   4.265   9.774 -1.8109 -0.4635 -0.8476
   8423SM   C6S11184   1.985   4.312   9.984 -0.2517 -0.1044  0.3116
   8423SM   H6S11185   1.972   4.422   9.969 -2.7913 -0.2376  1.0552
   8423SM   H6T11186   2.095   4.298   9.984 -0.2117 -0.3737 -2.6024
   8423SM   C7S11187   1.934   4.262  10.122  0.3860  0.5121 -0.5685
   8423SM   H7S11188   1.989   4.175  10.163 -2.2391 -1.0163 -0.0125
   8423SM   H7T11189   1.826   4.236  10.125  1.1381 -3.0114  0.5368
   8423SM   C8S11190   1.957   4.381  10.217  0.5030  0.1485 -0.8258
   8423SM   H8S11191   1.892   4.463  10.180 -0.3133  0.1444  0.5685
   8423SM   H8T11192   2.053   4.427  10.183  1.3493 -0.7150  0.3279
   8423SM   C9S11193   1.945   4.345  10.363  0.3163 -0.8788  0.5358
   8423SM   H9S11194   2.028   4.279  10.393  0.6760 -0.6034  0.1522
   8423SM   H9T11195   1.863   4.273  10.385  1.3682 -2.4927 -0.5948
   8423SM  C10S11196   1.928   4.467  10.455 -0.0972 -0.4098  0.2848
   8423SM  H10S11197   1.835   4.519  10.426  0.8263  3.0390  2.8496
   8423SM  H10T11198   2.007   4.544  10.440  1.4983 -1.8944  0.7069
   8423SM  C11S11199   1.932   4.441  10.601 -0.6876 -0.3416 -1.4582
   8423SM  H11S11200   2.005   4.358  10.616 -0.4897  0.3650  2.5503
   8423SM  H11T11201   1.838   4.402  10.647  0.3187 -0.0096  1.0556
   8423SM  C12S11202   1.976   4.558  10.682 -0.8628  0.0117 -0.6666
   8423SM  H12S11203   1.890   4.629  10.689 -1.5394 -0.5350 -2.7016
   8423SM  H12T11204   2.064   4.606  10.633  0.6277  0.6444  2.3994
   8423SM  C13S11205   2.015   4.514  10.824 -0.2761  0.9091  0.3933
   8423SM  H13S11206   2.068   4.418  10.808  0.4342  1.1481  1.2306
   8423SM  H13T11207   1.921   4.489  10.878 -0.6685 -0.0901 -0.7174
   8423SM  C14S11208   2.112   4.599  10.899 -0.1740 -0.7590 -0.2789
   8423SM  H14S11209   2.208   4.604  10.843 -0.2487  1.7210 -0.2965
   8423SM  H14T11210   2.126   4.548  10.997 -1.1512 -2.4033 -0.9441
   8423SM  C15S11211   2.069   4.745  10.917 -1.0194  0.6990 -0.6792
   8423SM  H15S11212   1.967   4.755  10.960 -0.6585 -0.1167  0.3928
   8423SM  H15T11213   2.067   4.800  10.821 -0.2475  0.7920 -0.6490
   8423SM  C16S11214   2.171   4.808  11.015 -0.3904 -0.1029 -0.4441
   8423SM  H16S11215   2.275   4.798  10.976  0.5640 -0.4589  2.0131
   8423SM  H16T11216   2.167   4.747  11.108 -0.1719 -0.6023 -0.7540
   8423SM  C17S11217   2.130   4.955  11.049  0.0047  0.2333  0.1110
   8423SM  H17S11218   2.023   4.958  11.018 -0.9742 -0.6026  3.1089
   8423SM  H17T11219   2.182   5.021  10.976  0.5592 -0.7396 -0.3865
   8423SM  C18S11220   2.146   5.016  11.189  0.8358 -0.7556 -0.2004
   8423SM  H18S11221   2.252   5.048  11.195  0.7775 -0.6896  0.5249
   8423SM  H18T11222   2.118   4.949  11.273  0.5912  0.8925  1.0837
   8423SM  H18U11223   2.085   5.108  11.198 -0.4011 -1.6594  1.0817
   8423SM   C1F11224   1.880   3.739   9.814 -0.0371  0.2788  0.3009
   8423SM    OF11225   1.948   3.694   9.720  0.4650  0.4839 -0.0189
   8423SM   C2F11226   1.883   3.669   9.949 -0.3706  0.1107  0.1924
   8423SM   H2F11227   1.987   3.651   9.982 -0.8258 -1.9335  0.6581
   8423SM   H2G11228   1.832   3.571   9.940 -1.1206  0.4126  0.9993
   8423SM   C3F11229   1.816   3.756  10.062  1.0408 -0.6882 -1.0863
   8423SM   H3F11230   1.712   3.773  10.027 -0.5107 -1.2853  2.8227
   8423SM   H3G11231   1.875   3.850  10.071 -0.7489  0.2556  2.3358
   8423SM   C4F11232   1.831   3.676  10.194  0.1419 -0.6896 -0.3665
   8423SM   H4F11233   1.932   3.630  10.191  0.9087  0.8707  0.5143
   8423SM   H4G11234   1.764   3.587  10.188 -2.1754  0.2999  4.8723
   8423SM   C5F11235   1.788   3.750  10.317  1.1767 -0.2328 -0.2629
   8423SM   H5F11236   1.743   3.679  10.390  2.5941  0.9111  1.8607
   8423SM   H5G11237   1.705   3.818  10.290  0.8299 -0.6440 -0.2390
   8423SM   C6F11238   1.905   3.827  10.373 -0.0452 -0.1331 -0.1138
   8423SM   H6F11239   1.956   3.887  10.295  1.0438 -3.8855 -2.5251
   8423SM   H6G11240   1.972   3.748  10.412 -0.4560 -0.7672 -0.6861
   8423SM   C7F11241   1.855   3.925  10.485  0.0908  0.4970 -0.0202
   8423SM   H7F11242   1.785   3.875  10.555 -1.5160  1.3023 -1.0001
   8423SM   H7G11243   1.796   4.011  10.447 -1.3427 -1.3105 -2.1031
   8423SM   C8F11244   1.963   3.987  10.574 -0.0803  0.8745 -0.3996
   8423SM   H8F11245   2.028   4.055  10.515 -0.7267  1.6076 -0.2714
   8423SM   H8G11246   2.034   3.912  10.616 -1.8459 -0.4146  0.3889
   8423SM   C9F11247   1.906   4.062  10.697  0.4029  0.1435 -0.1295
   8423SM   H9F11248   1.837   3.986  10.741  0.7830  0.0342  0.2895
   8423SM   H9G11249   1.844   4.149  10.668 -2.2606 -0.4434  3.1707
   8423SM  C10F11250   2.010   4.103  10.794 -0.0480  0.1711 -0.6701
   8423SM  H10F11251   2.071   4.177  10.738  0.7345 -0.2073 -0.3312
   8423SM  H10G11252   2.072   4.017  10.825 -2.1369 -1.3445 -0.4842
   8423SM  C11F11253   1.951   4.161  10.919  0.4563  0.0028 -0.2591
   8423SM  H11F11254   1.863   4.109  10.962  1.5355  0.0324  2.1980
   8423SM  H11G11255   1.919   4.264  10.890  1.4790 -0.2927 -2.6898
   8423SM  C12F11256   2.048   4.178  11.042  0.0472  0.1087  1.0672
   8423SM  H12F11257   2.022   4.265  11.106  1.4355  2.1060 -0.9339
   8423SM  H12G11258   2.143   4.213  10.997 -0.9034  1.3638 -0.0414
   8423SM  C13F11259   2.069   4.046  11.113 -0.1598  0.0609  0.1848
   8423SM  H13F11260   2.073   3.968  11.034  1.0887 -0.8990  1.1616
   8423SM  H13G11261   1.981   4.022  11.176  0.2366 -1.7595  0.0821
   8423SM  C14F11262   2.203   4.038  11.194  0.5680  0.5705 -0.2151
   8423SM  H14F11263   2.279   4.090  11.131  0.5775  1.7157  0.7007
   8423SM  H14G11264   2.231   3.931  11.201 -1.2413  0.1326  0.8693
   8423SM  C15F11265   2.205   4.097  11.331  0.0313 -0.3172  0.1735
   8423SM  H15F11266   2.100   4.107  11.364  0.1011 -0.6717  0.5251
   8423SM  H15G11267   2.259   4.194  11.325  1.3087 -0.9119  1.4194
   8423SM  C16F11268   2.272   4.012  11.446  0.5858  0.6849 -0.6926
   8423SM  H16F11269   2.274   4.065  11.544  0.9913 -2.2221  0.9970
   8423SM  H16G11270   2.378   4.002  11.414  1.1934  2.9313  0.4298
   8423SM  C17F11271   2.214   3.872  11.472 -0.0828  0.2493  0.2801
   8423SM  H17F11272   2.263   3.838  11.566  2.8985 -0.8793 -1.5455
   8423SM  H17G11273   2.243   3.808  11.385 -1.6676  1.0525 -0.8847
   8423SM  C18F11274   2.061   3.865  11.492 -0.4244 -0.0671  0.1140
   8423SM  H18F11275   2.009   3.910  11.405 -0.2845 -0.7425 -0.3290
   8423SM  H18G11276   2.034   3.931  11.577 -4.9657  2.2836 -2.7738
   8423SM  C19F11277   2.014   3.722  11.495  0.2661  0.0532 -0.5426
   8423SM  H19F11278   2.075   3.697  11.584  0.3270  3.5844  0.5220
   8423SM  H19G11279   2.041   3.663  11.404 -0.6419 -2.3904  0.6731
   8423SM  C20F11280   1.866   3.714  11.514  1.1599  0.3431 -0.0632
   8423SM  H20F11281   1.819   3.756  11.422  0.3147  2.8872  1.4563
   8423SM  H20G11282   1.835   3.776  11.601  1.9227  0.0623  0.4145
   8423SM  C21F11283   1.794   3.572  11.525  0.6212  0.0836 -0.0473
   8423SM  H21F11284   1.801   3.538  11.630 -0.4724 -0.1705 -0.0378
   8423SM  H21G11285   1.833   3.493  11.456  1.8907 -0.0370  0.7801
   8423SM  C22F11286   1.644   3.586  11.491 -0.2631  0.6139  0.4845
   8423SM  H22F11287   1.625   3.662  11.412 -0.9175 -0.0922 -0.0607
   8423SM  H22G11288   1.588   3.621  11.580 -3.0193 -1.7150 -0.1695
   8423SM  C23F11289   1.579   3.460  11.440 -0.2346  0.0179 -0.2216
   8423SM  H23F11290   1.471   3.487  11.434  0.0825  2.4879  2.8577
   8423SM  H23G11291   1.584   3.372  11.507  0.1216  0.1533 -0.0701
   8423SM  H23H11292   1.617   3.424  11.342  1.5479 -1.1165  0.8463
   8523SM     N11293   5.592   6.276   9.610 -0.3064 -0.6701 -0.2531
   8523SM   C1511294   5.494   6.192   9.528  0.5321  0.2986 -0.7263
   8523SM  H15A11295   5.535   6.142   9.442  0.8799 -0.1247 -0.3220
   8523SM  H15B11296   5.411   6.256   9.503  1.7596  2.2535 -0.0556
   8523SM  H15C11297   5.453   6.111   9.587  1.8483 -0.1308 -0.3676
   8523SM   C1411298   5.623   6.394   9.523  0.1781  0.0124  0.0936
   8523SM  H14A11299   5.547   6.471   9.521 -0.8510 -0.8604 -3.6556
   8523SM  H14B11300   5.646   6.350   9.426 -1.3805 -0.4663 -0.0880
   8523SM  H14C11301   5.709   6.443   9.563 -1.2868  1.0568  2.1126
   8523SM   C1311302   5.537   6.331   9.737  0.0057 -0.0569  0.3925
   8523SM  H13A11303   5.522   6.247   9.804 -0.0377  0.1250  0.6151
   8523SM  H13B11304   5.446   6.383   9.715  0.1905 -0.6392 -1.9803
   8523SM  H13C11305   5.601   6.406   9.782  0.1512 -0.4394  0.8277
   8523SM   C1211306   5.717   6.200   9.634 -0.0583  0.3370 -0.0697
   8523SM  H12A11307   5.795   6.252   9.686 -0.4221  0.9453 -0.1227
   8523SM  H12B11308   5.764   6.170   9.542 -0.3083 -0.7244  0.1350
   8523SM   C1111309   5.703   6.068   9.721  0.6210 -0.3424  0.2033
   8523SM  H11A11310   5.799   6.012   9.716  1.0972  0.5388 -1.0749
   8523SM  H11B11311   5.630   6.002   9.668  0.6867  0.0160 -0.3426
   8523SM     P11312   5.774   6.137   9.964  0.0575 -0.4499 -0.1096
   8523SM   O1311313   5.819   6.022  10.049 -0.0630 -0.2824  0.7105
   8523SM   O1411314   5.879   6.206   9.890 -0.2232 -0.2432  0.2098
   8523SM   O1111315   5.688   6.240  10.052  0.3744  0.3210  0.3759
   8523SM   O1211316   5.654   6.093   9.857  0.5508  0.0251 -0.1497
   8523SM   C1S11317   5.601   6.192  10.157 -0.2502  0.1647  0.0608
   8523SM   H1S11318   5.668   6.141  10.230  0.5530  0.3086 -0.5537
   8523SM   H1T11319   5.545   6.104  10.118 -1.7880  0.7304  0.9167
   8523SM    NF11320   5.461   6.266  10.355 -0.0499  0.1459  0.0184
   8523SM   HNF11321   5.361   6.272  10.357 -0.0645  0.1695 -0.5764
   8523SM   C2S11322   5.521   6.313  10.229  0.7787  0.8230  0.4343
   8523SM   H2S11323   5.592   6.387  10.271  1.2875  0.8354 -0.4304
   8523SM   C3S11324   5.427   6.381  10.126  0.1007 -0.0044  0.6848
   8523SM   H3S11325   5.366   6.304  10.075  0.0978  0.2806  0.2564
   8523SM    O311326   5.505   6.438  10.020 -0.4589 -0.6441 -0.3804
   8523SM   HO311327   5.592   6.396  10.023  0.8489  1.6143 -2.6120
   8523SM   C4S11328   5.339   6.481  10.190 -0.3862  0.0212 -0.0936
   8523SM   H4S11329   5.256   6.418  10.225 -1.3491 -0.2007 -2.5650
   8523SM   C5S11330   5.344   6.617  10.199 -0.3529  0.6278  0.0058
   8523SM   H5S11331   5.426   6.673  10.152  1.4881 -1.8327  0.0803
   8523SM   C6S11332   5.226   6.707  10.257 -0.3900 -0.3281 -0.2145
   8523SM   H6S11333   5.198   6.790  10.188  0.6042 -0.0478 -0.3043
   8523SM   H6T11334   5.245   6.760  10.353  1.4394  0.6530 -1.0478
   8523SM   C7S11335   5.096   6.632  10.272  1.1189  0.0889  0.0612
   8523SM   H7S11336   5.097   6.528  10.312  1.9679  0.1857  0.3084
   8523SM   H7T11337   5.057   6.635  10.168 -0.1481  0.5249  0.5378
   8523SM   C8S11338   4.997   6.702  10.355  0.6147 -0.1828  1.0531
   8523SM   H8S11339   4.900   6.661  10.320  0.6409  2.2172 -2.2732
   8523SM   H8T11340   4.994   6.808  10.322 -2.3314 -0.3041  0.6218
   8523SM   C9S11341   5.016   6.693  10.503  0.1590 -0.4889  0.3242
   8523SM   H9S11342   5.105   6.751  10.534  0.1163 -1.1383  1.7265
   8523SM   H9T11343   5.026   6.586  10.531  3.2531 -0.8479 -1.5904
   8523SM  C10S11344   4.904   6.770  10.580 -0.1898  0.5818 -0.3689
   8523SM  H10S11345   4.801   6.730  10.573 -0.0473  0.0385  0.5072
   8523SM  H10T11346   4.906   6.878  10.554  0.4613  0.4447 -0.9371
   8523SM  C11S11347   4.926   6.748  10.734  0.0616  0.0423 -0.1002
   8523SM  H11S11348   5.013   6.809  10.767  2.1800 -1.7797 -2.0206
   8523SM  H11T11349   4.932   6.638  10.744 -1.7456  0.0692  2.1969
   8523SM  C12S11350   4.811   6.804  10.818 -0.1905 -0.6138 -0.2575
   8523SM  H12S11351   4.725   6.734  10.814 -0.9846 -0.0207  3.1426
   8523SM  H12T11352   4.776   6.898  10.772  0.5188 -0.4144 -0.4006
   8523SM  C13S11353   4.855   6.852  10.959  0.4162 -0.0911 -0.5574
   8523SM  H13S11354   4.767   6.906  11.000 -0.0778 -2.1257  1.2429
   8523SM  H13T11355   4.931   6.930  10.935 -0.4813  1.2345  0.7244
   8523SM  C14S11356   4.900   6.736  11.050  0.3548 -0.4500 -0.6007
   8523SM  H14S11357   5.006   6.713  11.025 -0.3567 -1.6064 -2.7779
   8523SM  H14T11358   4.860   6.634  11.032 -0.5838 -0.0781 -0.6527
   8523SM  C15S11359   4.885   6.751  11.204  0.6843 -0.7148  0.5372
   8523SM  H15S11360   4.949   6.840  11.224  0.0128 -0.3819  1.2642
   8523SM  H15T11361   4.922   6.664  11.264  0.7853 -0.5998  0.6420
   8523SM  C16S11362   4.745   6.789  11.257 -0.5665  0.0037  0.5372
   8523SM  H16S11363   4.714   6.885  11.210 -3.6584 -0.0969  2.1000
   8523SM  H16T11364   4.754   6.785  11.368 -0.5516  0.4127  0.5513
   8523SM  C17S11365   4.630   6.681  11.226 -0.1577  0.6851 -0.4129
   8523SM  H17S11366   4.662   6.586  11.273 -3.5893 -1.1742 -1.4821
   8523SM  H17T11367   4.641   6.680  11.116  2.4155  0.2574 -0.2180
   8523SM  C18S11368   4.477   6.701  11.267 -0.7368  0.1799 -0.0616
   8523SM  H18S11369   4.425   6.769  11.196 -0.0200  0.0301 -0.7428
   8523SM  H18T11370   4.462   6.748  11.366 -2.0777  1.8902 -1.0261
   8523SM  H18U11371   4.428   6.600  11.269 -3.2995  1.3311  2.1241
   8523SM   C1F11372   5.525   6.201  10.449  0.4608  0.2785  0.0805
   8523SM    OF11373   5.649   6.197  10.455 -0.2454  0.4115 -0.4650
   8523SM   C2F11374   5.441   6.133  10.550  0.0108 -0.0925 -0.6127
   8523SM   H2F11375   5.398   6.039  10.510  0.1120 -0.1725 -0.5310
   8523SM   H2G11376   5.356   6.199  10.580 -2.4247 -3.7825  1.4931
   8523SM   C3F11377   5.532   6.085  10.668  0.1122  0.5436  0.3281
   8523SM   H3F11378   5.590   6.166  10.716  0.1023  0.0997  1.1199
   8523SM   H3G11379   5.609   6.018  10.622 -2.2797 -2.2292  0.0425
   8523SM   C4F11380   5.456   6.002  10.773  0.4482 -0.3792 -0.0614
   8523SM   H4F11381   5.401   5.919  10.723  0.1822 -1.3631  1.7913
   8523SM   H4G11382   5.383   6.075  10.812  3.1748  3.2656 -1.1931
   8523SM   C5F11383   5.540   5.938  10.879 -0.3421  0.1463 -0.3616
   8523SM   H5F11384   5.592   5.859  10.820  0.6005  0.4690  0.0276
   8523SM   H5G11385   5.471   5.886  10.949 -0.4702 -1.1794 -1.4301
   8523SM   C6F11386   5.642   6.024  10.951 -0.2593 -0.4179  0.3636
   8523SM   H6F11387   5.687   6.088  10.873 -0.0400 -1.3449 -0.2904
   8523SM   H6G11388   5.732   5.965  10.981  0.4228  0.2076 -0.4158
   8523SM   C7F11389   5.582   6.109  11.061 -0.5614 -0.1044  0.1216
   8523SM   H7F11390   5.503   6.070  11.129 -0.5607 -0.4199 -0.0572
   8523SM   H7G11391   5.532   6.188  11.001 -0.5885 -1.3129 -1.5106
   8523SM   C8F11392   5.680   6.182  11.158 -1.1504  0.3281 -0.0761
   8523SM   H8F11393   5.631   6.267  11.210 -1.1840 -0.3853  1.1089
   8523SM   H8G11394   5.768   6.206  11.095 -1.6923 -0.7860 -1.3169
   8523SM   C9F11395   5.701   6.090  11.278  0.7420  0.0076 -0.5907
   8523SM   H9F11396   5.747   5.997  11.239  2.5370  0.8550 -0.5999
   8523SM   H9G11397   5.603   6.061  11.323  1.4737 -1.1379  0.3188
   8523SM  C10F11398   5.781   6.160  11.388  0.3171  0.1674 -0.1913
   8523SM  H10F11399   5.740   6.262  11.407 -0.2751 -0.0613 -0.2502
   8523SM  H10G11400   5.887   6.177  11.358  0.4672 -1.2501 -0.5333
   8523SM  C11F11401   5.792   6.077  11.511  0.0973  0.0136 -0.0827
   8523SM  H11F11402   5.846   5.987  11.476  0.8343  0.5675 -0.3932
   8523SM  H11G11403   5.692   6.062  11.556  0.3221  1.0491  0.8298
   8523SM  C12F11404   5.868   6.148  11.633 -0.6674  0.3089 -0.5431
   8523SM  H12F11405   5.808   6.230  11.678 -0.0788 -1.2781  3.5241
   8523SM  H12G11406   5.967   6.180  11.596  0.3914  1.7872  3.1440
   8523SM  C13F11407   5.898   6.038  11.738 -0.7176 -0.2305  1.0360
   8523SM  H13F11408   5.983   6.073  11.800 -0.5152  0.3694  0.4420
   8523SM  H13G11409   5.935   5.941  11.700  0.4790  0.4542  0.3784
   8523SM  C14F11410   5.788   6.018  11.836  0.1109 -0.7497 -0.2874
   8523SM  H14F11411   5.689   5.994  11.792 -0.5203 -1.6180  1.4653
   8523SM  H14G11412   5.774   6.114  11.889  1.2662  0.5009 -2.1615
   8523SM  C15F11413   5.819   5.919  11.949  0.2926  0.8705  0.3666
   8523SM  H15F11414   5.859   5.828  11.899  2.0366  0.4357  2.4137
   8523SM  H15G11415   5.723   5.884  11.992  0.1681 -0.7115 -1.0890
   8523SM  C16F11416   5.906   5.978  12.058  0.4153 -0.2964 -0.5987
   8523SM  H16F11417   5.845   6.062  12.097 -1.4649 -0.8960 -2.0950
   8523SM  H16G11418   6.003   6.010  12.016  0.0691 -1.2630 -2.2079
   8523SM  C17F11419   5.945   5.874  12.169  0.1462  0.1136 -0.1958
   8523SM  H17F11420   6.024   5.905  12.240  0.0397 -1.4801  0.6739
   8523SM  H17G11421   5.987   5.791  12.108  1.1197  0.8439 -0.5491
   8523SM  C18F11422   5.826   5.821  12.249  0.1603 -0.6002  1.0199
   8523SM  H18F11423   5.755   5.776  12.177  0.0348  0.6289  0.3470
   8523SM  H18G11424   5.772   5.914  12.278 -1.1451 -0.9461 -0.1615
   8523SM  C19F11425   5.866   5.728  12.357 -0.0983  0.8572 -0.3415
   8523SM  H19F11426   5.961   5.765  12.403 -0.0548  0.0095  0.2758
   8523SM  H19G11427   5.904   5.633  12.315  0.6604  1.1655 -0.3691
   8523SM  C20F11428   5.766   5.718  12.480  0.2256 -0.2580  0.4542
   8523SM  H20F11429   5.795   5.641  12.555  0.9745  0.9629  1.4651
   8523SM  H20G11430   5.676   5.672  12.435  1.8237 -3.4669  0.2744
   8523SM  C21F11431   5.747   5.852  12.554  0.2689  0.2569  0.0046
   8523SM  H21F11432   5.694   5.925  12.489  0.8589  1.8862  1.2828
   8523SM  H21G11433   5.845   5.898  12.577 -0.1310  0.0157  2.4605
   8523SM  C22F11434   5.659   5.844  12.689 -0.5122  0.4531  0.2197
   8523SM  H22F11435   5.690   5.942  12.731 -1.2184  0.0188  1.8236
   8523SM  H22G11436   5.700   5.771  12.763  0.8737  1.0369  0.0603
   8523SM  C23F11437   5.503   5.829  12.660 -0.5207  0.4749  0.5750
   8523SM  H23F11438   5.443   5.814  12.753  0.2702  1.6262  1.2996
   8523SM  H23G11439   5.492   5.742  12.591 -0.2531  1.9210 -1.3464
   8523SM  H23H11440   5.464   5.910  12.596  0.6800  0.7320  0.1326
   8623SM     N11441   2.694   4.112   9.259  0.5415 -0.9739  0.0505
   8623SM   C1511442   2.571   4.157   9.335 -0.6340  0.6479 -0.1368
   8623SM  H15A11443   2.498   4.078   9.338  1.9663 -1.9401  2.7176
   8623SM  H15B11444   2.529   4.249   9.298  0.3304  1.4107  0.5888
   8623SM  H15C11445   2.600   4.182   9.436  1.5446 -0.4634 -0.4274
   8623SM   C1411446   2.747   3.991   9.314 -0.3792  0.6222 -0.4481
   8623SM  H14A11447   2.837   3.961   9.263  0.7719  0.3233  1.6264
   8623SM  H14B11448   2.680   3.906   9.321  0.2574  0.2385  1.7705
   8623SM  H14C11449   2.793   4.016   9.409 -0.0392 -0.0142 -0.4397
   8623SM   C1311450   2.654   4.086   9.122 -0.2074 -0.0118  0.7880
   8623SM  H13A11451   2.576   4.012   9.117  0.0253 -0.1818 -0.8932
   8623SM  H13B11452   2.732   4.043   9.061 -0.7433  3.0641 -2.3735
   8623SM  H13C11453   2.614   4.170   9.068  0.3300 -0.8709 -1.0436
   8623SM   C1211454   2.796   4.227   9.280  0.0226  0.2427 -0.3569
   8623SM  H12A11455   2.762   4.312   9.222  0.1774  1.7876  1.7019
   8623SM  H12B11456   2.888   4.188   9.240 -2.0103 -2.5885 -2.7159
   8623SM   C1111457   2.835   4.281   9.423 -0.0843 -0.3398 -0.4030
   8623SM  H11A11458   2.755   4.344   9.467 -0.1099 -0.3445 -0.4430
   8623SM  H11B11459   2.913   4.359   9.411  1.4559 -1.6429  0.7240
   8623SM     P11460   3.008   4.139   9.548 -0.0521 -0.1369  0.0859
   8623SM   O1311461   3.014   4.002   9.589 -0.0264  0.1142  0.1921
   8623SM   O1411462   3.096   4.179   9.442 -0.3189 -0.4095 -0.1009
   8623SM   O1111463   3.022   4.235   9.674 -0.2454 -0.7888  0.6817
   8623SM   O1211464   2.861   4.176   9.511  0.2026  0.3665 -0.6195
   8623SM   C1S11465   2.927   4.222   9.783  0.3141  0.3216  0.2999
   8623SM   H1S11466   2.924   4.122   9.831 -1.9694  1.3128  2.4581
   8623SM   H1T11467   2.825   4.242   9.745 -0.5575 -1.0673  1.7950
   8623SM    NF11468   2.898   4.320  10.010  0.1879  0.1495 -0.1475
   8623SM   HNF11469   2.817   4.367  10.045  0.1476 -0.6374  0.8781
   8623SM   C2S11470   2.954   4.346   9.876 -0.6884 -0.4228 -0.4297
   8623SM   H2S11471   3.063   4.363   9.886 -1.0747  0.5584  4.8852
   8623SM   C3S11472   2.895   4.475   9.806 -0.2498 -0.6874 -0.2022
   8623SM   H3S11473   2.785   4.469   9.813 -0.4553  1.5769 -0.5890
   8623SM    O311474   2.922   4.471   9.666  0.0201 -0.1117  0.1548
   8623SM   HO311475   2.968   4.387   9.663  1.2667  0.5589 -1.8108
   8623SM   C4S11476   2.946   4.603   9.872 -0.7526  0.4902  0.0156
   8623SM   H4S11477   2.861   4.649   9.925  0.4398  1.2466  1.3291
   8623SM   C5S11478   3.066   4.661   9.879 -0.4459  0.2020 -0.0477
   8623SM   H5S11479   3.157   4.605   9.852 -0.9295  0.4184 -2.3062
   8623SM   C6S11480   3.080   4.787   9.962  0.1299  0.1079  0.4453
   8623SM   H6S11481   2.977   4.824   9.983 -0.0493 -0.2481  0.2019
   8623SM   H6T11482   3.133   4.852   9.890  0.9375  0.4148  1.3033
   8623SM   C7S11483   3.158   4.770  10.094 -0.4523  0.8174 -0.5811
   8623SM   H7S11484   3.161   4.867  10.149 -0.1414  0.9228 -0.7780
   8623SM   H7T11485   3.260   4.728  10.078 -0.1395 -0.0158  2.8294
   8623SM   C8S11486   3.074   4.692  10.189  0.5100  0.0178  0.6176
   8623SM   H8S11487   3.060   4.595  10.137  2.3189  1.6176 -3.1863
   8623SM   H8T11488   2.972   4.736  10.193  0.4443 -0.0714  0.0261
   8623SM   C9S11489   3.137   4.679  10.324 -0.3149 -1.1229  0.4489
   8623SM   H9S11490   3.157   4.773  10.381  0.0576 -2.5961  2.9299
   8623SM   H9T11491   3.238   4.635  10.309  0.1280 -0.1156  0.4337
   8623SM  C10S11492   3.051   4.584  10.411 -0.0840  0.5432 -0.2386
   8623SM  H10S11493   3.102   4.568  10.509 -2.1723 -4.1690  0.3286
   8623SM  H10T11494   3.034   4.487  10.360 -1.6573  0.6331  0.0920
   8623SM  C11S11495   2.920   4.637  10.452 -0.2159 -0.4646 -0.5157
   8623SM  H11S11496   2.856   4.659  10.365 -2.1239  1.4720  1.2464
   8623SM  H11T11497   2.950   4.734  10.498  1.3299 -0.4101 -1.5608
   8623SM  C12S11498   2.850   4.538  10.549  0.2817  0.3506 -0.7270
   8623SM  H12S11499   2.907   4.542  10.644  0.4962 -1.0893 -0.7749
   8623SM  H12T11500   2.867   4.431  10.525  1.4514  0.3683 -0.0203
   8623SM  C13S11501   2.700   4.560  10.585  0.2739 -0.5937 -0.2026
   8623SM  H13S11502   2.641   4.532  10.495 -1.4744  2.6922 -0.2407
   8623SM  H13T11503   2.686   4.668  10.607 -1.8115 -0.3369 -2.3941
   8623SM  C14S11504   2.657   4.483  10.709 -0.3289  0.2439 -0.0873
   8623SM  H14S11505   2.705   4.526  10.799 -0.5981  0.7268 -0.1680
   8623SM  H14T11506   2.684   4.377  10.689 -2.6349 -0.2749 -0.8578
   8623SM  C15S11507   2.503   4.497  10.739 -0.3627  0.1533 -0.2543
   8623SM  H15S11508   2.448   4.461  10.649  2.4349 -0.3386 -1.9077
   8623SM  H15T11509   2.455   4.595  10.761 -1.1044 -0.8032  2.7525
   8623SM  C16S11510   2.444   4.400  10.850 -0.4583 -0.0167  0.2245
   8623SM  H16S11511   2.490   4.301  10.830  0.6164  0.0633  2.0399
   8623SM  H16T11512   2.336   4.379  10.837 -0.6607  1.0902 -0.0155
   8623SM  C17S11513   2.471   4.449  10.995  0.2865 -0.5853  0.3502
   8623SM  H17S11514   2.420   4.546  11.009  0.5066 -0.5958  1.2865
   8623SM  H17T11515   2.581   4.466  10.994  0.3340 -0.8410 -0.9851
   8623SM  C18S11516   2.420   4.354  11.102 -0.0699 -0.7151 -0.0182
   8623SM  H18S11517   2.454   4.381  11.204 -0.2108 -1.4573  0.2323
   8623SM  H18T11518   2.469   4.259  11.071  1.3115 -0.5037  1.4111
   8623SM  H18U11519   2.309   4.356  11.107 -0.1263 -0.3463 -1.0463
   8623SM   C1F11520   2.957   4.243  10.092 -0.4439  0.5722 -0.7420
   8623SM    OF11521   3.058   4.176  10.062  0.5254  0.5695 -0.3431
   8623SM   C2F11522   2.913   4.235  10.236 -0.1816  0.0645 -0.0304
   8623SM   H2F11523   2.825   4.298  10.258  0.1823  0.2146  1.0933
   8623SM   H2G11524   2.993   4.282  10.297 -1.3912  0.9544  0.8886
   8623SM   C3F11525   2.919   4.091  10.303  0.1667  0.0028  0.3012
   8623SM   H3F11526   3.023   4.053  10.304 -0.0298 -0.5554  0.3071
   8623SM   H3G11527   2.868   4.013  10.241  0.1066  0.7409 -0.5877
   8623SM   C4F11528   2.873   4.107  10.450 -0.1760  0.1802  0.6120
   8623SM   H4F11529   2.779   4.166  10.458  1.6071  3.5385 -1.0964
   8623SM   H4G11530   2.947   4.167  10.507  0.6880  1.4541 -1.7302
   8623SM   C5F11531   2.833   3.977  10.522 -0.3610  0.6474  0.2700
   8623SM   H5F11532   2.764   3.993  10.607 -0.1784 -2.8386  1.2234
   8623SM   H5G11533   2.924   3.929  10.566 -0.2250 -0.5663 -1.2416
   8623SM   C6F11534   2.766   3.868  10.435 -0.5796 -0.4565  0.0247
   8623SM   H6F11535   2.832   3.828  10.354  0.2457 -0.8829  0.8859
   8623SM   H6G11536   2.676   3.907  10.383 -0.8957 -2.4797 -1.0661
   8623SM   C7F11537   2.724   3.754  10.527  0.3700 -0.2844  0.2256
   8623SM   H7F11538   2.650   3.791  10.601 -0.6082  3.2825 -2.2838
   8623SM   H7G11539   2.814   3.720  10.583 -0.3962 -0.4616  1.3977
   8623SM   C8F11540   2.669   3.628  10.451 -0.0667 -0.2165 -0.2213
   8623SM   H8F11541   2.737   3.579  10.378 -1.5717 -1.9277 -0.5580
   8623SM   H8G11542   2.588   3.676  10.392 -0.3875  0.7086  0.9428
   8623SM   C9F11543   2.601   3.538  10.551  0.7629  0.4472 -0.2639
   8623SM   H9F11544   2.521   3.600  10.598 -1.4275 -1.1049 -1.7742
   8623SM   H9G11545   2.673   3.511  10.632  0.4033  0.5468  0.0947
   8623SM  C10F11546   2.531   3.415  10.491  0.4604 -0.0905 -0.8398
   8623SM  H10F11547   2.604   3.345  10.445  0.4392 -1.2821  0.8813
   8623SM  H10G11548   2.474   3.455  10.403 -0.5913  1.2753  0.4068
   8623SM  C11F11549   2.440   3.346  10.595  0.0538 -0.7488  0.1958
   8623SM  H11F11550   2.360   3.291  10.543 -0.5156 -1.5551  1.8720
   8623SM  H11G11551   2.393   3.422  10.662  0.7457 -0.8890  0.8539
   8623SM  C12F11552   2.512   3.233  10.667 -0.1237  0.4777 -0.9542
   8623SM  H12F11553   2.605   3.277  10.708  1.4250 -2.0830 -1.4791
   8623SM  H12G11554   2.550   3.153  10.600 -1.7014 -1.2989  0.1606
   8623SM  C13F11555   2.425   3.161  10.779 -0.1146 -0.3356 -0.2405
   8623SM  H13F11556   2.322   3.194  10.753 -0.1567 -1.2554 -1.2942
   8623SM  H13G11557   2.460   3.204  10.875  0.5929  0.2467 -0.7443
   8623SM  C14F11558   2.447   3.010  10.787  0.0454 -0.8111  0.5035
   8623SM  H14F11559   2.552   2.989  10.816  0.8995  2.7217  0.4274
   8623SM  H14G11560   2.435   2.970  10.684  0.5040  1.8457 -0.6834
   8623SM  C15F11561   2.366   2.936  10.897 -0.6077  0.2344 -0.0520
   8623SM  H15F11562   2.399   2.830  10.894 -0.9805  0.1255 -2.6592
   8623SM  H15G11563   2.261   2.920  10.866 -0.4722 -0.0321 -0.3857
   8623SM  C16F11564   2.382   2.994  11.039  0.3232  0.0227 -0.0346
   8623SM  H16F11565   2.366   3.104  11.033  1.1462  0.2314  1.1731
   8623SM  H16G11566   2.488   2.983  11.070  0.1149  0.5965  0.9464
   8623SM  C17F11567   2.297   2.923  11.144  0.8805 -0.3705  0.2395
   8623SM  H17F11568   2.298   2.814  11.122 -1.6613 -0.3486 -0.2071
   8623SM  H17G11569   2.194   2.963  11.148 -0.8996 -4.3681 -0.3076
   8623SM  C18F11570   2.344   2.935  11.288 -0.5170 -0.4121 -0.2758
   8623SM  H18F11571   2.352   3.045  11.303 -1.8998 -0.1144 -1.5057
   8623SM  H18G11572   2.445   2.889  11.291  0.4582  1.5494 -1.5615
   8623SM  C19F11573   2.247   2.883  11.397 -0.6872  0.8593  0.4187
   8623SM  H19F11574   2.236   2.772  11.397  0.7454  0.6727  1.5211
   8623SM  H19G11575   2.143   2.911  11.372 -1.6317 -2.6739 -0.2788
   8623SM  C20F11576   2.290   2.927  11.534  0.1907  0.1225  0.0080
   8623SM  H20F11577   2.274   3.037  11.527  1.4916  0.6178  3.3309
   8623SM  H20G11578   2.399   2.910  11.548  0.1980 -0.4568 -0.6880
   8623SM  C21F11579   2.201   2.877  11.651  0.2232  1.1602 -0.5243
   8623SM  H21F11580   2.096   2.885  11.617 -0.0305 -1.3227 -0.4663
   8623SM  H21G11581   2.206   2.949  11.736 -0.4481  1.4892 -0.7586
   8623SM  C22F11582   2.233   2.735  11.695  0.6523  0.0732  0.1421
   8623SM  H22F11583   2.335   2.731  11.738 -0.5375 -1.0976  3.1608
   8623SM  H22G11584   2.232   2.676  11.601  2.0162 -1.7355  1.1867
   8623SM  C23F11585   2.128   2.680  11.793 -0.0652 -0.4199 -0.1704
   8623SM  H23F11586   2.034   2.729  11.762  1.5970  3.2366  0.0096
   8623SM  H23G11587   2.161   2.721  11.891  0.3500 -0.1049 -0.4400
   8623SM  H23H11588   2.113   2.570  11.806 -0.7638 -0.1011  2.1830
   8723SM     N11589   3.906   3.946   9.358  0.2014 -0.0852  0.2858
   8723SM   C1511590   3.949   4.083   9.406 -0.1999  0.4004  0.1280
   8723SM  H15A11591   3.973   4.068   9.511  0.0210  0.6897  0.1205
   8723SM  H15B11592   3.862   4.147   9.401  0.3137  1.1359  0.4241
   8723SM  H15C11593   4.028   4.127   9.347 -0.0240  1.1851  0.9290
   8723SM   C1411594   3.841   3.951   9.228 -0.6146 -0.5297  0.5820
   8723SM  H14A11595   3.815   3.857   9.182  2.5265 -1.1932 -0.0988
   8723SM  H14B11596   3.899   3.992   9.146 -1.4454 -1.8230 -0.7089
   8723SM  H14C11597   3.747   4.004   9.233 -0.5633  0.1027 -2.5937
   8723SM   C1311598   4.028   3.862   9.348  0.2830 -0.7712  0.2958
   8723SM  H13A11599   4.088   3.868   9.437 -0.9224 -0.7421  1.1263
   8723SM  H13B11600   4.091   3.894   9.266  0.7414 -0.1738  0.8751
   8723SM  H13C11601   4.008   3.756   9.349  0.1169 -0.7478  1.5807
   8723SM   C1211602   3.811   3.891   9.457  0.2086 -0.0974 -0.1246
   8723SM  H12A11603   3.861   3.864   9.549  0.0517  1.2341  0.3736
   8723SM  H12B11604   3.753   3.806   9.422 -0.8013  0.7451 -0.5421
   8723SM   C1111605   3.697   3.987   9.517 -0.4640 -0.2467  0.1724
   8723SM  H11A11606   3.744   4.054   9.592 -0.4765  3.1145 -2.5745
   8723SM  H11B11607   3.626   3.930   9.580  0.2799 -1.3301  0.0661
   8723SM     P11608   3.605   4.215   9.432  0.1366  0.3214  0.3402
   8723SM   O1311609   3.728   4.291   9.423  0.0710 -0.3129 -0.4685
   8723SM   O1411610   3.501   4.261   9.341  0.3771  0.4177 -0.1137
   8723SM   O1111611   3.551   4.231   9.581  0.3568 -0.1367 -0.4878
   8723SM   O1211612   3.632   4.063   9.414 -0.3023 -0.4795  0.4082
   8723SM   C1S11613   3.418   4.173   9.607  0.0702  0.7424  0.0168
   8723SM   H1S11614   3.421   4.073   9.559  1.0122  0.7076  0.1331
   8723SM   H1T11615   3.332   4.234   9.571  0.2819  1.1910  0.2644
   8723SM    NF11616   3.281   4.073   9.793 -0.4206 -0.4562 -0.0563
   8723SM   HNF11617   3.201   4.105   9.843 -1.4299  0.0936 -1.9541
   8723SM   C2S11618   3.385   4.175   9.760  0.3796  0.5111 -0.4712
   8723SM   H2S11619   3.480   4.150   9.811  0.7151  0.8442 -0.9294
   8723SM   C3S11620   3.365   4.323   9.814  0.2501  0.3274 -0.5495
   8723SM   H3S11621   3.269   4.357   9.770 -0.0318 -0.5016 -0.6017
   8723SM    O311622   3.456   4.412   9.753  0.2609 -0.5695  0.3754
   8723SM   HO311623   3.497   4.359   9.684 -0.8859 -2.3694  1.0060
   8723SM   C4S11624   3.374   4.321   9.969  0.8827  0.1751  0.1228
   8723SM   H4S11625   3.283   4.283  10.017  0.0972 -1.5559 -2.5296
   8723SM   C5S11626   3.477   4.370  10.041 -0.3073  0.0929  0.2429
   8723SM   H5S11627   3.559   4.421   9.988 -1.0468 -0.2246 -1.2568
   8723SM   C6S11628   3.474   4.378  10.195 -0.7387  0.5897 -0.2514
   8723SM   H6S11629   3.515   4.477  10.223  0.9388 -0.0842 -0.1879
   8723SM   H6T11630   3.547   4.305  10.237 -2.2109 -0.4377  0.6331
   8723SM   C7S11631   3.348   4.344  10.267 -0.0061  0.4412  0.0294
   8723SM   H7S11632   3.325   4.238  10.242 -0.4509  0.7795 -1.0189
   8723SM   H7T11633   3.274   4.412  10.221 -1.3105 -1.3809 -0.6714
   8723SM   C8S11634   3.371   4.367  10.413  0.4821  0.4400 -0.0709
   8723SM   H8S11635   3.392   4.476  10.418 -0.7365  0.7667 -1.5396
   8723SM   H8T11636   3.468   4.319  10.439  0.3234  0.6394  0.9469
   8723SM   C9S11637   3.270   4.311  10.509  0.0609  0.2905 -0.2253
   8723SM   H9S11638   3.259   4.201  10.498  2.1113  0.1047 -0.8337
   8723SM   H9T11639   3.169   4.354  10.490  0.9516  2.1165 -1.0171
   8723SM  C10S11640   3.302   4.333  10.658 -0.2475  0.4331 -0.4814
   8723SM  H10S11641   3.309   4.440  10.687  1.0281 -0.3067  2.1604
   8723SM  H10T11642   3.406   4.298  10.672  0.0480  0.4563 -2.3009
   8723SM  C11S11643   3.203   4.255  10.758  0.0895 -0.2175  0.5550
   8723SM  H11S11644   3.240   4.273  10.861 -0.3937  0.3389  0.6408
   8723SM  H11T11645   3.206   4.147  10.734 -1.0275 -0.2752  0.6447
   8723SM  C12S11646   3.053   4.290  10.765  0.0185  0.0679 -0.5163
   8723SM  H12S11647   3.003   4.272  10.668 -1.9738 -0.9561  0.6172
   8723SM  H12T11648   3.043   4.398  10.788 -0.6826 -0.2271  0.6738
   8723SM  C13S11649   2.981   4.203  10.872  0.1481  0.1584  0.0543
   8723SM  H13S11650   3.021   4.227  10.973 -1.9889  0.0803  0.9810
   8723SM  H13T11651   3.014   4.100  10.846  0.0935  0.1030  0.2049
   8723SM  C14S11652   2.826   4.233  10.880 -0.9901  0.1356  0.4171
   8723SM  H14S11653   2.772   4.205  10.787  2.2355  0.5281 -1.7452
   8723SM  H14T11654   2.825   4.342  10.904  1.9606  0.3472 -0.0186
   8723SM  C15S11655   2.755   4.166  10.999 -0.2253 -0.0762 -0.5256
   8723SM  H15S11656   2.679   4.232  11.046  1.2263  1.1322  0.2284
   8723SM  H15T11657   2.831   4.163  11.080 -0.0189  0.5955 -0.6841
   8723SM  C16S11658   2.692   4.026  10.970  0.0174  0.4924 -0.1537
   8723SM  H16S11659   2.783   3.976  10.930 -0.4695 -1.1371  0.6906
   8723SM  H16T11660   2.609   4.010  10.898  0.3993 -4.1444  0.1458
   8723SM  C17S11661   2.651   3.966  11.106  0.7242  0.1919  0.2375
   8723SM  H17S11662   2.579   4.044  11.138 -0.2132 -0.3648 -0.4932
   8723SM  H17T11663   2.733   3.965  11.182  0.0928 -0.9719  0.9283
   8723SM  C18S11664   2.587   3.823  11.085 -0.4121 -0.1282 -0.3293
   8723SM  H18S11665   2.556   3.785  11.185 -0.9152  0.1460 -0.3747
   8723SM  H18T11666   2.663   3.757  11.039 -1.2127  0.0735 -2.0059
   8723SM  H18U11667   2.487   3.826  11.036 -0.8497 -0.4797  0.5111
   8723SM   C1F11668   3.302   3.946   9.782 -0.5949  0.4540 -0.0136
   8723SM    OF11669   3.404   3.897   9.733  0.1725  0.7707 -0.2630
   8723SM   C2F11670   3.202   3.858   9.847 -0.7029 -0.7511  0.2469
   8723SM   H2F11671   3.222   3.751   9.824 -2.2155 -1.1714  0.7637
   8723SM   H2G11672   3.101   3.887   9.810 -0.5899  0.4291  0.7972
   8723SM   C3F11673   3.213   3.875  10.002  1.0448  0.0602  0.1308
   8723SM   H3F11674   3.169   3.972  10.031 -0.2032  0.2272 -2.0583
   8723SM   H3G11675   3.322   3.868  10.025  1.2489  0.4851 -0.6542
   8723SM   C4F11676   3.128   3.774  10.086 -0.0821 -0.1375  0.1349
   8723SM   H4F11677   3.144   3.673  10.043 -0.4288  0.0824 -0.5327
   8723SM   H4G11678   3.020   3.798  10.083 -0.0684  0.1221  1.2441
   8723SM   C5F11679   3.184   3.776  10.227  0.2124 -0.4507  0.7507
   8723SM   H5F11680   3.181   3.879  10.268 -2.8854 -0.2808  0.3248
   8723SM   H5G11681   3.290   3.743  10.233  0.0360 -0.9682  1.0421
   8723SM   C6F11682   3.111   3.683  10.320 -0.0394  0.1991  0.1267
   8723SM   H6F11683   3.115   3.576  10.289 -0.8733 -0.4160  2.0102
   8723SM   H6G11684   3.004   3.707  10.302  0.2603  0.3403 -1.6693
   8723SM   C7F11685   3.162   3.686  10.461 -0.9167  0.1033 -0.0230
   8723SM   H7F11686   3.147   3.791  10.492 -3.7871  0.5386 -2.4299
   8723SM   H7G11687   3.267   3.650  10.463 -1.1036 -0.5149 -0.7248
   8723SM   C8F11688   3.089   3.588  10.554 -0.6093  0.1864  0.3269
   8723SM   H8F11689   3.120   3.485  10.528  0.6132  0.7256 -0.4738
   8723SM   H8G11690   2.981   3.595  10.529 -0.6009 -0.3235  0.1422
   8723SM   C9F11691   3.124   3.610  10.699 -0.0784  0.0378 -0.3038
   8723SM   H9F11692   3.063   3.549  10.770  1.6103 -1.7645 -0.3096
   8723SM   H9G11693   3.106   3.715  10.731  0.7894  0.3815 -0.9084
   8723SM  C10F11694   3.275   3.592  10.737  0.2691 -0.0152  0.7868
   8723SM  H10F11695   3.335   3.665  10.679 -2.0911  0.8808 -0.6653
   8723SM  H10G11696   3.310   3.495  10.694  1.5595 -0.1467  2.0559
   8723SM  C11F11697   3.312   3.579  10.883 -0.1655 -0.3325  0.6456
   8723SM  H11F11698   3.240   3.521  10.944 -2.1275  0.3355 -0.9025
   8723SM  H11G11699   3.311   3.682  10.924  3.1097 -0.0155  0.2077
   8723SM  C12F11700   3.464   3.544  10.904 -0.0339 -0.3415  0.2420
   8723SM  H12F11701   3.532   3.612  10.848 -0.9766  0.9649  0.6281
   8723SM  H12G11702   3.498   3.441  10.878  1.2802 -0.3249  1.7699
   8723SM  C13F11703   3.490   3.556  11.057  0.2984 -0.4120 -0.3530
   8723SM  H13F11704   3.412   3.504  11.117  0.0391  0.8601  0.4653
   8723SM  H13G11705   3.501   3.663  11.084  0.8052  0.2048 -2.8015
   8723SM  C14F11706   3.626   3.498  11.092 -0.1145  0.1878 -0.2228
   8723SM  H14F11707   3.702   3.550  11.029 -1.4355  1.0298 -1.1673
   8723SM  H14G11708   3.633   3.389  11.073  0.5773  0.1540  0.2088
   8723SM  C15F11709   3.663   3.521  11.239 -0.2989  0.4180 -0.1432
   8723SM  H15F11710   3.746   3.450  11.261  0.4696  1.3715  0.0717
   8723SM  H15G11711   3.583   3.498  11.313 -0.0704 -1.1013 -0.3230
   8723SM  C16F11712   3.726   3.654  11.250 -0.1762 -0.0564 -0.0020
   8723SM  H16F11713   3.674   3.722  11.179  1.1839  1.3663  0.2807
   8723SM  H16G11714   3.828   3.630  11.214 -0.7764 -0.3052 -1.6143
   8723SM  C17F11715   3.727   3.718  11.386  0.1433 -0.3607  0.4386
   8723SM  H17F11716   3.789   3.659  11.457 -1.5868  0.2372  2.5652
   8723SM  H17G11717   3.627   3.727  11.435  0.5355 -0.8467  1.3588
   8723SM  C18F11718   3.793   3.858  11.383 -0.3446  0.1410  0.5392
   8723SM  H18F11719   3.791   3.884  11.491 -1.2053 -0.6590  0.7282
   8723SM  H18G11720   3.735   3.946  11.347 -0.2301 -0.2018 -0.5255
   8723SM  C19F11721   3.935   3.851  11.332 -0.7420  0.3475 -0.2207
   8723SM  H19F11722   3.947   3.835  11.223 -2.8124 -1.0415 -0.2985
   8723SM  H19G11723   3.991   3.759  11.358  0.9323  0.9765 -1.4435
   8723SM  C20F11724   4.017   3.966  11.381 -0.0530  0.3035 -0.3377
   8723SM  H20F11725   4.017   3.982  11.491 -0.8934  1.5003 -0.4944
   8723SM  H20G11726   3.973   4.059  11.340 -0.3487  0.8768  1.2185
   8723SM  C21F11727   4.157   3.969  11.337 -0.3408  0.6732  0.5080
   8723SM  H21F11728   4.190   4.075  11.335 -0.6678  0.7683 -0.0377
   8723SM  H21G11729   4.167   3.935  11.231  0.6431  3.5292 -0.4303
   8723SM  C22F11730   4.261   3.911  11.429  0.5901 -0.1022 -0.6984
   8723SM  H22F11731   4.216   3.810  11.444 -0.8378  0.4527 -1.0372
   8723SM  H22G11732   4.252   3.962  11.527  0.1049  2.2811 -1.9055
   8723SM  C23F11733   4.403   3.902  11.369  0.2148  0.7619 -0.4185
   8723SM  H23F11734   4.464   3.855  11.449  1.1604  0.5907 -1.2122
   8723SM  H23G11735   4.446   4.003  11.350 -2.8401  2.3310  0.2978
   8723SM  H23H11736   4.402   3.843  11.274  0.0798  0.2201 -0.0837
   8823SM     N11737   0.170   4.187   9.002  0.4723  0.6415 -0.1733
   8823SM   C1511738   0.191   4.099   8.881 -0.2189  0.2392 -0.2893
   8823SM  H15A11739   0.096   4.068   8.839 -0.9463  0.6504  1.0012
   8823SM  H15B11740   0.240   4.005   8.900 -1.0589 -0.3499 -0.9914
   8823SM  H15C11741   0.240   4.150   8.799 -0.1509 -0.9525 -1.0199
   8823SM   C1411742   0.302   4.218   9.077  0.6975 -0.1111  0.1948
   8823SM  H14A11743   0.370   4.277   9.017  1.2256 -1.5543 -0.6682
   8823SM  H14B11744   0.343   4.125   9.113 -0.4858 -0.3947  0.8880
   8823SM  H14C11745   0.281   4.280   9.163 -0.5941  0.5258 -0.5443
   8823SM   C1311746   0.110   4.317   8.961 -0.0233 -0.0939 -0.6183
   8823SM  H13A11747   0.018   4.300   8.907  0.4703 -0.9530 -1.2349
   8823SM  H13B11748   0.171   4.377   8.895  2.0485 -1.1253  0.2578
   8823SM  H13C11749   0.091   4.381   9.046  2.6780  0.5501 -0.4031
   8823SM   C1211750   0.076   4.130   9.108  0.8070  0.3477 -0.4051
   8823SM  H12A11751  -0.026   4.141   9.073  0.8584 -0.4133 -0.8294
   8823SM  H12B11752   0.069   4.193   9.196  2.1107 -0.6728  0.4707
   8823SM   C1111753   0.099   3.987   9.159 -0.3220  0.1195  0.5968
   8823SM  H11A11754   0.103   3.923   9.068  0.4779 -1.4901  1.7285
   8823SM  H11B11755   0.014   3.946   9.217 -0.4743 -0.7992 -0.2429
   8823SM     P11756   0.219   4.028   9.380 -0.0331  0.3482  0.2233
   8823SM   O1311757   0.345   3.997   9.455  0.4591  0.0556 -0.2955
   8823SM   O1411758   0.173   4.165   9.392  0.1702  0.3044  0.0141
   8823SM   O1111759   0.104   3.929   9.429  0.2903  0.0981  0.1944
   8823SM   O1211760   0.228   3.989   9.224 -0.5068  0.5097  0.6565
   8823SM   C1S11761   0.099   3.884   9.566 -0.5280  0.0703  0.4645
   8823SM   H1S11762   0.197   3.907   9.616 -0.4641  1.7551 -0.3582
   8823SM   H1T11763   0.077   3.777   9.587 -0.6866  0.0894  0.3903
   8823SM    NF11764  -0.006   3.920   9.782 -0.3613 -0.5383  0.0898
   8823SM   HNF11765  -0.086   3.873   9.820 -0.2740 -0.8938 -0.1595
   8823SM   C2S11766  -0.014   3.961   9.644  0.0863 -0.2520 -0.1132
   8823SM   H2S11767   0.019   4.068   9.643  2.1767 -0.8490  0.6193
   8823SM   C3S11768  -0.152   3.954   9.577 -0.4336 -0.0526 -0.0746
   8823SM   H3S11769  -0.178   3.847   9.573 -1.1307  0.1023  0.1887
   8823SM    O311770  -0.147   4.002   9.438  0.1683 -0.4235 -0.2174
   8823SM   HO311771  -0.055   3.987   9.417  0.3069 -1.5829  1.1248
   8823SM   C4S11772  -0.268   4.013   9.656 -0.4053  0.5649 -0.2052
   8823SM   H4S11773  -0.316   3.941   9.723 -0.1297  1.2597  0.7639
   8823SM   C5S11774  -0.324   4.134   9.654  0.1979  0.0006 -0.1691
   8823SM   H5S11775  -0.299   4.200   9.570 -1.1122 -0.3465 -0.8464
   8823SM   C6S11776  -0.439   4.163   9.750 -0.0934 -0.2334  0.2041
   8823SM   H6S11777  -0.531   4.135   9.694 -1.0738  0.7158  1.2768
   8823SM   H6T11778  -0.452   4.273   9.758  2.4739  0.1118  0.4364
   8823SM   C7S11779  -0.445   4.100   9.891  0.3150 -0.0938  0.4644
   8823SM   H7S11780  -0.342   4.115   9.928  0.8582  1.8523 -1.6412
   8823SM   H7T11781  -0.464   3.990   9.891  1.4785 -0.3305  2.3490
   8823SM   C8S11782  -0.544   4.182   9.974 -0.2481 -0.4175 -0.9486
   8823SM   H8S11783  -0.553   4.286   9.935 -1.4985 -0.3705 -0.5700
   8823SM   H8T11784  -0.509   4.181  10.080 -1.6217 -2.9220 -0.4477
   8823SM   C9S11785  -0.682   4.120   9.969  0.7352  0.1339  0.0672
   8823SM   H9S11786  -0.699   4.066   9.873 -1.1555  0.2113  0.3138
   8823SM   H9T11787  -0.755   4.204   9.982  1.3376  0.8060 -0.7613
   8823SM  C10S11788  -0.685   3.997  10.061  0.2964 -0.5413 -0.2870
   8823SM  H10S11789  -0.662   4.034  10.163 -0.3435 -1.5225  0.2360
   8823SM  H10T11790  -0.613   3.919  10.029  3.5349  1.8643  0.5912
   8823SM  C11S11791  -0.828   3.938  10.078 -0.2744 -0.2414 -0.5306
   8823SM  H11S11792  -0.851   3.862  10.000 -0.0956  0.3996 -1.2187
   8823SM  H11T11793  -0.897   4.024  10.068  0.9848  0.7499 -1.0018
   8823SM  C12S11794  -0.851   3.859  10.207  0.3897  0.4544 -0.6510
   8823SM  H12S11795  -0.789   3.906  10.287  0.6324 -1.1201  0.1260
   8823SM  H12T11796  -0.796   3.764  10.187 -0.0932  0.1740 -0.6686
   8823SM  C13S11797  -0.998   3.818  10.234 -0.4375 -0.4418  0.3119
   8823SM  H13S11798  -1.007   3.739  10.156  2.1693 -0.1779 -0.3321
   8823SM  H13T11799  -1.059   3.909  10.212 -0.7844 -0.9217 -0.8040
   8823SM  C14S11800  -1.022   3.755  10.370 -0.1129  0.1790 -0.3704
   8823SM  H14S11801  -0.990   3.820  10.454  2.9370 -3.1177  1.3255
   8823SM  H14T11802  -0.965   3.660  10.367  1.1772  0.9039  0.3976
   8823SM  C15S11803  -1.169   3.716  10.399  0.0346 -0.6088  0.3353
   8823SM  H15S11804  -1.180   3.653  10.490  1.0214  0.4273  1.2113
   8823SM  H15T11805  -1.198   3.663  10.305  0.4976  0.3619 -0.3770
   8823SM  C16S11806  -1.250   3.849  10.409  0.5399 -0.4183  0.1084
   8823SM  H16S11807  -1.246   3.894  10.308  0.4559 -0.9482 -0.1302
   8823SM  H16T11808  -1.206   3.904  10.496 -1.9718 -1.8573  2.4521
   8823SM  C17S11809  -1.396   3.834  10.455  0.0998 -0.0404  0.4943
   8823SM  H17S11810  -1.399   3.765  10.542 -1.6801 -0.2231  0.3367
   8823SM  H17T11811  -1.450   3.781  10.373 -0.7629  0.6419  0.6038
   8823SM  C18S11812  -1.470   3.961  10.483 -0.9142  0.5139 -0.0573
   8823SM  H18S11813  -1.439   4.014  10.576 -1.0912  0.6731 -0.0873
   8823SM  H18T11814  -1.574   3.925  10.497  0.0363 -2.9777 -0.9120
   8823SM  H18U11815  -1.470   4.028  10.394 -0.9811  0.6941  0.0784
   8823SM   C1F11816   0.100   3.930   9.864 -0.2096  1.0361  0.0275
   8823SM    OF11817   0.195   4.002   9.835 -0.3070 -0.3766 -0.4805
   8823SM   C2F11818   0.091   3.843   9.988  0.2748 -0.3188 -0.3881
   8823SM   H2F11819   0.090   3.738   9.954  1.1003  0.2676 -2.3636
   8823SM   H2G11820  -0.003   3.870  10.040  0.4155 -1.4658  0.4974
   8823SM   C3F11821   0.211   3.865  10.081 -0.0904 -0.3564  0.2691
   8823SM   H3F11822   0.211   3.968  10.120  2.0111 -0.5742  1.0022
   8823SM   H3G11823   0.308   3.848  10.029  0.2635 -0.1997  0.8656
   8823SM   C4F11824   0.204   3.762  10.206  0.0516 -0.1112  0.8456
   8823SM   H4F11825   0.229   3.661  10.167  0.0147  0.6598 -1.3169
   8823SM   H4G11826   0.098   3.768  10.238 -1.0041  1.0545 -2.4610
   8823SM   C5F11827   0.305   3.794  10.322  0.4895  0.3832 -0.0483
   8823SM   H5F11828   0.276   3.894  10.361  0.2566 -0.2204  1.3673
   8823SM   H5G11829   0.407   3.807  10.280  0.0315  0.7292 -1.1016
   8823SM   C6F11830   0.308   3.675  10.421  0.9638  0.1488 -0.0186
   8823SM   H6F11831   0.302   3.583  10.359 -1.6698 -0.4793  1.0271
   8823SM   H6G11832   0.218   3.666  10.484 -1.1355 -3.3525 -3.1013
   8823SM   C7F11833   0.432   3.668  10.509  0.7866  0.8280  0.2961
   8823SM   H7F11834   0.445   3.760  10.571  1.3066  0.8259  0.1959
   8823SM   H7G11835   0.523   3.671  10.445  0.5754  0.2666 -0.0418
   8823SM   C8F11836   0.433   3.549  10.611  0.5128  0.1134  1.2839
   8823SM   H8F11837   0.409   3.459  10.551  1.7915 -0.1683  1.1680
   8823SM   H8G11838   0.338   3.565  10.667 -1.6857  1.3795 -2.4063
   8823SM   C9F11839   0.566   3.533  10.690 -0.1326 -0.1312  0.5256
   8823SM   H9F11840   0.598   3.635  10.721  0.5510 -0.3283  0.4697
   8823SM   H9G11841   0.644   3.494  10.623 -0.6188  0.0242 -0.1376
   8823SM  C10F11842   0.548   3.437  10.810 -0.8303  0.1915 -0.1520
   8823SM  H10F11843   0.525   3.338  10.766  1.1982  0.0495 -1.0199
   8823SM  H10G11844   0.469   3.475  10.878 -0.0608  0.7412  0.4514
   8823SM  C11F11845   0.689   3.422  10.889  0.4525 -0.6173  0.1550
   8823SM  H11F11846   0.709   3.514  10.947  0.6128 -1.7966  2.0634
   8823SM  H11G11847   0.769   3.411  10.812 -1.3343 -2.3765 -1.5805
   8823SM  C12F11848   0.703   3.287  10.968  0.0606  0.2997 -0.0742
   8823SM  H12F11849   0.806   3.258  10.996  0.0886  1.3938  1.0115
   8823SM  H12G11850   0.673   3.210  10.894 -1.1523 -0.3297  1.0166
   8823SM  C13F11851   0.600   3.266  11.081  0.3360 -0.3275 -0.4105
   8823SM  H13F11852   0.504   3.309  11.046 -0.3805 -1.3395  0.2618
   8823SM  H13G11853   0.629   3.328  11.168  2.2359  0.0051 -1.2399
   8823SM  C14F11854   0.576   3.119  11.128 -0.2597  0.3651  0.4094
   8823SM  H14F11855   0.671   3.072  11.159 -0.0166  0.7485  0.2547
   8823SM  H14G11856   0.542   3.056  11.043  0.7001 -0.6570  0.7740
   8823SM  C15F11857   0.475   3.132  11.249 -0.6592 -0.0456 -0.1021
   8823SM  H15F11858   0.388   3.190  11.210  0.2696  2.6665  1.6240
   8823SM  H15G11859   0.527   3.197  11.322 -2.1266 -0.0854  1.0316
   8823SM  C16F11860   0.442   2.994  11.301 -1.1306  0.2098  0.3098
   8823SM  H16F11861   0.527   2.923  11.298  1.2685  2.7139  3.0207
   8823SM  H16G11862   0.368   2.960  11.225  0.2332 -0.5208 -0.7312
   8823SM  C17F11863   0.361   3.010  11.431  0.5222  0.1155  0.9647
   8823SM  H17F11864   0.395   3.082  11.509  3.5314  0.1744 -0.2567
   8823SM  H17G11865   0.358   2.912  11.482  2.6304 -0.0943  0.7808
   8823SM  C18F11866   0.210   3.037  11.391 -0.6483 -0.3272 -0.4482
   8823SM  H18F11867   0.155   2.941  11.377 -2.8526  0.6567  0.8864
   8823SM  H18G11868   0.198   3.083  11.291  0.7230 -0.9209 -0.9007
   8823SM  C19F11869   0.137   3.108  11.508  0.4605 -0.4842  0.1864
   8823SM  H19F11870   0.198   3.195  11.540 -0.8448  0.3387  0.5118
   8823SM  H19G11871   0.133   3.036  11.593 -0.6653  0.1094  0.6560
   8823SM  C20F11872  -0.014   3.142  11.470  0.0203 -0.7730  0.1396
   8823SM  H20F11873  -0.054   3.168  11.570  3.5388 -1.0957  1.7880
   8823SM  H20G11874  -0.064   3.051  11.431  1.2510 -1.4428  0.0703
   8823SM  C21F11875  -0.038   3.256  11.368  0.5712  0.1495  0.7106
   8823SM  H21F11876  -0.001   3.225  11.268  1.6704 -0.5134  1.3022
   8823SM  H21G11877   0.015   3.351  11.391 -0.9827  1.1978  0.1638
   8823SM  C22F11878  -0.186   3.290  11.367  0.1178 -0.0290  0.4384
   8823SM  H22F11879  -0.217   3.343  11.460  1.3292  1.1409  0.1957
   8823SM  H22G11880  -0.243   3.195  11.355  0.0112 -0.0389  0.9643
   8823SM  C23F11881  -0.223   3.375  11.253  0.3799 -0.2730 -0.1308
   8823SM  H23F11882  -0.160   3.466  11.237 -1.2400  1.0127  0.5314
   8823SM  H23G11883  -0.324   3.414  11.277  1.1373 -0.2421  3.8426
   8823SM  H23H11884  -0.233   3.313  11.162  0.7813 -0.0510 -0.3302
   8923SM     N11885   4.115   5.282   9.620  0.0822  0.1928  0.0463
   8923SM   C1511886   4.013   5.300   9.725 -0.1826 -0.4759 -0.2204
   8923SM  H15A11887   3.928   5.244   9.688  0.9467 -1.7755 -0.9483
   8923SM  H15B11888   3.984   5.403   9.738 -4.3022 -1.5589  0.7058
   8923SM  H15C11889   4.046   5.269   9.823 -1.4656 -1.4046 -0.0549
   8923SM   C1411890   4.176   5.145   9.635  0.2507 -0.6572  0.0617
   8923SM  H14A11891   4.203   5.133   9.739 -0.6396 -0.6033  0.3001
   8923SM  H14B11892   4.264   5.142   9.572  0.8656  0.1855  0.8520
   8923SM  H14C11893   4.117   5.057   9.614  0.2004 -1.0424  1.6978
   8923SM   C1311894   4.063   5.295   9.482 -0.2495 -0.6390  0.4429
   8923SM  H13A11895   4.132   5.272   9.402 -1.1467 -0.7267 -0.3236
   8923SM  H13B11896   4.027   5.394   9.456 -0.9694 -1.4424 -1.8806
   8923SM  H13C11897   3.972   5.239   9.468 -1.0969  0.3219  1.8841
   8923SM   C1211898   4.231   5.379   9.644  0.3041 -0.3315 -0.3545
   8923SM  H12A11899   4.191   5.478   9.633  2.6162  1.3376  3.9472
   8923SM  H12B11900   4.311   5.363   9.573  2.0078 -0.1777  1.4748
   8923SM   C1111901   4.300   5.383   9.781  0.5546 -0.4321  0.1291
   8923SM  H11A11902   4.224   5.421   9.853  0.2451 -1.9570  0.6433
   8923SM  H11B11903   4.376   5.464   9.784 -0.4940  0.5674  2.1184
   8923SM     P11904   4.481   5.188   9.803 -0.4083 -0.0934  0.1148
   8923SM   O1311905   4.462   5.137   9.666  0.2894 -0.1127 -1.0994
   8923SM   O1411906   4.591   5.283   9.825 -0.6457 -0.1616 -0.2146
   8923SM   O1111907   4.492   5.065   9.906 -0.0449  0.3023 -0.3014
   8923SM   O1211908   4.346   5.261   9.841  0.0733 -0.6309 -0.3763
   8923SM   C1S11909   4.491   5.078  10.048  0.7761  0.2244  0.4843
   8923SM   H1S11910   4.442   5.174  10.074 -0.0171  0.5894 -2.0982
   8923SM   H1T11911   4.593   5.073  10.091  0.0176  0.9654  2.4636
   8923SM    NF11912   4.406   5.004  10.266  0.9104 -0.1504 -0.6440
   8923SM   HNF11913   4.453   4.945  10.332 -2.6993 -1.6225  0.8674
   8923SM   C2S11914   4.406   4.970  10.124 -0.3113 -0.4816 -0.2176
   8923SM   H2S11915   4.300   4.980  10.089 -0.6736 -2.3303  0.2687
   8923SM   C3S11916   4.451   4.829  10.082  0.4353 -0.2030  0.2333
   8923SM   H3S11917   4.558   4.821  10.112  0.1759 -0.8830  1.0220
   8923SM    O311918   4.444   4.811   9.940 -0.0182  0.0064 -0.0963
   8923SM   HO311919   4.456   4.897   9.899 -2.3316 -0.9440 -3.2074
   8923SM   C4S11920   4.361   4.730  10.148  0.1935  0.7100  0.2932
   8923SM   H4S11921   4.253   4.738  10.130  0.4017  1.4722 -0.6886
   8923SM   C5S11922   4.406   4.630  10.232 -0.3146 -0.0867 -0.7050
   8923SM   H5S11923   4.515   4.621  10.244 -0.2914 -0.0043 -0.8460
   8923SM   C6S11924   4.320   4.540  10.328 -0.0155  0.3932  0.5438
   8923SM   H6S11925   4.364   4.438  10.327  1.9216  1.1629  1.4659
   8923SM   H6T11926   4.219   4.549  10.282  1.3739  2.1301 -2.5099
   8923SM   C7S11927   4.320   4.596  10.469 -0.2053  0.0947 -0.4643
   8923SM   H7S11928   4.270   4.695  10.470  0.5049  0.5515 -2.8217
   8923SM   H7T11929   4.423   4.606  10.511  0.5391 -1.3839 -1.8261
   8923SM   C8S11930   4.243   4.493  10.566 -0.0713 -0.5453 -0.2120
   8923SM   H8S11931   4.148   4.476  10.511 -1.0394  1.9550  0.5577
   8923SM   H8T11932   4.231   4.552  10.659  1.2877  0.0541 -0.4003
   8923SM   C9S11933   4.321   4.359  10.594  0.5734 -0.0061 -0.6758
   8923SM   H9S11934   4.354   4.294  10.510  1.4059 -0.1596 -0.2328
   8923SM   H9T11935   4.250   4.299  10.655  1.1847 -0.7982 -0.7292
   8923SM  C10S11936   4.440   4.380  10.689 -0.0645  0.3213  0.2828
   8923SM  H10S11937   4.419   4.460  10.764 -0.2824 -0.9428  1.6042
   8923SM  H10T11938   4.526   4.420  10.630 -0.3691 -0.7130 -0.9016
   8923SM  C11S11939   4.478   4.252  10.766 -0.2751  0.2282 -0.1048
   8923SM  H11S11940   4.485   4.170  10.692  0.3646  1.0672 -0.9959
   8923SM  H11T11941   4.408   4.236  10.851  1.7838  2.6671  2.2605
   8923SM  C12S11942   4.621   4.269  10.818 -0.7324 -0.4344 -0.3445
   8923SM  H12S11943   4.636   4.366  10.870  0.1878  0.9744 -3.0782
   8923SM  H12T11944   4.683   4.263  10.726 -2.5037  1.2108 -1.7148
   8923SM  C13S11945   4.668   4.158  10.915 -0.0014  0.2082 -0.6736
   8923SM  H13S11946   4.771   4.135  10.880  0.7348  2.0451  0.1822
   8923SM  H13T11947   4.611   4.063  10.905  0.2408  0.0571 -0.6197
   8923SM  C14S11948   4.653   4.203  11.062  0.1916 -0.0795 -0.2610
   8923SM  H14S11949   4.725   4.286  11.082  0.6818  0.0421 -2.2922
   8923SM  H14T11950   4.693   4.120  11.124  2.1445 -0.1753 -1.5562
   8923SM  C15S11951   4.512   4.236  11.127 -0.3389  0.6144  0.8993
   8923SM  H15S11952   4.443   4.152  11.104  0.1468  0.2604  0.7096
   8923SM  H15T11953   4.481   4.331  11.078 -0.9744 -0.1749 -0.2876
   8923SM  C16S11954   4.519   4.262  11.279  0.3195  1.1224  0.2917
   8923SM  H16S11955   4.579   4.180  11.325  1.5549  1.5797 -0.4597
   8923SM  H16T11956   4.416   4.271  11.320  0.4639  0.5581  0.7964
   8923SM  C17S11957   4.593   4.393  11.313 -0.1523 -0.3344 -0.0937
   8923SM  H17S11958   4.554   4.482  11.259 -1.5282 -0.3727  0.7976
   8923SM  H17T11959   4.702   4.375  11.297 -0.0877  0.1466 -0.2109
   8923SM  C18S11960   4.560   4.433  11.452  0.0496  1.2022 -0.4988
   8923SM  H18S11961   4.645   4.489  11.496  1.6023 -1.6918  0.4441
   8923SM  H18T11962   4.540   4.337  11.505 -1.4866  1.1550 -1.1060
   8923SM  H18U11963   4.461   4.484  11.458  0.3157  1.9000 -1.6652
   8923SM   C1F11964   4.342   5.111  10.316 -0.2353  0.1004  0.1021
   8923SM    OF11965   4.275   5.193  10.246  0.3529  0.1546 -0.0305
   8923SM   C2F11966   4.367   5.145  10.450  0.0035  0.4042 -1.0006
   8923SM   H2F11967   4.444   5.224  10.463  1.7565 -1.1848 -1.3302
   8923SM   H2G11968   4.407   5.060  10.509 -0.9550  0.3768 -0.3582
   8923SM   C3F11969   4.231   5.184  10.520 -0.4257 -0.7870  0.0217
   8923SM   H3F11970   4.190   5.267  10.459  1.8590  0.4202  0.0201
   8923SM   H3G11971   4.235   5.229  10.621  0.2699  0.4612 -0.5428
   8923SM   C4F11972   4.113   5.079  10.518  0.7081 -0.2458 -0.1274
   8923SM   H4F11973   4.099   5.036  10.417  0.0392 -0.9045  0.2383
   8923SM   H4G11974   4.021   5.122  10.563  1.6770 -0.5303  2.3110
   8923SM   C5F11975   4.157   4.950  10.595  0.0475  0.1571  0.0382
   8923SM   H5F11976   4.246   4.916  10.538 -0.0434  0.3716 -0.2322
   8923SM   H5G11977   4.071   4.880  10.581 -0.5274  0.7653  0.4698
   8923SM   C6F11978   4.192   4.964  10.742  0.0301  0.4214 -0.0460
   8923SM   H6F11979   4.103   5.013  10.787  1.4765  0.5792  2.8883
   8923SM   H6G11980   4.283   5.029  10.745  1.5949 -1.6674 -0.2339
   8923SM   C7F11981   4.209   4.834  10.812  0.3223  0.9244 -0.5753
   8923SM   H7F11982   4.300   4.783  10.772  0.3085 -1.7466  2.3483
   8923SM   H7G11983   4.130   4.760  10.786 -0.0772  1.0882  0.1591
   8923SM   C8F11984   4.236   4.847  10.965  0.6053 -0.1426  0.6467
   8923SM   H8F11985   4.262   4.745  11.001  0.3818 -0.2905  0.3829
   8923SM   H8G11986   4.134   4.878  10.995  0.4897 -0.7581  0.9001
   8923SM   C9F11987   4.344   4.956  10.989  0.4047 -0.0621  0.2509
   8923SM   H9F11988   4.376   4.967  11.095  0.4064  0.8918  0.1567
   8923SM   H9G11989   4.305   5.057  10.965  0.4968 -0.1249 -0.1637
   8923SM  C10F11990   4.473   4.936  10.917 -0.6495 -0.6827 -0.0152
   8923SM  H10F11991   4.536   5.026  10.928 -2.1747  0.7180 -2.0512
   8923SM  H10G11992   4.460   4.935  10.807  1.3135  0.5293 -0.3111
   8923SM  C11F11993   4.543   4.805  10.964 -0.5252  0.1411 -0.3310
   8923SM  H11F11994   4.481   4.713  10.949  1.9218 -2.1027  2.1764
   8923SM  H11G11995   4.552   4.818  11.073 -0.7179 -0.3991 -0.2448
   8923SM  C12F11996   4.692   4.787  10.916  0.2089  0.1730 -0.9703
   8923SM  H12F11997   4.747   4.879  10.945  0.3407 -0.0286 -0.5842
   8923SM  H12G11998   4.690   4.778  10.805 -1.5344 -1.1000 -0.8844
   8923SM  C13F11999   4.764   4.662  10.974  0.5299 -0.1389 -0.6013
   8923SM  H13F12000   4.712   4.573  10.932 -0.8958  1.3031 -2.0773
   8923SM  H13G12001   4.747   4.667  11.084 -0.3033  0.1569 -0.7317
   8923SM  C14F12002   4.912   4.660  10.941 -0.5238 -0.1651  0.0007
   8923SM  H14F12003   4.959   4.745  10.995 -1.2040 -0.3461  0.8996
   8923SM  H14G12004   4.924   4.662  10.830  1.4912  0.5916  0.1907
   8923SM  C15F12005   4.989   4.535  10.984 -0.0882  0.1686 -0.2289
   8923SM  H15F12006   5.092   4.538  10.945 -0.7107  2.6745 -1.9597
   8923SM  H15G12007   4.938   4.444  10.946 -0.6797  0.5866 -0.4576
   8923SM  C16F12008   5.016   4.527  11.136 -0.1666 -0.8737 -0.1393
   8923SM  H16F12009   4.926   4.551  11.197 -0.3065  1.4281 -1.1173
   8923SM  H16G12010   5.089   4.607  11.161 -0.7206  0.8749 -3.4665
   8923SM  C17F12011   5.078   4.397  11.168 -0.0731 -0.0942 -0.0159
   8923SM  H17F12012   5.165   4.369  11.105 -0.7036 -1.5906 -0.2563
   8923SM  H17G12013   5.003   4.317  11.153 -0.7369  0.7995 -1.7913
   8923SM  C18F12014   5.134   4.383  11.309 -0.0696 -0.7850 -0.6188
   8923SM  H18F12015   5.226   4.445  11.307 -0.3929 -0.2523  0.4856
   8923SM  H18G12016   5.162   4.277  11.325  0.2310 -0.5669  0.3170
   8923SM  C19F12017   5.041   4.438  11.414  0.5017  0.0410  0.1189
   8923SM  H19F12018   4.941   4.390  11.406  0.8514 -0.9667  1.4394
   8923SM  H19G12019   5.028   4.548  11.412 -1.1033 -0.1267  0.0628
   8923SM  C20F12020   5.094   4.403  11.553 -0.9263 -0.1616 -0.3813
   8923SM  H20F12021   5.126   4.297  11.550 -1.1712 -0.2403 -0.1992
   8923SM  H20G12022   5.002   4.398  11.615  0.1679 -1.5261  1.1896
   8923SM  C21F12023   5.208   4.487  11.615  0.1197  0.3913 -0.6937
   8923SM  H21F12024   5.181   4.595  11.615  0.8733  0.5970 -1.7832
   8923SM  H21G12025   5.297   4.464  11.552 -1.4016  0.5307 -3.0391
   8923SM  C22F12026   5.232   4.455  11.763  0.0427 -0.3528 -0.3660
   8923SM  H22F12027   5.139   4.489  11.814  0.2815 -1.0807  0.5787
   8923SM  H22G12028   5.318   4.521  11.787  0.3484 -0.0901 -2.0553
   8923SM  C23F12029   5.279   4.317  11.793  0.3206 -0.0936 -0.2418
   8923SM  H23F12030   5.187   4.255  11.796 -1.2686  2.1393 -0.6129
   8923SM  H23G12031   5.326   4.303  11.892 -0.1218  0.7940  0.1038
   8923SM  H23H12032   5.344   4.273  11.714  0.1059 -1.1403  0.1455
   9023SM     N12033   3.561   4.699   9.442 -0.0308 -0.4631  0.2074
   9023SM   C1512034   3.445   4.606   9.453 -0.1302  0.3021 -0.1569
   9023SM  H15A12035   3.372   4.632   9.529 -0.7112  0.1497 -0.6544
   9023SM  H15B12036   3.479   4.504   9.461 -1.3526 -0.0650  0.6165
   9023SM  H15C12037   3.381   4.613   9.366 -0.1469  0.4591 -0.1328
   9023SM   C1412038   3.502   4.832   9.417 -0.1637  0.1403 -0.4659
   9023SM  H14A12039   3.583   4.902   9.399 -0.5849  0.8641  0.3676
   9023SM  H14B12040   3.455   4.875   9.505  3.1338  1.6705  0.7200
   9023SM  H14C12041   3.424   4.828   9.343  1.1425 -0.3421 -1.8793
   9023SM   C1312042   3.632   4.700   9.573  0.2886 -0.1752  0.3826
   9023SM  H13A12043   3.552   4.694   9.646  0.3115 -0.3940  0.3886
   9023SM  H13B12044   3.687   4.793   9.578  1.3303 -0.6951 -1.0945
   9023SM  H13C12045   3.696   4.614   9.577  0.4110 -0.0689  0.8212
   9023SM   C1212046   3.661   4.662   9.329  0.1237 -0.5710 -0.9586
   9023SM  H12A12047   3.612   4.666   9.233 -0.9473 -0.4962 -0.4285
   9023SM  H12B12048   3.684   4.557   9.346  0.0916 -0.5490 -0.7805
   9023SM   C1112049   3.797   4.737   9.320  0.4178 -0.0232 -0.6881
   9023SM  H11A12050   3.845   4.723   9.221  2.3971 -0.9686  0.3553
   9023SM  H11B12051   3.858   4.694   9.402 -0.5610  0.5928  0.3994
   9023SM     P12052   3.891   4.960   9.390  0.2295  0.1204  0.1354
   9023SM   O1312053   4.010   4.925   9.311 -0.1834 -0.2378 -0.1783
   9023SM   O1412054   3.847   5.102   9.382  0.8461 -0.0013 -0.8206
   9023SM   O1112055   3.888   4.905   9.543 -0.2894  0.3957  0.4332
   9023SM   O1212056   3.778   4.875   9.321  0.9854 -0.0765 -0.2170
   9023SM   C1S12057   3.827   4.993   9.638 -0.1698 -0.1786 -0.1703
   9023SM   H1S12058   3.721   5.005   9.609 -0.8964 -0.8503  2.0280
   9023SM   H1T12059   3.878   5.092   9.638  0.9004 -0.7068  0.2614
   9023SM    NF12060   3.742   4.985   9.879 -0.5806  0.6979 -0.2580
   9023SM   HNF12061   3.777   5.019   9.966 -1.2916 -1.2378  0.8609
   9023SM   C2S12062   3.835   4.927   9.782 -0.2013  0.0203 -0.7283
   9023SM   H2S12063   3.812   4.819   9.773 -0.5017 -0.0213  0.4513
   9023SM   C3S12064   3.984   4.925   9.826  0.8520  0.2901  0.1870
   9023SM   H3S12065   4.023   5.029   9.821  0.4400  0.5598  1.8983
   9023SM    O312066   4.059   4.844   9.736 -0.7070 -0.3905 -0.2472
   9023SM   HO312067   3.996   4.835   9.665 -1.8775  0.1947  0.6838
   9023SM   C4S12068   3.988   4.854   9.957  0.0218  0.2769 -0.5443
   9023SM   H4S12069   3.963   4.747   9.956  3.9275 -0.7874 -1.2342
   9023SM   C5S12070   4.005   4.901  10.088 -0.2478 -0.1206  0.6662
   9023SM   H5S12071   4.018   5.010  10.093 -3.3161  0.2885  2.7493
   9023SM   C6S12072   3.991   4.825  10.222 -0.3554 -0.5552 -0.6328
   9023SM   H6S12073   3.939   4.893  10.293  0.6674  0.3700 -0.7455
   9023SM   H6T12074   4.095   4.810  10.258 -1.0112 -0.3855  1.4160
   9023SM   C7S12075   3.918   4.693  10.223  0.3091 -0.9821  0.2447
   9023SM   H7S12076   3.972   4.618  10.161 -1.1078 -1.7402 -0.1130
   9023SM   H7T12077   3.816   4.695  10.180 -0.0501 -1.6178  1.0501
   9023SM   C8S12078   3.916   4.630  10.359 -0.0098 -0.0216 -0.8286
   9023SM   H8S12079   3.881   4.693  10.444 -1.2443 -2.3918  0.5150
   9023SM   H8T12080   4.018   4.602  10.391  0.6348  2.8995 -0.0267
   9023SM   C9S12081   3.821   4.514  10.359  0.4280 -0.4280  0.0103
   9023SM   H9S12082   3.857   4.443  10.281 -1.5715  0.3814 -1.7408
   9023SM   H9T12083   3.713   4.533  10.339  0.2953  0.2543  1.2629
   9023SM  C10S12084   3.820   4.432  10.493 -0.6176 -0.1296 -0.3194
   9023SM  H10S12085   3.926   4.421  10.525 -0.4894  0.1435 -0.6462
   9023SM  H10T12086   3.790   4.327  10.470  1.1201 -0.2117 -2.6361
   9023SM  C11S12087   3.734   4.496  10.601  0.0666 -0.1110  1.0439
   9023SM  H11S12088   3.634   4.504  10.555  0.2382 -0.5593  0.5807
   9023SM  H11T12089   3.760   4.600  10.632 -2.6779  1.0419 -0.1853
   9023SM  C12S12090   3.716   4.398  10.718  0.4732  0.2115 -0.1730
   9023SM  H12S12091   3.707   4.298  10.670  1.9413  0.5940 -1.3240
   9023SM  H12T12092   3.621   4.424  10.768  1.3914  0.1859  1.6616
   9023SM  C13S12093   3.826   4.417  10.825 -0.7687  0.0101 -0.0838
   9023SM  H13S12094   3.826   4.522  10.861 -0.0553 -0.1407  0.3734
   9023SM  H13T12095   3.925   4.390  10.782  0.7001  2.5901  1.4809
   9023SM  C14S12096   3.815   4.325  10.946 -0.7547 -0.4529  0.0332
   9023SM  H14S12097   3.903   4.345  11.011 -0.4215 -2.3436  0.2179
   9023SM  H14T12098   3.827   4.224  10.902  2.6629  0.0715 -0.4784
   9023SM  C15S12099   3.690   4.351  11.029  0.3153  0.8296  0.0080
   9023SM  H15S12100   3.592   4.318  10.989  0.8618 -0.9286  0.0283
   9023SM  H15T12101   3.688   4.461  11.045 -0.2204  1.3032 -2.7580
   9023SM  C16S12102   3.720   4.282  11.159  0.2514  0.5735 -0.1006
   9023SM  H16S12103   3.815   4.318  11.203  0.8356 -0.3669 -0.5465
   9023SM  H16T12104   3.714   4.172  11.142 -1.2288  0.5897  0.2394
   9023SM  C17S12105   3.613   4.323  11.259 -0.1956  0.5477  1.2389
   9023SM  H17S12106   3.513   4.290  11.223  0.8610 -2.1243  0.4679
   9023SM  H17T12107   3.605   4.434  11.260  0.0084  0.7974 -3.3937
   9023SM  C18S12108   3.617   4.250  11.394 -0.2946  0.6645  0.0233
   9023SM  H18S12109   3.552   4.301  11.468 -0.3017 -1.4416  1.5491
   9023SM  H18T12110   3.719   4.243  11.437 -0.8693 -1.4120  1.2134
   9023SM  H18U12111   3.580   4.145  11.388  1.5844 -0.0079 -0.3863
   9023SM   C1F12112   3.605   4.979   9.868 -1.0331 -0.3997  0.6834
   9023SM    OF12113   3.551   4.906   9.785 -0.0294  0.3511  0.2775
   9023SM   C2F12114   3.522   5.062   9.962  0.3127  0.1727  0.1836
   9023SM   H2F12115   3.447   5.119   9.903  0.6580 -0.8396 -1.2721
   9023SM   H2G12116   3.584   5.134  10.019  2.4123 -1.7068  0.3844
   9023SM   C3F12117   3.455   4.977  10.069 -0.6666  0.3226 -0.0512
   9023SM   H3F12118   3.400   4.897  10.016 -0.4686 -0.5820  1.0719
   9023SM   H3G12119   3.380   5.041  10.120 -0.0788  0.4063  0.7138
   9023SM   C4F12120   3.560   4.930  10.168 -0.0642 -0.4870  0.1009
   9023SM   H4F12121   3.626   5.007  10.213 -0.2054 -0.2257 -0.1399
   9023SM   H4G12122   3.629   4.855  10.123  1.0630 -1.1009  2.6460
   9023SM   C5F12123   3.492   4.865  10.284  0.4115 -0.0100  0.7669
   9023SM   H5F12124   3.469   4.767  10.237  1.0174 -0.4964  1.4643
   9023SM   H5G12125   3.400   4.921  10.310  0.1066  1.0290 -2.2195
   9023SM   C6F12126   3.586   4.842  10.402  0.3640  0.3989  0.5581
   9023SM   H6F12127   3.684   4.802  10.369  0.9205  1.6690  0.5971
   9023SM   H6G12128   3.549   4.754  10.458 -0.3521  0.6995  0.5691
   9023SM   C7F12129   3.600   4.956  10.498  0.3858 -0.3416 -0.1816
   9023SM   H7F12130   3.504   4.981  10.547  1.0606 -0.1687  1.0967
   9023SM   H7G12131   3.634   5.042  10.435 -2.1616 -1.4057 -3.2596
   9023SM   C8F12132   3.710   4.939  10.601 -0.1286 -0.0080  0.7847
   9023SM   H8F12133   3.792   4.917  10.530 -1.0973  2.1922 -1.1313
   9023SM   H8G12134   3.706   4.850  10.668  1.1606  1.6146  3.2091
   9023SM   C9F12135   3.757   5.063  10.681 -0.1174  0.3093 -0.4033
   9023SM   H9F12136   3.739   5.156  10.623  0.3069  1.1543  0.7922
   9023SM   H9G12137   3.868   5.055  10.683 -0.1892 -0.8528 -0.5099
   9023SM  C10F12138   3.700   5.079  10.822 -0.1431 -0.2477  0.0534
   9023SM  H10F12139   3.691   4.981  10.873 -0.2163  0.0949  0.7252
   9023SM  H10G12140   3.594   5.105  10.799  0.5192  0.1229 -3.0109
   9023SM  C11F12141   3.757   5.189  10.904 -0.1674 -0.3002 -0.3707
   9023SM  H11F12142   3.702   5.210  10.999  0.3232 -1.2550  0.1357
   9023SM  H11G12143   3.760   5.282  10.843  3.5995 -0.4223 -0.5724
   9023SM  C12F12144   3.901   5.159  10.933 -0.7506 -0.2294 -0.5286
   9023SM  H12F12145   3.965   5.218  10.864  3.4584 -0.2421  2.9532
   9023SM  H12G12146   3.925   5.051  10.933 -0.4309 -0.1891  1.0360
   9023SM  C13F12147   3.922   5.207  11.080  0.1457 -0.1010  0.1732
   9023SM  H13F12148   3.868   5.143  11.152  0.2365 -1.4233 -0.8832
   9023SM  H13G12149   3.887   5.312  11.089 -3.9999 -1.3424  0.5203
   9023SM  C14F12150   4.069   5.190  11.126  0.1805 -0.4955 -0.8637
   9023SM  H14F12151   4.126   5.266  11.068 -1.1982 -0.6272 -2.4661
   9023SM  H14G12152   4.090   5.085  11.097 -0.4739 -2.0915  3.5117
   9023SM  C15F12153   4.089   5.212  11.277 -0.3404  0.1756  0.9057
   9023SM  H15F12154   4.196   5.206  11.306 -0.2856 -2.3641  0.3849
   9023SM  H15G12155   4.035   5.128  11.325 -2.6145  0.2154 -1.3798
   9023SM  C16F12156   4.057   5.357  11.324  0.3958 -0.5052 -0.1960
   9023SM  H16F12157   3.947   5.372  11.320  0.4245  0.1080  0.8946
   9023SM  H16G12158   4.089   5.436  11.252 -0.9576 -0.2320 -0.5339
   9023SM  C17F12159   4.108   5.382  11.475  0.9327  0.0922  0.0759
   9023SM  H17F12160   4.084   5.290  11.533 -1.5223  1.2211  0.9676
   9023SM  H17G12161   4.051   5.467  11.519 -0.5322 -1.7016  1.8160
   9023SM  C18F12162   4.265   5.410  11.485 -0.3813  0.4673 -0.4099
   9023SM  H18F12163   4.313   5.318  11.443 -0.5232  0.4919 -0.6311
   9023SM  H18G12164   4.278   5.420  11.595  0.0755  3.4338 -0.6570
   9023SM  C19F12165   4.313   5.539  11.417 -0.8951  0.3152 -0.0997
   9023SM  H19F12166   4.316   5.623  11.489 -0.1348 -0.1992  0.4873
   9023SM  H19G12167   4.251   5.557  11.327 -1.6790  0.2500  0.4256
   9023SM  C20F12168   4.460   5.525  11.371 -0.5313  0.1164  0.4039
   9023SM  H20F12169   4.479   5.431  11.316 -0.2192 -0.0166  0.7397
   9023SM  H20G12170   4.513   5.511  11.468 -0.8278  0.5916  0.6409
   9023SM  C21F12171   4.508   5.652  11.284 -0.3077  0.1551 -0.5099
   9023SM  H21F12172   4.487   5.745  11.342  4.5218  0.3097  1.4028
   9023SM  H21G12173   4.442   5.646  11.195 -3.1883  1.0250  1.4054
   9023SM  C22F12174   4.654   5.657  11.237 -0.1743 -0.1108  0.7207
   9023SM  H22F12175   4.683   5.559  11.194 -1.2687 -0.4108  0.6289
   9023SM  H22G12176   4.720   5.676  11.324  1.9103  1.0797 -1.0409
   9023SM  C23F12177   4.702   5.766  11.137  0.0427 -0.1546 -0.1518
   9023SM  H23F12178   4.811   5.755  11.116  0.3719  2.3564  0.0210
   9023SM  H23G12179   4.686   5.870  11.170  0.2467  0.4669 -1.9244
   9023SM  H23H12180   4.642   5.758  11.044  0.0561  0.1086 -0.1825
   9123SM     N12181   6.839   6.382   9.982  0.2267  0.2233 -0.4487
   9123SM   C1512182   6.745   6.282   9.930  0.3478  0.7323 -0.5689
   9123SM  H15A12183   6.782   6.180   9.932 -2.8934 -0.5554  0.9338
   9123SM  H15B12184   6.705   6.308   9.834 -1.5645  3.1149  0.7525
   9123SM  H15C12185   6.670   6.265  10.006  1.3225 -0.2824  0.2076
   9123SM   C1412186   6.950   6.398   9.879 -0.2163 -0.4365  0.6507
   9123SM  H14A12187   6.906   6.395   9.780  2.4454  0.5882 -0.6475
   9123SM  H14B12188   7.025   6.321   9.888 -1.8755 -2.0686  1.2669
   9123SM  H14C12189   7.005   6.491   9.887 -2.0579  0.6466  1.4643
   9123SM   C1312190   6.774   6.515  10.008 -0.9231  0.2506  0.0639
   9123SM  H13A12191   6.837   6.564  10.081  1.2972 -2.6465  0.3111
   9123SM  H13B12192   6.676   6.504  10.051 -0.3133 -0.9179  1.2647
   9123SM  H13C12193   6.760   6.563   9.913  0.5001 -1.9143 -1.3176
   9123SM   C1212194   6.902   6.336  10.113  0.7465 -0.4358 -0.1972
   9123SM  H12A12195   6.931   6.232  10.112 -0.1300 -0.6974 -1.7958
   9123SM  H12B12196   6.821   6.332  10.184  0.7093 -3.3846 -0.2866
   9123SM   C1112197   7.005   6.417  10.191  0.3185  0.1177  0.4309
   9123SM  H11A12198   7.095   6.444  10.130 -1.3500  2.6566 -1.0744
   9123SM  H11B12199   7.040   6.349  10.272  0.6202 -0.5741 -0.2645
   9123SM     P12200   6.845   6.549  10.369  0.1488 -0.3168  0.0676
   9123SM   O1312201   6.758   6.669  10.358  0.0947  0.1785  0.2874
   9123SM   O1412202   6.770   6.422  10.375 -0.0823  0.2741  0.1220
   9123SM   O1112203   6.945   6.550  10.493  0.3233 -0.5834 -0.5408
   9123SM   O1212204   6.948   6.533  10.247 -0.3357 -0.2792  0.0697
   9123SM   C1S12205   7.081   6.596  10.488  0.2468  0.7893  0.3126
   9123SM   H1S12206   7.134   6.549  10.403  0.3957 -1.2696  1.4726
   9123SM   H1T12207   7.146   6.565  10.573  0.3044  0.0718  0.0136
   9123SM    NF12208   7.222   6.803  10.466  0.0113  0.0773  0.5096
   9123SM   HNF12209   7.257   6.862  10.538 -0.9938  0.3762  0.7730
   9123SM   C2S12210   7.089   6.752  10.485  0.7083  0.0093  0.4988
   9123SM   H2S12211   7.022   6.782  10.403  0.5571  1.5419  1.1505
   9123SM   C3S12212   7.020   6.829  10.601  0.1662  0.4080 -0.1184
   9123SM   H3S12213   7.099   6.849  10.677 -0.6762  1.3338  0.5280
   9123SM    O312214   6.921   6.751  10.670 -0.2314  0.0650  0.5434
   9123SM   HO312215   6.935   6.666  10.626  1.6999  0.3277  0.5873
   9123SM   C4S12216   6.973   6.966  10.575  0.5485  0.7291 -0.7812
   9123SM   H4S12217   7.053   7.042  10.578  1.3637 -0.1456  0.7171
   9123SM   C5S12218   6.853   7.017  10.536  0.2564 -0.0576 -0.4618
   9123SM   H5S12219   6.769   6.946  10.524 -1.1921  1.2806  1.1755
   9123SM   C6S12220   6.813   7.164  10.522  1.0966  0.1090  0.1083
   9123SM   H6S12221   6.704   7.180  10.531  0.8189 -1.1201 -0.7453
   9123SM   H6T12222   6.829   7.190  10.415  0.0256 -1.2364 -0.4101
   9123SM   C7S12223   6.880   7.260  10.620  0.7953 -0.4405 -1.1205
   9123SM   H7S12224   6.988   7.240  10.630  0.3348 -2.0630  1.7964
   9123SM   H7T12225   6.844   7.233  10.722  2.9034  3.0119  0.7509
   9123SM   C8S12226   6.845   7.411  10.601 -0.2208 -0.3745 -0.4955
   9123SM   H8S12227   6.743   7.437  10.635 -0.9418 -0.9221 -2.1165
   9123SM   H8T12228   6.846   7.427  10.491  2.9563 -1.0762 -0.6831
   9123SM   C9S12229   6.961   7.505  10.644 -0.2293  0.1197 -0.1763
   9123SM   H9S12230   6.930   7.611  10.639  0.3107  0.3546  1.0631
   9123SM   H9T12231   7.050   7.470  10.587 -0.4025  0.9416 -0.9686
   9123SM  C10S12232   6.996   7.495  10.790 -0.1740 -0.6908 -0.2602
   9123SM  H10S12233   7.009   7.393  10.830 -0.7408 -1.2017 -1.3424
   9123SM  H10T12234   6.915   7.550  10.843  2.4609  0.9535  2.4382
   9123SM  C11S12235   7.124   7.573  10.831  0.3194  0.6808  0.1206
   9123SM  H11S12236   7.215   7.534  10.781  0.6041  0.3692  0.8598
   9123SM  H11T12237   7.140   7.565  10.941 -0.6503  1.7199  0.3595
   9123SM  C12S12238   7.118   7.727  10.803  0.2209  0.5148 -0.0016
   9123SM  H12S12239   7.019   7.769  10.830  0.8719  2.9690 -1.1439
   9123SM  H12T12240   7.117   7.739  10.693  2.7788  2.7148  0.1019
   9123SM  C13S12241   7.225   7.820  10.871  0.3281 -0.4673  0.3974
   9123SM  H13S12242   7.325   7.780  10.842 -0.6410 -2.8352  0.1548
   9123SM  H13T12243   7.207   7.802  10.979 -0.9321  2.0571  0.6849
   9123SM  C14S12244   7.195   7.966  10.847 -0.4310  0.5420 -0.7920
   9123SM  H14S12245   7.091   7.989  10.816 -0.7234  1.8475  0.9848
   9123SM  H14T12246   7.258   7.994  10.760  0.0542  1.1723 -0.2501
   9123SM  C15S12247   7.227   8.053  10.966  0.2728 -0.6387  0.1583
   9123SM  H15S12248   7.337   8.063  10.974  0.0328  2.5130  0.5492
   9123SM  H15T12249   7.182   8.029  11.065  0.3640  0.4108  0.4597
   9123SM  C16S12250   7.178   8.201  10.959  0.4545  0.4298 -0.2512
   9123SM  H16S12251   7.207   8.252  11.053  0.1225 -1.1746  0.7707
   9123SM  H16T12252   7.069   8.206  10.938  0.4368 -0.5408 -0.4454
   9123SM  C17S12253   7.247   8.265  10.845  0.3412 -0.0961  0.9314
   9123SM  H17S12254   7.199   8.219  10.756  0.4963  0.3855  0.5906
   9123SM  H17T12255   7.356   8.243  10.846  0.7133  1.6076  1.0442
   9123SM  C18S12256   7.224   8.418  10.839  0.1095  0.6242 -0.2030
   9123SM  H18S12257   7.226   8.455  10.734 -3.4492 -0.7292 -0.9032
   9123SM  H18T12258   7.301   8.471  10.899 -1.0959 -0.5276  2.5270
   9123SM  H18U12259   7.125   8.447  10.880  0.2739  0.6209  0.1986
   9123SM   C1F12260   7.305   6.767  10.368 -0.5730  0.6106  0.3204
   9123SM    OF12261   7.268   6.753  10.249 -0.4130 -0.6017  0.1722
   9123SM   C2F12262   7.448   6.760  10.410  0.3584  0.6291 -0.9728
   9123SM   H2F12263   7.460   6.725  10.515 -0.7286  2.2194 -0.2757
   9123SM   H2G12264   7.499   6.859  10.412 -0.0348  0.8193 -0.2219
   9123SM   C3F12265   7.527   6.659  10.320 -0.1111 -0.1002  0.0643
   9123SM   H3F12266   7.626   6.658  10.371 -1.3516  0.5321  2.6738
   9123SM   H3G12267   7.530   6.678  10.211 -1.9470 -2.5644 -0.4946
   9123SM   C4F12268   7.464   6.517  10.330  1.0295 -1.0645 -0.0778
   9123SM   H4F12269   7.517   6.450  10.259  0.0726  0.2363 -2.1019
   9123SM   H4G12270   7.358   6.516  10.298  0.0419 -0.6556  2.9137
   9123SM   C5F12271   7.460   6.460  10.467 -0.3739 -0.7655  0.3100
   9123SM   H5F12272   7.386   6.518  10.526  0.4831  0.6512  0.0228
   9123SM   H5G12273   7.562   6.453  10.510 -0.3909 -0.7300  0.3557
   9123SM   C6F12274   7.414   6.311  10.464 -0.4053 -0.0960  0.4491
   9123SM   H6F12275   7.462   6.264  10.375  0.4562  0.4984  0.5819
   9123SM   H6G12276   7.306   6.314  10.442 -0.2647 -0.2769 -0.2840
   9123SM   C7F12277   7.449   6.227  10.589  0.2291 -0.4668 -0.3523
   9123SM   H7F12278   7.556   6.220  10.619 -0.6368  1.7502  4.2452
   9123SM   H7G12279   7.414   6.123  10.576  1.1217 -1.1739  2.2234
   9123SM   C8F12280   7.374   6.275  10.722  0.1030  0.4692  0.2846
   9123SM   H8F12281   7.264   6.276  10.706 -0.2089 -0.0996  2.2214
   9123SM   H8G12282   7.398   6.379  10.754 -0.6711 -0.0109  2.6085
   9123SM   C9F12283   7.399   6.176  10.837 -0.4806 -0.4061  0.1634
   9123SM   H9F12284   7.362   6.073  10.820  0.1626 -0.6976  0.5061
   9123SM   H9G12285   7.330   6.207  10.919 -0.2276 -1.8400  0.9362
   9123SM  C10F12286   7.539   6.184  10.897 -0.2996  0.5707 -0.0846
   9123SM  H10F12287   7.569   6.286  10.931  2.0781 -0.6580  1.8311
   9123SM  H10G12288   7.604   6.156  10.812 -2.4718 -1.0730 -1.3100
   9123SM  C11F12289   7.549   6.087  11.019  0.0313 -0.0264  0.4842
   9123SM  H11F12290   7.545   5.983  10.979 -1.5481  0.4179 -0.6090
   9123SM  H11G12291   7.461   6.098  11.087  0.4214 -2.6144  1.5378
   9123SM  C12F12292   7.673   6.109  11.100  0.2467  0.4495 -0.5441
   9123SM  H12F12293   7.653   6.162  11.196  5.3124 -0.3062  1.2415
   9123SM  H12G12294   7.739   6.186  11.054  1.8438 -0.2920  0.4035
   9123SM  C13F12295   7.750   5.978  11.123  0.2521 -0.4622  0.0327
   9123SM  H13F12296   7.766   5.947  11.018 -0.6270  1.1572 -0.6180
   9123SM  H13G12297   7.693   5.905  11.185  1.5601 -1.5459  0.0005
   9123SM  C14F12298   7.891   6.000  11.184  0.1204 -0.0507 -0.2686
   9123SM  H14F12299   7.934   6.087  11.130  1.0999 -0.1649  0.3175
   9123SM  H14G12300   7.959   5.914  11.169  1.4998  0.4882  2.2739
   9123SM  C15F12301   7.896   6.018  11.339  0.1190  0.1003 -0.4750
   9123SM  H15F12302   7.813   6.088  11.364 -0.4134 -1.2206  1.8572
   9123SM  H15G12303   7.992   6.071  11.355  0.4409 -0.7944  0.7204
   9123SM  C16F12304   7.878   5.892  11.430 -0.5045  0.1189  0.1304
   9123SM  H16F12305   7.936   5.813  11.377 -2.0317 -1.3536  0.5603
   9123SM  H16G12306   7.775   5.852  11.434 -0.0004 -1.3202 -0.5161
   9123SM  C17F12307   7.936   5.901  11.565  0.7329 -0.0519  0.2037
   9123SM  H17F12308   7.875   5.984  11.608 -2.1281 -0.9210 -1.8286
   9123SM  H17G12309   8.044   5.924  11.561  0.2539  2.3531 -0.5603
   9123SM  C18F12310   7.916   5.778  11.648  0.1641  0.5552 -0.4267
   9123SM  H18F12311   7.988   5.695  11.631  0.4840  0.0908  2.6011
   9123SM  H18G12312   7.814   5.738  11.631  1.2964 -1.7509 -2.3677
   9123SM  C19F12313   7.928   5.811  11.802  0.4259 -0.5599 -0.4225
   9123SM  H19F12314   7.865   5.900  11.824 -0.3013 -1.3358  0.7279
   9123SM  H19G12315   8.034   5.835  11.825  0.1024 -0.0661  0.6219
   9123SM  C20F12316   7.878   5.689  11.878 -0.5616  0.2100 -0.6293
   9123SM  H20F12317   7.781   5.646  11.845 -0.8332 -0.6763  1.1962
   9123SM  H20G12318   7.869   5.735  11.979  0.7312  2.7470 -1.5829
   9123SM  C21F12319   7.981   5.569  11.891  0.6037 -0.8919 -0.6020
   9123SM  H21F12320   8.067   5.597  11.956  0.5163 -0.0617 -0.8310
   9123SM  H21G12321   8.022   5.551  11.789  1.7909  0.6959 -0.4369
   9123SM  C22F12322   7.917   5.453  11.967  0.1882  0.3819 -0.3254
   9123SM  H22F12323   7.853   5.396  11.897 -2.7714  0.5902  2.0293
   9123SM  H22G12324   7.851   5.492  12.047 -0.4907 -0.2013 -0.5992
   9123SM  C23F12325   8.032   5.368  12.028 -0.5176  0.3012 -0.6990
   9123SM  H23F12326   8.085   5.315  11.946  0.9841  0.2132  0.2962
   9123SM  H23G12327   8.002   5.296  12.106  1.6124  0.6672  0.5386
   9123SM  H23H12328   8.096   5.439  12.085 -0.2227  0.0770 -0.7536
   9223SM     N12329   4.419   3.805   9.940  0.2112  0.2199  0.2047
   9223SM   C1512330   4.437   3.672   9.872  0.6791 -0.1259 -0.4216
   9223SM  H15A12331   4.520   3.619   9.917  0.7759 -0.3234 -0.8214
   9223SM  H15B12332   4.457   3.687   9.767 -0.3218 -1.4834 -0.8474
   9223SM  H15C12333   4.356   3.603   9.893  1.2860 -0.2544  1.7259
   9223SM   C1412334   4.398   3.768  10.084  0.1694 -0.1391  0.9572
   9223SM  H14A12335   4.482   3.717  10.128 -0.4541 -1.6712  0.4115
   9223SM  H14B12336   4.327   3.688  10.098 -0.7622  0.2124 -1.3436
   9223SM  H14C12337   4.380   3.862  10.135 -1.2918 -0.1204  0.4642
   9223SM   C1312338   4.546   3.875   9.934 -0.7724 -0.2608 -0.1442
   9223SM  H13A12339   4.573   3.920   9.839 -0.0838  0.5035  0.4018
   9223SM  H13B12340   4.626   3.808   9.960  1.0670  2.3061  1.2152
   9223SM  H13C12341   4.552   3.955  10.006  1.5982  0.0590 -0.6096
   9223SM   C1212342   4.303   3.881   9.880 -0.0425 -0.5084 -0.0718
   9223SM  H12A12343   4.335   3.890   9.778  0.8774 -1.7415  0.0876
   9223SM  H12B12344   4.300   3.976   9.931 -2.3275 -1.1789  1.2184
   9223SM   C1112345   4.157   3.820   9.893 -0.3725  0.3720 -0.3439
   9223SM  H11A12346   4.086   3.899   9.860 -0.1932  0.5624 -0.2772
   9223SM  H11B12347   4.136   3.806  10.001  0.2629 -0.3944 -0.3096
   9223SM     P12348   4.105   3.674   9.678 -0.0852  0.3255 -0.3056
   9223SM   O1312349   4.192   3.765   9.606 -0.1830  0.7899  0.5197
   9223SM   O1412350   4.116   3.534   9.645 -0.6279  0.7411 -0.2596
   9223SM   O1112351   3.957   3.729   9.662  0.2090  0.3118 -0.0768
   9223SM   O1212352   4.142   3.694   9.832  0.3437  0.1689 -0.1195
   9223SM   C1S12353   3.845   3.648   9.701  0.5667 -0.0211  0.3929
   9223SM   H1S12354   3.862   3.540   9.682 -2.4863 -0.9329  2.0305
   9223SM   H1T12355   3.755   3.672   9.640 -0.9305 -2.0359  1.6968
   9223SM    NF12356   3.719   3.584   9.899  0.1655  0.2240  0.6898
   9223SM   HNF12357   3.622   3.596   9.877  0.3877  0.5482 -0.1548
   9223SM   C2S12358   3.808   3.684   9.846  0.2965  0.1350  1.3175
   9223SM   H2S12359   3.901   3.671   9.906  1.1386 -1.5228 -0.2535
   9223SM   C3S12360   3.766   3.828   9.861 -0.3474 -0.1367 -0.3338
   9223SM   H3S12361   3.680   3.852   9.796 -0.3894  2.7205  0.6654
   9223SM    O312362   3.854   3.929   9.817 -0.2108  0.0390 -0.9726
   9223SM   HO312363   3.912   3.880   9.759  1.5015 -0.2878  0.8946
   9223SM   C4S12364   3.719   3.864  10.000 -0.0755 -0.3651  0.1582
   9223SM   H4S12365   3.786   3.844  10.085  0.4344 -0.6042 -0.2952
   9223SM   C5S12366   3.609   3.944  10.019 -0.3728  0.9925 -0.0915
   9223SM   H5S12367   3.547   3.974   9.933 -1.7905 -3.1411 -0.7201
   9223SM   C6S12368   3.563   4.000  10.155  0.9613 -0.2984  0.0650
   9223SM   H6S12369   3.459   3.962  10.159  0.2332  1.6380  0.6491
   9223SM   H6T12370   3.551   4.110  10.144  0.7254 -0.4515 -1.4628
   9223SM   C7S12371   3.645   3.979  10.284  0.0384  0.2535  0.0898
   9223SM   H7S12372   3.738   4.038  10.300  0.1467  0.4333 -1.1174
   9223SM   H7T12373   3.687   3.877  10.268 -1.1510  0.1756 -3.1467
   9223SM   C8S12374   3.545   3.973  10.407 -0.3115  0.0184  0.0391
   9223SM   H8S12375   3.471   3.892  10.393 -1.4341  1.1991 -1.0779
   9223SM   H8T12376   3.483   4.065  10.409  1.7973  1.5181  0.8494
   9223SM   C9S12377   3.614   3.962  10.542 -0.1284  0.2182  0.4703
   9223SM   H9S12378   3.686   4.046  10.554 -2.0509  2.0492 -0.2916
   9223SM   H9T12379   3.674   3.869  10.544 -1.3247 -0.6350 -1.2847
   9223SM  C10S12380   3.517   3.986  10.658 -0.7528 -0.5972  0.5858
   9223SM  H10S12381   3.436   3.911  10.648 -0.4890 -0.9699  1.1889
   9223SM  H10T12382   3.486   4.093  10.664  1.0830 -0.1008  2.3654
   9223SM  C11S12383   3.575   3.975  10.797 -0.2785  0.2289  0.0928
   9223SM  H11S12384   3.661   4.043  10.814 -0.6068  0.4794  0.7570
   9223SM  H11T12385   3.615   3.871  10.805 -0.6773  0.0873  0.2859
   9223SM  C12S12386   3.466   3.987  10.904  0.1163 -0.1407 -0.0287
   9223SM  H12S12387   3.377   3.929  10.870 -0.4438 -1.0672  2.7573
   9223SM  H12T12388   3.426   4.089  10.920 -0.3839 -0.1321 -1.2089
   9223SM  C13S12389   3.514   3.955  11.045 -0.5992  0.1759 -0.1805
   9223SM  H13S12390   3.598   4.022  11.076 -0.3226 -0.0313 -0.4726
   9223SM  H13T12391   3.567   3.858  11.035  0.1060  0.3879  1.1978
   9223SM  C14S12392   3.406   3.963  11.151 -0.1672  0.1562 -0.3032
   9223SM  H14S12393   3.362   4.065  11.151  1.0316  0.7047 -0.9768
   9223SM  H14T12394   3.462   3.947  11.245 -1.5904 -0.8942  0.4061
   9223SM  C15S12395   3.298   3.855  11.138  0.0084 -0.0194 -0.5378
   9223SM  H15S12396   3.334   3.759  11.181 -0.3180  0.2937  0.4541
   9223SM  H15T12397   3.278   3.848  11.029 -0.0671 -1.1576 -0.4653
   9223SM  C16S12398   3.169   3.881  11.233 -0.3488  0.4657 -0.3980
   9223SM  H16S12399   3.093   3.803  11.212  0.6508 -0.7024  0.2112
   9223SM  H16T12400   3.118   3.978  11.214  1.7236  1.6488 -0.2191
   9223SM  C17S12401   3.216   3.868  11.385 -0.1184 -0.1498  0.1185
   9223SM  H17S12402   3.283   3.780  11.396  0.9605  0.2762 -2.3511
   9223SM  H17T12403   3.125   3.847  11.445  1.3166  1.7066  3.1759
   9223SM  C18S12404   3.276   3.993  11.455 -0.4767  0.4081  0.6598
   9223SM  H18S12405   3.371   4.021  11.405 -0.4518 -1.2648 -0.2972
   9223SM  H18T12406   3.291   3.968  11.562 -1.0845 -0.9562  0.4434
   9223SM  H18U12407   3.216   4.084  11.431 -1.2429 -1.1888 -4.8736
   9223SM   C1F12408   3.755   3.454   9.923  0.5092  0.4791 -0.5021
   9223SM    OF12409   3.869   3.414   9.907  0.3390  0.6704 -0.6147
   9223SM   C2F12410   3.645   3.354   9.952 -0.5541 -0.9571 -0.2731
   9223SM   H2F12411   3.663   3.271   9.880 -2.1789 -0.7916 -0.9266
   9223SM   H2G12412   3.545   3.399   9.931  0.1690  0.7956 -0.1408
   9223SM   C3F12413   3.658   3.306  10.098  0.2886  0.4672  0.0220
   9223SM   H3F12414   3.669   3.391  10.168 -1.7269  2.4195 -1.8599
   9223SM   H3G12415   3.745   3.238  10.110 -1.4160 -1.5122  2.2285
   9223SM   C4F12416   3.530   3.232  10.136 -0.0045  0.5590 -0.2789
   9223SM   H4F12417   3.551   3.140  10.195  0.6929  0.0665 -1.2616
   9223SM   H4G12418   3.475   3.190  10.049 -0.6298 -1.3179  0.9494
   9223SM   C5F12419   3.428   3.319  10.214  0.3563  0.1135 -0.2489
   9223SM   H5F12420   3.426   3.425  10.183 -0.4521 -0.1457 -1.1247
   9223SM   H5G12421   3.457   3.327  10.321 -1.0091  0.5269  0.1029
   9223SM   C6F12422   3.282   3.264  10.196 -0.6490 -0.1964  0.0131
   9223SM   H6F12423   3.254   3.274  10.089 -0.8258  1.8867  0.2186
   9223SM   H6G12424   3.216   3.323  10.262  0.2705  0.9796 -0.0937
   9223SM   C7F12425   3.287   3.116  10.235  0.1911  0.2399 -0.0238
   9223SM   H7F12426   3.352   3.113  10.325 -0.0152 -0.2976  0.1119
   9223SM   H7G12427   3.340   3.055  10.158  0.2462  0.5946 -0.2648
   9223SM   C8F12428   3.155   3.048  10.272  0.3974  0.1761 -0.3862
   9223SM   H8F12429   3.094   3.034  10.181 -1.4875  0.2734  0.8046
   9223SM   H8G12430   3.097   3.103  10.349  1.0360 -0.6134  0.7019
   9223SM   C9F12431   3.185   2.910  10.320 -0.1820 -0.2731  0.1229
   9223SM   H9F12432   3.260   2.904  10.402  0.4459  1.9564 -0.2136
   9223SM   H9G12433   3.232   2.854  10.237 -0.6816 -0.6999  0.1242
   9223SM  C10F12434   3.047   2.840  10.356 -0.0836 -0.3385 -0.8908
   9223SM  H10F12435   2.996   2.816  10.261 -0.6867  0.1555 -0.6948
   9223SM  H10G12436   2.982   2.909  10.414 -1.7621 -1.1343 -1.7727
   9223SM  C11F12437   3.067   2.717  10.450 -0.2634 -0.9280 -0.4242
   9223SM  H11F12438   3.112   2.738  10.549 -0.2174 -0.3799 -0.5601
   9223SM  H11G12439   3.143   2.647  10.408 -0.1909 -1.0595 -0.0764
   9223SM  C12F12440   2.939   2.642  10.463  1.0442  0.6605 -0.5162
   9223SM  H12F12441   2.953   2.544  10.512 -2.6606 -1.9274 -4.0344
   9223SM  H12G12442   2.910   2.620  10.358  0.6569 -0.7772 -0.1204
   9223SM  C13F12443   2.827   2.704  10.552 -0.2933 -0.7803 -0.1065
   9223SM  H13F12444   2.797   2.798  10.500  0.4254 -0.0291  0.8079
   9223SM  H13G12445   2.862   2.727  10.654 -2.0064  3.7262 -0.3059
   9223SM  C14F12446   2.701   2.617  10.570 -0.1646  0.1449  0.1954
   9223SM  H14F12447   2.667   2.586  10.469 -2.5933 -0.8015  1.2219
   9223SM  H14G12448   2.629   2.688  10.615  0.9296  2.0302 -0.9006
   9223SM  C15F12449   2.723   2.488  10.653  0.3051 -0.6230  0.3466
   9223SM  H15F12450   2.783   2.515  10.742 -0.3647  1.3098  0.2788
   9223SM  H15G12451   2.775   2.418  10.585 -0.2854  1.3052 -2.2713
   9223SM  C16F12452   2.585   2.431  10.702 -0.2012  0.4217 -0.8505
   9223SM  H16F12453   2.524   2.384  10.622 -0.1148 -0.7832 -0.2438
   9223SM  H16G12454   2.533   2.518  10.747  1.1162  1.2281 -0.8472
   9223SM  C17F12455   2.612   2.330  10.811  0.0281  0.5602 -0.9287
   9223SM  H17F12456   2.658   2.385  10.896 -2.6814 -0.0787  1.1124
   9223SM  H17G12457   2.660   2.243  10.762 -3.5433  0.2458 -4.3346
   9223SM  C18F12458   2.482   2.268  10.859  0.1804 -0.4254 -0.1551
   9223SM  H18F12459   2.433   2.218  10.773  0.0816  1.8299 -1.4905
   9223SM  H18G12460   2.423   2.361  10.870  0.4617 -0.4330  1.9085
   9223SM  C19F12461   2.492   2.172  10.971 -0.1131 -0.1023 -0.3722
   9223SM  H19F12462   2.554   2.219  11.050 -1.7074 -1.1455  1.5989
   9223SM  H19G12463   2.547   2.082  10.936  1.6707  1.0675 -0.7579
   9223SM  C20F12464   2.356   2.121  11.029  0.5607 -0.1499  0.2237
   9223SM  H20F12465   2.290   2.090  10.945 -0.1594  4.1735 -1.0729
   9223SM  H20G12466   2.307   2.204  11.083  0.3819  0.8576 -1.4158
   9223SM  C21F12467   2.377   2.005  11.127  0.5069 -0.1069 -0.4557
   9223SM  H21F12468   2.428   2.058  11.210 -0.4521  1.2362 -0.7026
   9223SM  H21G12469   2.444   1.934  11.072  0.9358  0.7819 -1.1090
   9223SM  C22F12470   2.249   1.943  11.179  0.3622  0.1817  0.4363
   9223SM  H22F12471   2.268   1.863  11.253  0.9378 -0.1870 -0.1051
   9223SM  H22G12472   2.188   1.899  11.098  1.1137 -0.6399  0.3090
   9223SM  C23F12473   2.166   2.047  11.251 -0.5575 -0.1886 -0.9006
   9223SM  H23F12474   2.140   2.134  11.188  0.1133  0.3210 -0.4962
   9223SM  H23G12475   2.230   2.094  11.329 -1.2849 -0.6548 -0.0008
   9223SM  H23H12476   2.079   2.000  11.301 -0.4316  1.0028  0.5240
   9323SM     N12477   6.056   6.470  10.051  0.3978  0.3394  0.0708
   9323SM   C1512478   6.082   6.329  10.096 -0.4992  0.2200  0.3698
   9323SM  H15A12479   6.012   6.301  10.173  0.8865  0.0206  1.6089
   9323SM  H15B12480   6.178   6.337  10.145 -0.4994  1.5710  0.1997
   9323SM  H15C12481   6.081   6.261  10.013 -0.6191  0.0136  0.5399
   9323SM   C1412482   6.086   6.557  10.167 -0.3016 -0.1453  0.6132
   9323SM  H14A12483   6.050   6.523  10.263  1.5399 -1.4241  0.9019
   9323SM  H14B12484   6.053   6.655  10.134 -0.4948 -0.1058  0.9189
   9323SM  H14C12485   6.193   6.559  10.181  0.0802 -0.0704 -1.9258
   9323SM   C1312486   6.147   6.492   9.938 -0.2567 -0.1350 -0.1326
   9323SM  H13A12487   6.144   6.598   9.917 -2.5511  0.8536  4.0333
   9323SM  H13B12488   6.126   6.436   9.848  0.8041  1.9151 -1.7380
   9323SM  H13C12489   6.248   6.465   9.965 -0.7303  0.0254  1.9550
   9323SM   C1212490   5.916   6.476  10.004  0.0038  0.0532  0.1513
   9323SM  H12A12491   5.858   6.447  10.090  0.9741  0.5461  1.0042
   9323SM  H12B12492   5.904   6.402   9.927  0.9969 -2.0223  1.8732
   9323SM   C1112493   5.878   6.614   9.949 -0.3377 -0.0428  0.2030
   9323SM  H11A12494   5.778   6.609   9.900  0.9906 -0.0440 -2.6809
   9323SM  H11B12495   5.938   6.645   9.861 -1.1458  2.1335  0.3464
   9323SM     P12496   5.887   6.863  10.034  0.2923 -0.0187 -0.2497
   9323SM   O1312497   6.030   6.901  10.002  0.4794  0.2467  0.0748
   9323SM   O1412498   5.788   6.919   9.939  0.7905  0.3705  0.0614
   9323SM   O1112499   5.862   6.914  10.184  0.5551  0.3996 -0.2298
   9323SM   O1212500   5.871   6.707  10.053 -0.0223  0.1221  0.3381
   9323SM   C1S12501   5.741   6.868  10.251 -0.5708 -0.5711  0.5976
   9323SM   H1S12502   5.745   6.758  10.267 -2.8680 -0.9403 -0.9952
   9323SM   H1T12503   5.651   6.880  10.188 -0.3884 -3.1228 -0.2989
   9323SM    NF12504   5.607   6.881  10.471 -0.6732 -0.1251 -0.7910
   9323SM   HNF12505   5.525   6.937  10.477 -0.1635  0.6154 -0.6168
   9323SM   C2S12506   5.712   6.945  10.389 -0.4805  0.6360  1.3295
   9323SM   H2S12507   5.810   6.939  10.440  1.1494 -0.8388 -1.7135
   9323SM   C3S12508   5.688   7.097  10.359  0.6084  0.1724 -0.0168
   9323SM   H3S12509   5.587   7.106  10.312  0.4283  1.5744  0.5968
   9323SM    O312510   5.775   7.164  10.268  0.0761 -0.2228 -0.2618
   9323SM   HO312511   5.838   7.095  10.245 -0.3829 -0.6598 -0.2130
   9323SM   C4S12512   5.660   7.176  10.489  0.3154 -0.0339 -0.3844
   9323SM   H4S12513   5.555   7.170  10.519 -0.1341 -3.8358 -2.1348
   9323SM   C5S12514   5.760   7.220  10.568  0.0327 -0.4158 -0.2856
   9323SM   H5S12515   5.862   7.213  10.527  0.4048  1.9193  0.1061
   9323SM   C6S12516   5.749   7.282  10.706  0.3421  0.1317  0.0958
   9323SM   H6S12517   5.785   7.386  10.690 -1.0774  0.3702 -1.9210
   9323SM   H6T12518   5.827   7.234  10.769 -0.0736  1.2000  1.5012
   9323SM   C7S12519   5.622   7.279  10.792 -0.0556 -0.2379  0.4608
   9323SM   H7S12520   5.598   7.171  10.804 -1.3012  0.1082  1.1802
   9323SM   H7T12521   5.536   7.341  10.760  0.3464  1.7881  2.9700
   9323SM   C8S12522   5.650   7.328  10.936  0.1768 -0.7303  0.2756
   9323SM   H8S12523   5.557   7.316  10.995  0.0171  0.3618  0.2777
   9323SM   H8T12524   5.666   7.437  10.951  2.6833 -0.6407 -2.2362
   9323SM   C9S12525   5.757   7.252  11.018  0.3138  0.0219  0.0608
   9323SM   H9S12526   5.854   7.266  10.965  0.3695 -3.0498 -0.8789
   9323SM   H9T12527   5.743   7.142  11.012  1.8720 -0.3367  1.9814
   9323SM  C10S12528   5.745   7.305  11.154  0.1722  0.6038 -0.6379
   9323SM  H10S12529   5.649   7.260  11.188  0.1210 -0.2047 -1.7854
   9323SM  H10T12530   5.730   7.415  11.162 -0.9475  0.3247  2.5540
   9323SM  C11S12531   5.844   7.264  11.260  0.1468  0.6146 -0.4141
   9323SM  H11S12532   5.870   7.158  11.240 -0.4262 -0.0123  1.9234
   9323SM  H11T12533   5.793   7.267  11.359  1.4406 -2.5550  0.4669
   9323SM  C12S12534   5.968   7.345  11.274 -0.0268 -0.3746 -0.0657
   9323SM  H12S12535   5.918   7.444  11.282 -3.1069 -1.9260  1.6981
   9323SM  H12T12536   6.030   7.325  11.184  0.8324 -4.2339  1.2100
   9323SM  C13S12537   6.051   7.310  11.396 -0.0522 -0.0137 -0.2113
   9323SM  H13S12538   6.082   7.206  11.369  2.1178  0.8127 -1.2210
   9323SM  H13T12539   5.991   7.308  11.489 -1.7756 -0.8192 -1.2954
   9323SM  C14S12540   6.171   7.411  11.419  0.2373 -1.4367  0.0609
   9323SM  H14S12541   6.209   7.436  11.317 -1.8246 -1.2075 -0.7066
   9323SM  H14T12542   6.249   7.357  11.476  0.8012 -0.9302 -0.2321
   9323SM  C15S12543   6.126   7.538  11.493  0.4508 -0.3164  0.7190
   9323SM  H15S12544   6.205   7.614  11.477  1.5234 -2.0986 -3.8144
   9323SM  H15T12545   6.030   7.567  11.446  1.1470  0.0306 -0.5356
   9323SM  C16S12546   6.115   7.516  11.641  0.8372  0.0193 -0.4770
   9323SM  H16S12547   6.190   7.446  11.684  0.0527  1.2994  3.4357
   9323SM  H16T12548   6.021   7.460  11.658  0.8655 -0.2238 -1.0915
   9323SM  C17S12549   6.117   7.644  11.727  0.5571  0.0192  0.4094
   9323SM  H17S12550   6.215   7.694  11.712  0.2975  0.2909 -0.4467
   9323SM  H17T12551   6.110   7.611  11.833 -0.2093 -0.1051  0.3256
   9323SM  C18S12552   5.992   7.731  11.699  0.2927 -0.2791  1.1118
   9323SM  H18S12553   6.018   7.806  11.622  1.3547 -1.1612  0.5834
   9323SM  H18T12554   5.951   7.784  11.787 -0.6814  1.0999 -0.1112
   9323SM  H18U12555   5.914   7.664  11.656  0.9871 -0.9334  0.8417
   9323SM   C1F12556   5.614   6.763  10.517  0.1571 -0.3548 -0.9692
   9323SM    OF12557   5.707   6.694  10.492 -0.3883  0.6437  0.0179
   9323SM   C2F12558   5.503   6.714  10.614  0.3428 -0.3593 -1.5281
   9323SM   H2F12559   5.419   6.786  10.616  1.0189  0.4274 -0.5831
   9323SM   H2G12560   5.552   6.710  10.714 -0.6179 -2.3155 -1.0645
   9323SM   C3F12561   5.450   6.575  10.570 -0.1999  0.0420 -0.4544
   9323SM   H3F12562   5.535   6.504  10.581  0.7122  1.3547  1.5242
   9323SM   H3G12563   5.428   6.568  10.462 -2.5816 -0.5361  0.0280
   9323SM   C4F12564   5.323   6.530  10.646  0.1808 -0.1674 -0.2791
   9323SM   H4F12565   5.279   6.450  10.583 -1.9310 -0.6223  1.6086
   9323SM   H4G12566   5.241   6.604  10.661 -0.7517 -1.3404  0.5856
   9323SM   C5F12567   5.350   6.471  10.789 -0.2169  0.7038  0.5514
   9323SM   H5F12568   5.453   6.491  10.823  0.8833 -0.8559 -1.6603
   9323SM   H5G12569   5.329   6.363  10.775 -1.7586  0.9342  0.8763
   9323SM   C6F12570   5.251   6.518  10.894 -0.3293 -0.5231  0.3381
   9323SM   H6F12571   5.156   6.463  10.875 -0.3247  0.0113 -1.4064
   9323SM   H6G12572   5.239   6.629  10.894 -0.7263 -0.5333 -1.5321
   9323SM   C7F12573   5.296   6.491  11.038  0.7840  0.4927 -0.8274
   9323SM   H7F12574   5.260   6.566  11.112  2.2119  0.8406 -0.4464
   9323SM   H7G12575   5.406   6.504  11.040  0.8271  0.1759  1.4354
   9323SM   C8F12576   5.262   6.347  11.083  0.0072  0.0336 -0.4725
   9323SM   H8F12577   5.303   6.284  11.002 -1.4635 -1.5814 -0.0275
   9323SM   H8G12578   5.153   6.330  11.093  0.2639 -0.8383  1.2545
   9323SM   C9F12579   5.324   6.296  11.215 -0.0760  0.3468 -0.1476
   9323SM   H9F12580   5.430   6.320  11.234 -0.1234 -0.4634  1.3389
   9323SM   H9G12581   5.312   6.186  11.204 -0.8708  0.3485  0.5449
   9323SM  C10F12582   5.238   6.337  11.337  0.0454 -0.1695  0.6435
   9323SM  H10F12583   5.130   6.320  11.318 -0.4111  1.5858  1.4331
   9323SM  H10G12584   5.248   6.443  11.370  3.3787 -0.2135  0.1192
   9323SM  C11F12585   5.254   6.238  11.452  0.0426  0.5621 -0.7231
   9323SM  H11F12586   5.353   6.259  11.498 -0.5529 -0.6465  1.2097
   9323SM  H11G12587   5.245   6.136  11.410  0.1061  0.1749  0.1752
   9323SM  C12F12588   5.161   6.252  11.576  0.1645 -0.4016  0.7222
   9323SM  H12F12589   5.056   6.251  11.540  0.4416  0.0051 -0.1362
   9323SM  H12G12590   5.173   6.347  11.633  1.3416  0.6412 -1.1641
   9323SM  C13F12591   5.166   6.139  11.683  0.4225 -0.4821  1.0226
   9323SM  H13F12592   5.171   6.040  11.632  0.6311 -0.4293  0.9418
   9323SM  H13G12593   5.072   6.142  11.743  1.1399  1.9007  2.1470
   9323SM  C14F12594   5.284   6.151  11.781  0.5163  0.2418  0.3941
   9323SM  H14F12595   5.279   6.249  11.833 -1.3371  0.1596  0.4564
   9323SM  H14G12596   5.379   6.148  11.723 -0.0682 -1.6180 -0.5332
   9323SM  C15F12597   5.280   6.056  11.907 -0.6962  0.3438  0.7037
   9323SM  H15F12598   5.319   5.960  11.866 -1.0378  0.6776 -0.4464
   9323SM  H15G12599   5.174   6.045  11.937 -1.0263 -0.3621 -0.6423
   9323SM  C16F12600   5.375   6.108  12.015  0.2742 -0.4944  0.8069
   9323SM  H16F12601   5.344   6.208  12.053 -1.2594 -1.1315  1.3121
   9323SM  H16G12602   5.476   6.121  11.970  0.2331 -1.4650  0.4112
   9323SM  C17F12603   5.390   6.011  12.135 -0.6374  0.3428 -0.2258
   9323SM  H17F12604   5.455   5.929  12.097 -2.3403 -1.6946  1.0516
   9323SM  H17G12605   5.294   5.969  12.171 -0.8356  0.7251 -0.3138
   9323SM  C18F12606   5.475   6.070  12.255 -0.8237 -0.7540 -0.9106
   9323SM  H18F12607   5.529   5.998  12.320 -0.0738  0.3084 -0.3074
   9323SM  H18G12608   5.409   6.132  12.320 -2.4835 -3.4365  0.1208
   9323SM  C19F12609   5.580   6.165  12.206 -0.0063 -0.0189 -0.0858
   9323SM  H19F12610   5.551   6.259  12.155  1.5584 -0.2777 -1.5251
   9323SM  H19G12611   5.622   6.105  12.123 -0.1021 -0.5317  0.2295
   9323SM  C20F12612   5.689   6.201  12.312  0.6713 -0.0087 -0.8136
   9323SM  H20F12613   5.755   6.277  12.264  2.0862 -0.4997  0.2873
   9323SM  H20G12614   5.735   6.119  12.371  1.0733  1.5716  1.1570
   9323SM  C21F12615   5.616   6.274  12.428  0.3077 -0.1325  0.3825
   9323SM  H21F12616   5.563   6.200  12.491  1.3632 -2.8241 -1.6975
   9323SM  H21G12617   5.542   6.344  12.383  1.3314 -1.1385 -3.2218
   9323SM  C22F12618   5.711   6.350  12.517 -0.1561  0.5297  0.0024
   9323SM  H22F12619   5.797   6.284  12.537 -0.4673  0.1510  0.1035
   9323SM  H22G12620   5.657   6.369  12.612 -3.6002 -0.4161 -1.5958
   9323SM  C23F12621   5.753   6.487  12.458 -0.0843  0.3492 -0.8150
   9323SM  H23F12622   5.810   6.463  12.366  0.1701 -1.0636 -0.3203
   9323SM  H23G12623   5.817   6.542  12.531  1.1908  2.2405 -3.2129
   9323SM  H23H12624   5.668   6.551  12.428  1.0538  1.0301 -2.7448
   9423SM     N12625   4.814   7.702   9.356 -0.4019  0.2398  0.3756
   9423SM   C1512626   4.751   7.570   9.395  0.0090 -0.2220  0.5221
   9423SM  H15A12627   4.681   7.592   9.474 -0.3631  1.7271 -0.2891
   9423SM  H15B12628   4.827   7.504   9.435  1.5855  1.3206  0.2424
   9423SM  H15C12629   4.684   7.528   9.322 -0.1917 -0.1076  0.6397
   9423SM   C1412630   4.900   7.675   9.237  0.3267  0.4519  0.0445
   9423SM  H14A12631   4.981   7.609   9.263 -0.3381 -0.0521  0.8911
   9423SM  H14B12632   4.940   7.768   9.199  1.1291  0.6877  1.4031
   9423SM  H14C12633   4.833   7.635   9.163  1.0232  1.5325 -1.2272
   9423SM   C1312634   4.711   7.798   9.311 -0.4195 -0.0071  0.0491
   9423SM  H13A12635   4.683   7.781   9.208 -0.6697 -0.6468  0.2199
   9423SM  H13B12636   4.745   7.900   9.302 -0.2846 -0.1700 -1.6949
   9423SM  H13C12637   4.621   7.789   9.370 -0.8901 -0.2370 -0.6834
   9423SM   C1212638   4.889   7.763   9.476 -0.0342  0.3950 -0.3101
   9423SM  H12A12639   4.960   7.687   9.506  0.3255  0.4609 -0.9845
   9423SM  H12B12640   4.816   7.766   9.556 -0.2581  1.5114 -0.5382
   9423SM   C1112641   4.960   7.898   9.467  0.7742  0.3008 -0.1671
   9423SM  H11A12642   5.032   7.883   9.383  1.3191  1.8277 -0.0126
   9423SM  H11B12643   4.999   7.910   9.570 -1.0638 -1.5530  0.8285
   9423SM     P12644   4.778   8.075   9.543 -0.0639  0.2890  0.3108
   9423SM   O1312645   4.712   8.191   9.489  0.0535 -0.2396  0.4703
   9423SM   O1412646   4.695   7.969   9.607 -0.2183 -0.1941  0.5706
   9423SM   O1112647   4.882   8.127   9.649 -1.0947  0.3660  0.1282
   9423SM   O1212648   4.865   8.007   9.430 -0.3501 -0.2714 -0.1221
   9423SM   C1S12649   4.857   8.210   9.755  0.5386 -0.3727  0.0614
   9423SM   H1S12650   4.779   8.286   9.730  2.0643  0.6297 -1.9686
   9423SM   H1T12651   4.943   8.280   9.766  0.3510 -0.3708  1.8767
   9423SM    NF12652   4.787   8.227  10.007 -0.1326 -0.0092 -0.1554
   9423SM   HNF12653   4.846   8.224  10.088 -0.3100 -0.5376 -0.0438
   9423SM   C2S12654   4.818   8.138   9.891  0.1799 -0.1872 -0.2042
   9423SM   H2S12655   4.728   8.077   9.867  0.6538 -0.7594 -0.5369
   9423SM   C3S12656   4.923   8.029   9.917 -0.0127 -0.2287 -0.4045
   9423SM   H3S12657   5.023   8.076   9.917  0.5994 -1.4714 -0.1565
   9423SM    O312658   4.933   7.934   9.812 -0.6136 -0.3650  0.1154
   9423SM   HO312659   4.890   7.978   9.738  0.1637 -1.9511 -1.3458
   9423SM   C4S12660   4.907   7.960  10.048 -0.2788  0.3610  0.2693
   9423SM   H4S12661   4.953   8.015  10.132  0.3845 -0.1637  0.2570
   9423SM   C5S12662   4.829   7.855  10.072  0.2035 -0.6314 -0.2125
   9423SM   H5S12663   4.762   7.816   9.993 -0.8315 -0.8201  0.7368
   9423SM   C6S12664   4.806   7.780  10.199 -0.7714  0.3473 -0.0785
   9423SM   H6S12665   4.825   7.671  10.191  0.1374  0.0755  3.6859
   9423SM   H6T12666   4.700   7.795  10.227 -1.5309 -2.6427 -0.9676
   9423SM   C7S12667   4.893   7.811  10.324 -0.4996  0.4474  0.8551
   9423SM   H7S12668   4.885   7.921  10.341 -1.5406  0.4613  0.3702
   9423SM   H7T12669   4.996   7.800  10.285 -0.8086  2.3358 -0.6527
   9423SM   C8S12670   4.855   7.719  10.436  0.0307  0.0395  0.3284
   9423SM   H8S12671   4.902   7.621  10.411  1.9146  0.5851  1.4898
   9423SM   H8T12672   4.744   7.713  10.431  0.0877 -1.7798  0.4635
   9423SM   C9S12673   4.893   7.754  10.579  0.2557  0.3578 -0.1494
   9423SM   H9S12674   4.871   7.863  10.586  0.4429  0.3346  1.0098
   9423SM   H9T12675   5.004   7.752  10.581  0.4263 -2.2830 -3.7042
   9423SM  C10S12676   4.815   7.671  10.686  0.4309 -0.1684 -0.4110
   9423SM  H10S12677   4.836   7.563  10.680  0.6494 -0.1679  0.2216
   9423SM  H10T12678   4.706   7.684  10.667  0.1366  1.6398  1.9976
   9423SM  C11S12679   4.838   7.714  10.831  0.6456  0.4178 -0.3204
   9423SM  H11S12680   4.856   7.823  10.833 -1.5943  0.8215  0.1395
   9423SM  H11T12681   4.936   7.676  10.867 -0.1032 -1.0642  0.2488
   9423SM  C12S12682   4.718   7.671  10.924  0.2433 -0.5140 -0.5022
   9423SM  H12S12683   4.732   7.560  10.922 -2.2055 -0.9134 -2.9041
   9423SM  H12T12684   4.626   7.686  10.864  1.0694 -0.0176 -1.6972
   9423SM  C13S12685   4.712   7.726  11.064 -0.1099 -0.4260 -0.9263
   9423SM  H13S12686   4.617   7.696  11.113  0.3213 -0.0757  0.1484
   9423SM  H13T12687   4.714   7.837  11.068 -1.0832 -0.4247  2.0165
   9423SM  C14S12688   4.834   7.670  11.143 -0.2127  0.1870 -0.4348
   9423SM  H14S12689   4.926   7.714  11.099 -0.0357  0.6801  0.4053
   9423SM  H14T12690   4.839   7.559  11.132 -0.2509 -0.0285  1.3938
   9423SM  C15S12691   4.829   7.685  11.297  0.0384  0.5383 -0.1212
   9423SM  H15S12692   4.731   7.648  11.333  1.4062  0.6210  4.3766
   9423SM  H15T12693   4.843   7.791  11.329  0.9579  0.3400  0.1551
   9423SM  C16S12694   4.961   7.611  11.347  0.1079  0.1246 -0.3952
   9423SM  H16S12695   5.051   7.658  11.302  0.8374 -1.4439 -0.6486
   9423SM  H16T12696   4.952   7.508  11.306  2.9297 -0.8826  1.2230
   9423SM  C17S12697   4.976   7.584  11.493  1.0118 -0.9419 -0.8564
   9423SM  H17S12698   4.877   7.566  11.540  0.3907  1.4926 -1.0725
   9423SM  H17T12699   5.006   7.682  11.538 -3.5284  1.7949 -3.0584
   9423SM  C18S12700   5.088   7.488  11.525  0.3041 -0.2609 -0.0920
   9423SM  H18S12701   5.183   7.533  11.489  1.2141 -2.0368 -0.0123
   9423SM  H18T12702   5.078   7.389  11.475 -0.0512  0.2468 -1.0403
   9423SM  H18U12703   5.104   7.474  11.634 -0.6211 -1.7793 -0.1154
   9423SM   C1F12704   4.692   8.323   9.995 -0.5338  0.4664 -0.6705
   9423SM    OF12705   4.625   8.328   9.895  0.4231 -0.0533  0.4330
   9423SM   C2F12706   4.677   8.421  10.106 -0.5659 -0.3210  0.4641
   9423SM   H2F12707   4.746   8.504  10.080 -0.1219 -0.3788  1.3993
   9423SM   H2G12708   4.718   8.378  10.200 -1.1373 -1.3795  0.2462
   9423SM   C3F12709   4.534   8.467  10.126  0.3730 -0.7659 -0.0223
   9423SM   H3F12710   4.472   8.376  10.113  0.7670 -0.8859 -1.1472
   9423SM   H3G12711   4.497   8.548  10.060 -0.2337 -1.2481 -0.2841
   9423SM   C4F12712   4.503   8.506  10.271  0.1890  0.1147 -0.7909
   9423SM   H4F12713   4.523   8.424  10.342  0.2403  2.5627  2.2062
   9423SM   H4G12714   4.394   8.526  10.285  0.9544  2.6489  2.8026
   9423SM   C5F12715   4.571   8.630  10.324 -0.6502  0.0210  0.8650
   9423SM   H5F12716   4.540   8.721  10.269  2.4854  0.2897 -0.7012
   9423SM   H5G12717   4.679   8.617  10.298 -0.7789  0.4706  0.0821
   9423SM   C6F12718   4.549   8.649  10.480  0.3096  0.9006  0.0178
   9423SM   H6F12719   4.619   8.727  10.517  1.3367 -0.2357  0.5698
   9423SM   H6G12720   4.572   8.547  10.519  0.1726  0.2852 -1.4456
   9423SM   C7F12721   4.403   8.675  10.525 -0.2677  0.5028 -0.5766
   9423SM   H7F12722   4.398   8.684  10.636  1.1888  2.8316 -0.6298
   9423SM   H7G12723   4.346   8.586  10.493 -1.5176  0.7595  0.8245
   9423SM   C8F12724   4.348   8.813  10.476  0.0455 -1.0178 -0.0161
   9423SM   H8F12725   4.245   8.831  10.512  0.8772  0.7687  1.7072
   9423SM   H8G12726   4.342   8.806  10.365  1.1722  2.3330 -0.3922
   9423SM   C9F12727   4.423   8.942  10.523 -0.0343 -0.4656 -0.0495
   9423SM   H9F12728   4.528   8.940  10.486  0.6216 -0.1366  1.7344
   9423SM   H9G12729   4.439   8.932  10.632  1.6997  0.3635 -0.1939
   9423SM  C10F12730   4.374   9.080  10.484  0.7327  0.0070  0.1874
   9423SM  H10F12731   4.279   9.091  10.542 -0.2794 -0.7280 -1.2535
   9423SM  H10G12732   4.336   9.083  10.379 -0.1345  1.3982  0.5174
   9423SM  C11F12733   4.473   9.187  10.522  0.2384 -0.2343  0.5956
   9423SM  H11F12734   4.459   9.276  10.458  0.1226  0.0002  0.9476
   9423SM  H11G12735   4.576   9.149  10.500 -0.5345 -1.8687 -0.4566
   9423SM  C12F12736   4.486   9.228  10.675  0.6603 -0.0659 -0.1153
   9423SM  H12F12737   4.526   9.135  10.723  0.3907 -1.7512 -2.9426
   9423SM  H12G12738   4.390   9.241  10.729  0.6977  0.8462 -0.2588
   9423SM  C13F12739   4.575   9.351  10.715 -0.6320  0.4811 -0.2516
   9423SM  H13F12740   4.522   9.448  10.705  0.7143  2.1632  5.3351
   9423SM  H13G12741   4.659   9.349  10.642 -1.0716 -3.2977 -0.8474
   9423SM  C14F12742   4.662   9.342  10.844 -0.6115 -0.0622  1.0794
   9423SM  H14F12743   4.715   9.439  10.856 -1.4620  0.5244  0.3275
   9423SM  H14G12744   4.735   9.260  10.832  0.9364  0.9907  2.8959
   9423SM  C15F12745   4.588   9.311  10.974 -0.2681  0.1875 -0.5744
   9423SM  H15F12746   4.645   9.243  11.042 -0.1097  2.3417  1.5749
   9423SM  H15G12747   4.495   9.255  10.949  0.0163 -0.3201 -0.5227
   9423SM  C16F12748   4.552   9.428  11.072 -0.5127  0.1222 -0.1222
   9423SM  H16F12749   4.500   9.500  11.005  1.6030 -0.1383 -2.1760
   9423SM  H16G12750   4.644   9.477  11.109 -0.3118 -0.3550  0.0128
   9423SM  C17F12751   4.458   9.377  11.187  0.0055  0.4142  0.0601
   9423SM  H17F12752   4.510   9.292  11.236  1.8409  0.9106 -0.9321
   9423SM  H17G12753   4.360   9.336  11.156  0.4561 -1.2807  0.7337
   9423SM  C18F12754   4.440   9.491  11.294  0.5801  0.7118 -0.1468
   9423SM  H18F12755   4.356   9.478  11.366 -0.6207  2.4570 -1.1428
   9423SM  H18G12756   4.419   9.592  11.252 -1.5588  0.3164 -0.1609
   9423SM  C19F12757   4.570   9.507  11.377  0.0867 -0.4744 -0.4319
   9423SM  H19F12758   4.652   9.528  11.305 -1.6926  0.6963 -2.2460
   9423SM  H19G12759   4.596   9.416  11.435 -0.1765  0.5423  1.3321
   9423SM  C20F12760   4.548   9.623  11.478 -0.8711 -0.4116  0.5397
   9423SM  H20F12761   4.446   9.602  11.519 -1.9100  1.1851 -1.0657
   9423SM  H20G12762   4.532   9.714  11.416  2.5093  0.6098  1.0079
   9423SM  C21F12763   4.657   9.641  11.592  0.0137 -0.5426  0.6271
   9423SM  H21F12764   4.650   9.747  11.624  2.5722  0.1406 -0.7957
   9423SM  H21G12765   4.754   9.632  11.539  0.1196  2.7779  0.0094
   9423SM  C22F12766   4.632   9.548  11.703  0.0101 -0.8607 -0.5055
   9423SM  H22F12767   4.612   9.450  11.654  0.0193 -0.1887 -1.9195
   9423SM  H22G12768   4.536   9.568  11.754 -0.1643 -3.0010  0.1359
   9423SM  C23F12769   4.745   9.553  11.806 -0.0034 -0.6076  0.5298
   9423SM  H23F12770   4.847   9.550  11.763  0.3143 -1.4095  1.3091
   9423SM  H23G12771   4.708   9.470  11.870 -1.0634 -1.4423 -1.1000
   9423SM  H23H12772   4.730   9.644  11.868  1.8897  0.0737  0.0499
   9523SM     N12773   7.491   3.660   9.310  0.5659  0.0346  0.1069
   9523SM   C1512774   7.553   3.763   9.399 -0.2104 -0.2893  0.7052
   9523SM  H15A12775   7.625   3.817   9.339 -0.2129 -0.7930  0.2367
   9523SM  H15B12776   7.606   3.714   9.479  0.5538 -0.1146  0.3186
   9523SM  H15C12777   7.484   3.838   9.435  0.9185  1.5873 -0.8195
   9523SM   C1412778   7.361   3.609   9.379  0.4862  0.2932  0.0167
   9523SM  H14A12779   7.364   3.542   9.464 -1.1949  0.1672  0.0262
   9523SM  H14B12780   7.299   3.558   9.306  1.2694 -0.3982 -0.1880
   9523SM  H14C12781   7.301   3.694   9.408  0.3259 -0.2995  1.5412
   9523SM   C1312782   7.443   3.721   9.184 -0.1723 -0.4750 -0.6669
   9523SM  H13A12783   7.528   3.772   9.141 -0.4660  0.3368 -0.2985
   9523SM  H13B12784   7.352   3.779   9.193  0.2227 -0.0683  0.8983
   9523SM  H13C12785   7.420   3.644   9.111  2.3315 -0.1967 -1.8523
   9523SM   C1212786   7.590   3.543   9.288  0.1454  0.1876  0.1953
   9523SM  H12A12787   7.673   3.576   9.228 -0.9690 -2.3720 -3.0191
   9523SM  H12B12788   7.549   3.469   9.221  2.0844 -2.3091  1.5629
   9523SM   C1112789   7.647   3.462   9.409  0.2354  0.3347  0.3802
   9523SM  H11A12790   7.709   3.383   9.362 -0.8962 -0.0118 -0.5824
   9523SM  H11B12791   7.558   3.410   9.452 -0.8266  2.2958  0.6590
   9523SM     P12792   7.850   3.519   9.566  0.2065  0.3512  0.0835
   9523SM   O1312793   7.936   3.574   9.460 -0.3474  0.0602 -0.1406
   9523SM   O1412794   7.863   3.580   9.699  0.7363 -0.2094  0.4424
   9523SM   O1112795   7.875   3.367   9.579 -0.4481  0.1367  0.4033
   9523SM   O1212796   7.701   3.538   9.518 -0.1183  0.1901 -0.1350
   9523SM   C1S12797   7.946   3.299   9.681  0.5521  0.2856  0.3232
   9523SM   H1S12798   7.993   3.375   9.747  0.4248  0.2636  0.4395
   9523SM   H1T12799   8.025   3.244   9.625 -1.7587 -1.1999 -1.6744
   9523SM    NF12800   7.942   3.169   9.885 -0.3987 -0.2646  0.3313
   9523SM   HNF12801   7.999   3.087   9.886  1.1229  0.6951 -1.0552
   9523SM   C2S12802   7.858   3.203   9.774  0.3934  0.0337  0.4664
   9523SM   H2S12803   7.770   3.260   9.809  1.6519  2.2479  0.2510
   9523SM   C3S12804   7.789   3.091   9.692  0.3105 -0.1278  0.5382
   9523SM   H3S12805   7.866   3.018   9.660  0.5998  0.9859 -1.4450
   9523SM    O312806   7.737   3.143   9.567  0.6582 -0.6197 -0.0182
   9523SM   HO312807   7.780   3.229   9.559 -1.5633  0.5401 -0.3468
   9523SM   C4S12808   7.688   3.016   9.780 -0.4763  0.4490 -0.4752
   9523SM   H4S12809   7.639   3.072   9.862  2.0324  1.6312  0.3188
   9523SM   C5S12810   7.654   2.887   9.759 -0.1806 -0.4126  0.1779
   9523SM   H5S12811   7.703   2.831   9.678 -1.4276 -1.0784 -0.1426
   9523SM   C6S12812   7.555   2.803   9.837 -0.0865  0.0204  0.3616
   9523SM   H6S12813   7.603   2.711   9.875 -1.4753 -0.3196  1.3791
   9523SM   H6T12814   7.474   2.751   9.782 -1.0199  0.0816  1.6254
   9523SM   C7S12815   7.501   2.869   9.966  0.3034  0.0432  0.1810
   9523SM   H7S12816   7.423   2.947   9.953  0.1582  0.2954  2.2912
   9523SM   H7T12817   7.583   2.920  10.021 -0.1845  2.5751 -1.2556
   9523SM   C8S12818   7.445   2.758  10.055  0.3435  0.1521  0.4080
   9523SM   H8S12819   7.521   2.680  10.074 -0.8199 -1.0380  0.3436
   9523SM   H8T12820   7.363   2.708  10.000 -0.1947  1.3179  0.1064
   9523SM   C9S12821   7.381   2.805  10.185 -0.0256 -0.2913  0.1302
   9523SM   H9S12822   7.330   2.899  10.155 -0.6378 -0.9631 -1.0244
   9523SM   H9T12823   7.458   2.818  10.264 -0.0675  0.9045 -0.0127
   9523SM  C10S12824   7.272   2.713  10.242 -1.0926  0.0477  0.0598
   9523SM  H10S12825   7.315   2.612  10.256  1.7804  0.8958 -1.7700
   9523SM  H10T12826   7.193   2.705  10.164 -2.1808  2.8897  0.7716
   9523SM  C11S12827   7.203   2.763  10.367  0.3615  0.2523 -0.4849
   9523SM  H11S12828   7.119   2.693  10.387  0.7337  0.3984  1.8464
   9523SM  H11T12829   7.159   2.865  10.355  0.1893  0.5504  2.0729
   9523SM  C12S12830   7.286   2.766  10.499 -0.8171 -0.5572  0.3508
   9523SM  H12S12831   7.380   2.823  10.480 -1.1536 -0.4754 -1.2115
   9523SM  H12T12832   7.309   2.660  10.522  1.5939 -0.7309 -2.2184
   9523SM  C13S12833   7.226   2.854  10.614  0.3258  0.4005  0.2739
   9523SM  H13S12834   7.206   2.962  10.595  1.1495  0.5561  0.2221
   9523SM  H13T12835   7.291   2.859  10.704  0.2467  1.0171  0.3024
   9523SM  C14S12836   7.083   2.818  10.656 -0.1491  0.3797 -0.2706
   9523SM  H14S12837   7.079   2.712  10.689  2.3464  0.4608  0.4942
   9523SM  H14T12838   7.025   2.832  10.562  0.0808 -0.2977 -0.5184
   9523SM  C15S12839   7.026   2.899  10.769  0.2282 -0.5713 -0.7081
   9523SM  H15S12840   6.918   2.879  10.777  0.3343 -0.8796  0.0823
   9523SM  H15T12841   7.048   3.007  10.752 -1.2464 -0.4431 -2.0039
   9523SM  C16S12842   7.101   2.868  10.893 -0.2349  0.2914 -0.2938
   9523SM  H16S12843   7.196   2.927  10.895 -0.3408  0.4931 -0.9606
   9523SM  H16T12844   7.131   2.762  10.880  3.2665  1.2798 -1.3601
   9523SM  C17S12845   7.033   2.898  11.028  0.3163 -0.3949  0.1365
   9523SM  H17S12846   6.955   2.821  11.046  0.4760 -0.7115 -0.4749
   9523SM  H17T12847   6.975   2.992  11.021 -1.0969 -1.2066  0.3304
   9523SM  C18S12848   7.127   2.902  11.148 -0.4283 -0.1549 -0.3699
   9523SM  H18S12849   7.158   2.797  11.168  1.7667  0.5845  0.4126
   9523SM  H18T12850   7.082   2.941  11.241  1.8511  0.1657  0.6729
   9523SM  H18U12851   7.225   2.954  11.136 -0.2110 -0.4327  0.1808
   9523SM   C1F12852   7.965   3.249   9.989  0.5657 -0.7819  1.1984
   9523SM    OF12853   7.888   3.346  10.018  0.5692  0.2255 -0.4316
   9523SM   C2F12854   8.083   3.209  10.080  0.5120  0.0467 -0.1718
   9523SM   H2F12855   8.181   3.224  10.029  1.0095  0.4409  0.8604
   9523SM   H2G12856   8.068   3.103  10.111  3.4975  0.2441  2.5042
   9523SM   C3F12857   8.093   3.286  10.220  0.5506 -0.2104 -0.0191
   9523SM   H3F12858   8.107   3.395  10.204  0.7501 -0.1129  0.7667
   9523SM   H3G12859   8.189   3.256  10.268  1.3034  0.8718 -0.7820
   9523SM   C4F12860   7.967   3.268  10.315 -1.0676  0.3550  0.3547
   9523SM   H4F12861   7.924   3.168  10.294 -0.3895  0.1319 -0.0245
   9523SM   H4G12862   7.890   3.344  10.291 -1.1502  0.2788  0.3790
   9523SM   C5F12863   8.014   3.283  10.457 -0.5605 -0.4501 -0.1332
   9523SM   H5F12864   8.072   3.375  10.477 -0.8081 -0.7934  2.4830
   9523SM   H5G12865   8.078   3.195  10.483 -1.4017 -0.9319  0.3438
   9523SM   C6F12866   7.897   3.263  10.554  0.4754  0.2135 -0.0184
   9523SM   H6F12867   7.856   3.163  10.530 -0.7426  0.7436 -0.1786
   9523SM   H6G12868   7.822   3.337  10.521 -0.2728 -1.1637 -1.4912
   9523SM   C7F12869   7.941   3.290  10.697  0.4838  0.1679 -0.0909
   9523SM   H7F12870   7.871   3.360  10.747  1.5223  0.8417  0.4556
   9523SM   H7G12871   8.031   3.355  10.696 -0.8734  2.2281  1.8440
   9523SM   C8F12872   7.960   3.165  10.784  0.1768 -0.4435 -0.5591
   9523SM   H8F12873   8.022   3.091  10.730 -0.5442 -2.5057  1.2881
   9523SM   H8G12874   7.857   3.122  10.786  0.1619 -0.4799 -1.5060
   9523SM   C9F12875   8.011   3.188  10.928  0.7060 -0.8304  0.3362
   9523SM   H9F12876   8.007   3.294  10.959 -0.5380 -0.7782  0.0170
   9523SM   H9G12877   8.118   3.157  10.935  1.0211 -0.3722 -1.8712
   9523SM  C10F12878   7.919   3.116  11.037  0.2359  0.6882 -0.1583
   9523SM  H10F12879   7.819   3.106  10.989 -0.5944  4.8329  0.3529
   9523SM  H10G12880   7.911   3.196  11.113 -0.3031  1.0826 -0.6170
   9523SM  C11F12881   7.969   2.976  11.094  0.3486 -0.2167  0.0367
   9523SM  H11F12882   7.910   2.972  11.188 -2.2110  1.8058 -1.3626
   9523SM  H11G12883   8.077   2.980  11.120  0.6360  0.8341 -1.2048
   9523SM  C12F12884   7.937   2.866  10.998  0.2761 -0.2951 -0.0908
   9523SM  H12F12885   8.008   2.871  10.913  0.9682 -0.8406  0.4409
   9523SM  H12G12886   7.833   2.872  10.960  0.9301 -1.8909 -2.2991
   9523SM  C13F12887   7.964   2.725  11.053 -0.6498  0.1590  0.2542
   9523SM  H13F12888   7.913   2.711  11.150 -3.3825 -2.6206 -1.4036
   9523SM  H13G12889   8.073   2.705  11.061 -0.4447  1.1337 -0.0197
   9523SM  C14F12890   7.901   2.624  10.954  0.1992 -0.1316 -1.4308
   9523SM  H14F12891   7.976   2.624  10.872  2.5826 -1.2674  0.6201
   9523SM  H14G12892   7.806   2.669  10.918 -0.4113 -0.5066 -0.3533
   9523SM  C15F12893   7.869   2.488  11.015  0.4069 -0.1678  0.4709
   9523SM  H15F12894   7.800   2.442  10.941  2.2802 -0.7144 -1.0161
   9523SM  H15G12895   7.821   2.505  11.113  0.1268  0.1492  0.2847
   9523SM  C16F12896   7.988   2.402  11.037  0.6052  0.2743 -0.4306
   9523SM  H16F12897   8.058   2.446  11.111  1.9524 -0.5981 -1.1440
   9523SM  H16G12898   8.033   2.403  10.936 -3.3557 -0.9227 -2.4233
   9523SM  C17F12899   7.963   2.252  11.071  0.2654 -0.6370 -0.5240
   9523SM  H17F12900   8.059   2.203  11.041  0.3560 -0.6062 -0.2848
   9523SM  H17G12901   7.890   2.205  11.002 -1.0712 -0.1843  0.5411
   9523SM  C18F12902   7.911   2.216  11.206  0.2382  0.2841 -0.1700
   9523SM  H18F12903   7.807   2.251  11.223  1.0211  1.6411  2.3498
   9523SM  H18G12904   7.970   2.271  11.283 -0.8918 -1.0418  1.7127
   9523SM  C19F12905   7.914   2.064  11.235  0.2728  0.4480 -0.1896
   9523SM  H19F12906   8.020   2.031  11.227  0.1598  0.0023  0.1103
   9523SM  H19G12907   7.857   2.005  11.160 -0.3046 -0.3626  0.8490
   9523SM  C20F12908   7.865   2.033  11.375  0.1763 -0.0788 -0.4186
   9523SM  H20F12909   7.768   2.081  11.401  1.2246  0.5199  2.8324
   9523SM  H20G12910   7.941   2.076  11.444 -0.1144  0.3161 -0.3427
   9523SM  C21F12911   7.849   1.881  11.403  0.0263 -0.0184  0.1727
   9523SM  H21F12912   7.943   1.821  11.408 -0.0853 -0.2610 -0.6376
   9523SM  H21G12913   7.789   1.844  11.318  1.3653 -0.7262 -0.5050
   9523SM  C22F12914   7.766   1.860  11.534 -0.1102  0.1593 -0.9688
   9523SM  H22F12915   7.678   1.928  11.544 -0.0847 -0.0827  1.6248
   9523SM  H22G12916   7.834   1.877  11.620 -1.2127 -0.5852  0.0925
   9523SM  C23F12917   7.731   1.712  11.542  0.1608 -0.4846 -0.2650
   9523SM  H23F12918   7.822   1.648  11.538  0.8639  0.5000 -0.4246
   9523SM  H23G12919   7.675   1.687  11.450  0.7407 -2.0237 -0.2244
   9523SM  H23H12920   7.674   1.694  11.636  2.4272  0.7898  1.4492
   9623SM     N12921   3.077   1.097   9.421  0.4256  0.4013 -0.3043
   9623SM   C1512922   3.218   1.140   9.413  0.2100  0.1260 -0.1230
   9623SM  H15A12923   3.282   1.078   9.474  1.0492  1.1920  0.1233
   9623SM  H15B12924   3.216   1.241   9.453  0.3644  1.0118 -2.2210
   9623SM  H15C12925   3.264   1.141   9.315  0.0118  0.6526 -0.2170
   9623SM   C1412926   2.980   1.180   9.336  0.5110 -0.2577 -0.2662
   9623SM  H14A12927   2.876   1.149   9.338 -0.2689  2.0493 -1.0525
   9623SM  H14B12928   3.021   1.180   9.236 -0.9134  0.2524 -0.8789
   9623SM  H14C12929   2.968   1.285   9.361 -1.8728 -0.2483 -1.1183
   9623SM   C1312930   3.067   0.966   9.353  0.1834 -0.1173  0.1995
   9623SM  H13A12931   3.142   0.906   9.404 -1.0420 -0.9839  1.0667
   9623SM  H13B12932   3.073   0.968   9.245 -0.9222 -1.7635  0.0551
   9623SM  H13C12933   2.971   0.925   9.381  1.3070 -0.8068  3.5320
   9623SM   C1212934   3.037   1.094   9.565  0.2320  0.0161  0.0507
   9623SM  H12A12935   3.106   1.031   9.620 -1.5088 -2.7774 -0.7722
   9623SM  H12B12936   2.939   1.049   9.571 -0.5558  1.8023  1.5220
   9623SM   C1112937   3.039   1.220   9.643  0.0618 -0.1827 -1.1548
   9623SM  H11A12938   3.128   1.283   9.623 -1.2764  2.1248 -0.2739
   9623SM  H11B12939   3.041   1.202   9.753  1.4315 -0.1411 -1.1551
   9623SM     P12940   2.933   1.457   9.592  0.0676 -0.0229 -0.0198
   9623SM   O1312941   3.062   1.492   9.531  0.1801 -0.1927  0.9443
   9623SM   O1412942   2.808   1.499   9.520  0.3233 -0.1714 -0.6467
   9623SM   O1112943   2.930   1.522   9.737 -0.6632 -0.0342 -0.6120
   9623SM   O1212944   2.923   1.301   9.619 -0.4954  0.6871  0.3929
   9623SM   C1S12945   2.857   1.458   9.844  0.1007  0.6182  0.3049
   9623SM   H1S12946   2.883   1.351   9.862 -2.4714 -0.1836 -0.2717
   9623SM   H1T12947   2.750   1.464   9.812  0.5458 -1.0868 -1.7252
   9623SM    NF12948   2.760   1.488  10.051 -0.0997 -0.4514 -0.2614
   9623SM   HNF12949   2.664   1.517  10.049 -0.4519 -1.5630 -0.3272
   9623SM   C2S12950   2.861   1.543   9.965  0.2062 -0.0428 -0.1695
   9623SM   H2S12951   2.953   1.534  10.027  0.3920 -2.7766 -0.7471
   9623SM   C3S12952   2.854   1.700   9.940 -0.4032  0.2925  0.1567
   9623SM   H3S12953   2.768   1.723   9.873  1.1481 -0.0507 -2.0580
   9623SM    O312954   2.969   1.758   9.868 -0.1349  0.2074  0.2093
   9623SM   HO312955   3.010   1.679   9.832  0.0783  0.6206 -0.4812
   9623SM   C4S12956   2.835   1.772  10.077  0.0113 -0.2573  0.6717
   9623SM   H4S12957   2.735   1.815  10.093 -0.6872 -1.2749 -0.7025
   9623SM   C5S12958   2.933   1.786  10.166  0.0749 -0.0834 -0.4065
   9623SM   H5S12959   3.032   1.742  10.148 -1.4455 -2.6547 -3.3791
   9623SM   C6S12960   2.916   1.865  10.301 -0.9897  0.8200  0.4508
   9623SM   H6S12961   2.811   1.886  10.331 -1.0942  0.3600  0.4301
   9623SM   H6T12962   2.971   1.959  10.282  0.9779 -0.4788 -0.6446
   9623SM   C7S12963   2.986   1.798  10.427  0.1806 -0.0317  0.4071
   9623SM   H7S12964   2.950   1.860  10.512 -0.3704  1.9929 -1.1966
   9623SM   H7T12965   3.097   1.792  10.423  0.3343  1.9912  0.1089
   9623SM   C8S12966   2.948   1.654  10.451  0.3207  0.2854  0.2969
   9623SM   H8S12967   2.969   1.599  10.357  0.0243 -0.4722  0.6696
   9623SM   H8T12968   2.838   1.639  10.463  0.2709  0.4756  0.1018
   9623SM   C9S12969   3.033   1.599  10.563 -0.9059 -0.7815  0.2163
   9623SM   H9S12970   3.031   1.688  10.630  1.3654 -0.2217 -0.3490
   9623SM   H9T12971   3.137   1.592  10.523 -1.2736 -1.9912 -0.5831
   9623SM  C10S12972   2.985   1.472  10.621  0.1912  0.1928 -0.0409
   9623SM  H10S12973   2.986   1.393  10.543  0.1988 -1.6605  1.7314
   9623SM  H10T12974   2.881   1.498  10.649 -1.0513 -0.5826 -3.4676
   9623SM  C11S12975   3.059   1.424  10.752 -0.6287 -0.3877 -0.2948
   9623SM  H11S12976   3.004   1.339  10.797  0.1484 -0.8015 -0.1187
   9623SM  H11T12977   3.064   1.507  10.825  1.6489 -1.4944  0.8970
   9623SM  C12S12978   3.202   1.378  10.719  1.1403  0.5612 -0.6577
   9623SM  H12S12979   3.267   1.466  10.700  2.5251 -0.3946 -0.5534
   9623SM  H12T12980   3.199   1.320  10.624 -0.1411 -1.5583  0.5813
   9623SM  C13S12981   3.261   1.298  10.827 -0.2884 -0.0380 -0.1547
   9623SM  H13S12982   3.222   1.196  10.847  1.6419 -0.6294  0.8229
   9623SM  H13T12983   3.257   1.359  10.919  1.1878  0.3122 -0.2974
   9623SM  C14S12984   3.414   1.283  10.805 -0.2412  0.4170 -0.5141
   9623SM  H14S12985   3.458   1.252  10.902 -1.1176 -0.5768 -0.4273
   9623SM  H14T12986   3.447   1.385  10.774  1.9119 -0.4384 -1.2193
   9623SM  C15S12987   3.457   1.173  10.700  0.1833  0.6214 -0.1092
   9623SM  H15S12988   3.393   1.180  10.609  0.4940  2.0795 -0.2331
   9623SM  H15T12989   3.434   1.072  10.739 -0.7584  1.2610  1.0618
   9623SM  C16S12990   3.610   1.173  10.667  0.4026 -0.4308  0.0022
   9623SM  H16S12991   3.661   1.162  10.765 -1.6369  0.0323  1.1746
   9623SM  H16T12992   3.638   1.273  10.628  1.3292 -0.4838  0.4962
   9623SM  C17S12993   3.661   1.054  10.584  0.2301 -0.1613 -0.2114
   9623SM  H17S12994   3.647   0.953  10.629  3.1432 -1.5875 -2.1608
   9623SM  H17T12995   3.771   1.065  10.572  0.3963 -2.6323 -1.6438
   9623SM  C18S12996   3.607   1.037  10.447  0.6481 -0.1146 -0.4671
   9623SM  H18S12997   3.599   1.135  10.396 -1.8930 -0.3289 -0.6254
   9623SM  H18T12998   3.513   0.977  10.456  0.7963 -0.2410  0.3312
   9623SM  H18U12999   3.672   0.969  10.388  0.9200  0.0201 -0.3213
   9623SM   C1F13000   2.783   1.377  10.122 -0.7954 -0.0682  0.2131
   9623SM    OF13001   2.885   1.305  10.108  0.0990 -0.3400 -0.1731
   9623SM   C2F13002   2.678   1.344  10.223 -0.0739  0.4677  0.6135
   9623SM   H2F13003   2.601   1.277  10.180 -1.2098  2.1917 -0.1403
   9623SM   H2G13004   2.632   1.439  10.254  1.1401  1.3162 -0.0875
   9623SM   C3F13005   2.731   1.278  10.353  0.0619 -0.2384  0.4497
   9623SM   H3F13006   2.825   1.322  10.392  0.7959 -0.3321 -1.1596
   9623SM   H3G13007   2.748   1.170  10.339 -0.2076 -0.1007 -1.1405
   9623SM   C4F13008   2.632   1.301  10.463 -0.1283  0.1341 -0.3392
   9623SM   H4F13009   2.535   1.261  10.428 -0.0364 -0.6133  0.2165
   9623SM   H4G13010   2.623   1.410  10.482  0.7552  0.0207  0.8405
   9623SM   C5F13011   2.678   1.235  10.598 -0.8555  0.7304  0.2504
   9623SM   H5F13012   2.782   1.268  10.618 -0.5801  0.1162 -0.1433
   9623SM   H5G13013   2.674   1.125  10.580 -3.6145  1.0952 -1.9723
   9623SM   C6F13014   2.586   1.255  10.718  0.2356  0.1639 -0.4040
   9623SM   H6F13015   2.488   1.206  10.699 -0.3362  0.5390  1.3497
   9623SM   H6G13016   2.574   1.365  10.731 -0.4011  0.1602 -0.9273
   9623SM   C7F13017   2.622   1.185  10.847 -0.0794  0.0391 -0.0053
   9623SM   H7F13018   2.553   1.223  10.925 -0.9729  1.5489 -1.4726
   9623SM   H7G13019   2.722   1.214  10.886  0.2206 -0.2762 -0.5262
   9623SM   C8F13020   2.620   1.034  10.841 -0.1950 -0.3229  0.0746
   9623SM   H8F13021   2.688   0.999  10.761 -0.1115 -1.7429  0.7387
   9623SM   H8G13022   2.518   0.997  10.820 -1.1893  0.1539  3.3804
   9623SM   C9F13023   2.666   0.968  10.969 -0.0509  0.3600 -0.8329
   9623SM   H9F13024   2.608   1.007  11.055  0.2138  1.9491 -1.3420
   9623SM   H9G13025   2.769   0.995  11.000 -0.4595  0.0451  0.8662
   9623SM  C10F13026   2.673   0.816  10.949 -0.2272 -0.0051  0.3921
   9623SM  H10F13027   2.733   0.797  10.856  1.4207  2.4417  0.8490
   9623SM  H10G13028   2.574   0.767  10.942  1.0323 -2.7705  0.6572
   9623SM  C11F13029   2.753   0.753  11.064  0.6673  0.1147 -0.1193
   9623SM  H11F13030   2.719   0.805  11.157  1.3829  0.6102 -0.1241
   9623SM  H11G13031   2.861   0.781  11.061  0.7138  0.2089  1.4993
   9623SM  C12F13032   2.741   0.598  11.072 -0.5879 -0.0038  0.3432
   9623SM  H12F13033   2.636   0.572  11.099 -0.0760 -1.2678  1.1985
   9623SM  H12G13034   2.805   0.563  11.157  1.2895  0.5497 -0.7846
   9623SM  C13F13035   2.750   0.518  10.942 -0.5082  0.9089  0.6908
   9623SM  H13F13036   2.840   0.534  10.878  0.9806 -3.3305  1.3878
   9623SM  H13G13037   2.661   0.541  10.879 -0.7927 -0.2466  0.6514
   9623SM  C14F13038   2.760   0.366  10.965 -0.4244 -0.0375  0.0892
   9623SM  H14F13039   2.658   0.338  10.999 -1.0733 -1.4882 -2.7757
   9623SM  H14G13040   2.842   0.352  11.039 -0.4773  1.2637  0.4143
   9623SM  C15F13041   2.764   0.276  10.843  0.4013 -0.1578  0.4359
   9623SM  H15F13042   2.758   0.170  10.876  0.9654 -0.1589  0.5379
   9623SM  H15G13043   2.864   0.283  10.795 -0.2799 -3.2011 -1.7648
   9623SM  C16F13044   2.641   0.297  10.756 -0.0347 -0.7794 -1.0879
   9623SM  H16F13045   2.646   0.400  10.714  0.2564  0.9679  2.7532
   9623SM  H16G13046   2.543   0.298  10.808  0.4272 -3.3949 -0.0238
   9623SM  C17F13047   2.630   0.202  10.640  0.4321 -0.3235  0.1632
   9623SM  H17F13048   2.734   0.172  10.616  0.4328  0.2232 -0.5597
   9623SM  H17G13049   2.584   0.240  10.546 -0.6485 -1.2058  0.3109
   9623SM  C18F13050   2.547   0.077  10.687  0.8034 -0.3407 -0.3466
   9623SM  H18F13051   2.444   0.115  10.705  1.2906  0.4931  0.8049
   9623SM  H18G13052   2.591   0.044  10.783  0.5279  3.3789  1.2007
   9623SM  C19F13053   2.548  -0.042  10.584 -0.2300  0.0169 -0.1891
   9623SM  H19F13054   2.497  -0.001  10.494 -0.7785  2.0620  0.9853
   9623SM  H19G13055   2.474  -0.114  10.625  0.1272  0.4455  1.2680
   9623SM  C20F13056   2.696  -0.092  10.550  0.3789 -0.0338 -0.7094
   9623SM  H20F13057   2.746  -0.131  10.641 -0.3320 -0.5399 -0.5301
   9623SM  H20G13058   2.756  -0.004  10.519  1.0595  0.3692  1.5324
   9623SM  C21F13059   2.700  -0.199  10.445  0.3623 -0.0216  0.2868
   9623SM  H21F13060   2.639  -0.284  10.482 -0.1182 -0.4595 -1.4240
   9623SM  H21G13061   2.803  -0.231  10.420 -0.6574 -3.1378 -0.3253
   9623SM  C22F13062   2.632  -0.156  10.314 -0.4953 -0.1446  1.0008
   9623SM  H22F13063   2.662  -0.052  10.289  0.4652 -0.8207 -0.8081
   9623SM  H22G13064   2.522  -0.161  10.322 -0.4444 -3.4858  0.9940
   9623SM  C23F13065   2.667  -0.254  10.207 -0.0763 -0.3111  0.2849
   9623SM  H23F13066   2.599  -0.225  10.124 -0.2051 -2.1343 -0.2869
   9623SM  H23G13067   2.648  -0.361  10.231 -1.0838 -0.6653 -1.7935
   9623SM  H23H13068   2.771  -0.241  10.171 -0.7046  2.0654 -0.9100
   9723SM     N13069   1.554   0.235   9.178  0.0585 -0.1718  0.0813
   9723SM   C1513070   1.577   0.111   9.099  0.0098  0.0467  0.3738
   9723SM  H15A13071   1.679   0.076   9.101 -0.4395 -1.7904 -2.6992
   9723SM  H15B13072   1.545   0.132   8.999 -0.5512  0.9114  0.7245
   9723SM  H15C13073   1.503   0.039   9.129 -0.3864  0.4181  0.2973
   9723SM   C1413074   1.635   0.339   9.114  0.0544  0.5045 -0.1176
   9723SM  H14A13075   1.740   0.317   9.126  0.2836  2.3457  1.8919
   9723SM  H14B13076   1.614   0.439   9.150  0.0439  0.9003 -1.1815
   9723SM  H14C13077   1.620   0.338   9.007 -0.8164  0.0215 -0.0076
   9723SM   C1313078   1.413   0.276   9.179  0.1229 -0.3119  0.1833
   9723SM  H13A13079   1.354   0.200   9.228  1.1524 -0.9373  0.4827
   9723SM  H13B13080   1.377   0.270   9.077  1.0952  1.7286 -0.3247
   9723SM  H13C13081   1.389   0.373   9.220 -1.6798 -1.0115  0.8819
   9723SM   C1213082   1.605   0.211   9.320  0.5005  0.3307 -0.2752
   9723SM  H12A13083   1.548   0.141   9.379 -0.1321  0.7845 -0.3385
   9723SM  H12B13084   1.606   0.306   9.370 -0.3576 -0.7307  1.8814
   9723SM   C1113085   1.753   0.148   9.335 -0.6644 -0.2609 -0.2840
   9723SM  H11A13086   1.750   0.052   9.280 -0.0091 -1.1876  1.2285
   9723SM  H11B13087   1.760   0.143   9.446 -0.4994 -1.7820 -0.3434
   9723SM     P13088   1.996   0.163   9.259  0.0190 -0.0953  0.0268
   9723SM   O1313089   1.987   0.052   9.166  0.7052  0.4124  0.0275
   9723SM   O1413090   2.096   0.269   9.227  0.2630 -0.2452  0.0209
   9723SM   O1113091   2.018   0.099   9.399  0.0123  0.2323 -0.6014
   9723SM   O1213092   1.852   0.234   9.277 -0.2044  0.3808 -0.0816
   9723SM   C1S13093   2.098   0.171   9.500 -0.4002 -0.2105  0.3256
   9723SM   H1S13094   2.038   0.263   9.521 -0.4080  0.1591 -1.1936
   9723SM   H1T13095   2.204   0.196   9.481  0.3853 -2.9322  0.7124
   9723SM    NF13096   2.159   0.178   9.741 -0.1061 -0.1398 -0.5842
   9723SM   HNF13097   2.253   0.169   9.773 -0.5992 -2.8888  0.3122
   9723SM   C2S13098   2.100   0.091   9.633 -0.8283 -0.7885 -0.0530
   9723SM   H2S13099   1.996   0.062   9.660 -0.1694 -1.8440  1.5021
   9723SM   C3S13100   2.174  -0.039   9.602  0.6786  0.3949 -0.0104
   9723SM   H3S13101   2.279  -0.015   9.574  0.7133 -0.4354 -0.6298
   9723SM    O313102   2.122  -0.118   9.493 -0.0068  0.5718 -0.5300
   9723SM   HO313103   2.053  -0.059   9.463  0.8352  1.8572 -0.0198
   9723SM   C4S13104   2.162  -0.122   9.729 -0.1365  0.6471  0.2579
   9723SM   H4S13105   2.256  -0.139   9.782 -0.0040 -1.9517 -0.6693
   9723SM   C5S13106   2.054  -0.184   9.786 -0.4560 -0.3122 -0.4222
   9723SM   H5S13107   1.960  -0.181   9.730 -0.5556  0.0744 -0.2354
   9723SM   C6S13108   2.046  -0.252   9.922  0.0531 -0.3752  0.1350
   9723SM   H6S13109   1.993  -0.349   9.913 -0.2779 -0.3714  1.7501
   9723SM   H6T13110   1.983  -0.190   9.989  0.8185  2.0149 -1.2474
   9723SM   C7S13111   2.178  -0.277   9.995  0.0938  0.9876 -0.5406
   9723SM   H7S13112   2.237  -0.183  10.006  0.6874  0.5129  0.6421
   9723SM   H7T13113   2.225  -0.352   9.929 -2.2150 -0.8206 -0.2500
   9723SM   C8S13114   2.174  -0.338  10.139  0.4013  0.2989 -0.8681
   9723SM   H8S13115   2.102  -0.423  10.140 -1.7576  1.9774  1.0690
   9723SM   H8T13116   2.137  -0.255  10.203  1.6625  0.3812 -0.2173
   9723SM   C9S13117   2.311  -0.386  10.182 -0.4261  0.1030  0.7000
   9723SM   H9S13118   2.392  -0.310  10.179 -0.9330  0.7107 -3.5960
   9723SM   H9T13119   2.344  -0.462  10.108 -0.2288 -0.4892  1.3901
   9723SM  C10S13120   2.300  -0.449  10.322 -0.1207  0.1061  0.6747
   9723SM  H10S13121   2.392  -0.507  10.347  0.4586  1.2047  1.1857
   9723SM  H10T13122   2.206  -0.506  10.334  0.8081 -1.9584 -1.1930
   9723SM  C11S13123   2.284  -0.339  10.432  0.4899 -0.3699  0.5186
   9723SM  H11S13124   2.174  -0.323  10.427  0.5731  0.2706  0.7133
   9723SM  H11T13125   2.337  -0.246  10.404 -0.9244  0.3210  0.0717
   9723SM  C12S13126   2.321  -0.398  10.566  0.5105  0.4600 -0.5721
   9723SM  H12S13127   2.431  -0.415  10.570  0.2634 -1.0753  0.3157
   9723SM  H12T13128   2.278  -0.500  10.571  2.6953 -0.5624 -1.1785
   9723SM  C13S13129   2.259  -0.321  10.678  0.2067 -0.4837 -0.5328
   9723SM  H13S13130   2.149  -0.322  10.691  0.4559  1.6877  3.9171
   9723SM  H13T13131   2.288  -0.215  10.664  0.0504 -0.3896 -0.1645
   9723SM  C14S13132   2.318  -0.356  10.815  0.4790 -0.8991 -0.6404
   9723SM  H14S13133   2.427  -0.331  10.812  0.3165  0.2316  1.2904
   9723SM  H14T13134   2.308  -0.460  10.852  0.3990 -1.3039 -1.7541
   9723SM  C15S13135   2.250  -0.265  10.923  0.2417  0.0535 -0.1640
   9723SM  H15S13136   2.304  -0.263  11.020  0.9757  1.6178 -0.5630
   9723SM  H15T13137   2.148  -0.308  10.928 -0.2400  1.0986 -0.6035
   9723SM  C16S13138   2.249  -0.114  10.885 -0.0463 -0.4652  0.3556
   9723SM  H16S13139   2.195  -0.089  10.791  1.4659 -0.2994 -0.4979
   9723SM  H16T13140   2.358  -0.098  10.873  0.4112  1.0972  4.8134
   9723SM  C17S13141   2.191  -0.019  10.992 -0.0774 -0.1644 -0.1106
   9723SM  H17S13142   2.235  -0.040  11.091 -0.6260 -0.8497 -0.0005
   9723SM  H17T13143   2.081  -0.025  11.006  0.3658 -0.4547  5.4943
   9723SM  C18S13144   2.228   0.124  10.966  0.4456 -0.4261  0.4263
   9723SM  H18S13145   2.183   0.153  10.869  2.7507 -1.6104 -1.0651
   9723SM  H18T13146   2.335   0.139  10.941  0.6480 -1.8102  0.3983
   9723SM  H18U13147   2.204   0.197  11.047  1.1876 -0.2902  0.5341
   9723SM   C1F13148   2.088   0.284   9.787 -0.2717  0.1925  0.6284
   9723SM    OF13149   1.977   0.303   9.750  0.1868 -0.1640 -0.2355
   9723SM   C2F13150   2.148   0.374   9.899  0.2975  0.4602  0.1127
   9723SM   H2F13151   2.064   0.388   9.971  0.7768 -1.0748  1.0207
   9723SM   H2G13152   2.167   0.477   9.862 -0.3832  1.0452  1.2993
   9723SM   C3F13153   2.261   0.316   9.983  0.0819  0.3729  0.2567
   9723SM   H3F13154   2.297   0.399  10.049  0.8424  0.8182 -0.6975
   9723SM   H3G13155   2.349   0.284   9.923  0.0030  0.0808  0.2962
   9723SM   C4F13156   2.212   0.201  10.067 -0.3612  0.4714 -0.1102
   9723SM   H4F13157   2.181   0.119   9.998  1.3503  1.1582 -1.8102
   9723SM   H4G13158   2.119   0.224  10.122  0.9651  0.1375  2.4075
   9723SM   C5F13159   2.315   0.160  10.170  0.9229  0.0373 -0.7050
   9723SM   H5F13160   2.335   0.250  10.233  0.2598 -0.1420 -0.2335
   9723SM   H5G13161   2.409   0.116  10.130  0.4295 -0.6311 -1.1407
   9723SM   C6F13162   2.266   0.051  10.270  0.0807 -0.7907 -0.3843
   9723SM   H6F13163   2.343   0.035  10.349  0.2280 -1.3224 -0.6342
   9723SM   H6G13164   2.246  -0.040  10.210  0.3080 -1.4572  0.5241
   9723SM   C7F13165   2.132   0.081  10.353  0.2259 -0.4079  0.1607
   9723SM   H7F13166   2.047   0.017  10.323  0.6222 -1.0344  0.3353
   9723SM   H7G13167   2.097   0.182  10.324 -0.6157 -0.2869  1.5108
   9723SM   C8F13168   2.160   0.068  10.502 -0.1530 -0.0036  0.0009
   9723SM   H8F13169   2.221   0.157  10.531  2.4519 -2.6610  3.5885
   9723SM   H8G13170   2.206  -0.029  10.531  2.3683  0.6847 -1.3745
   9723SM   C9F13171   2.036   0.084  10.597 -0.5754 -0.6800  0.4034
   9723SM   H9F13172   2.007   0.191  10.598 -0.4864 -0.6605  1.4296
   9723SM   H9G13173   2.071   0.061  10.700  0.6781  2.1718  0.7103
   9723SM  C10F13174   1.921  -0.005  10.567  0.5535 -0.2264 -0.0408
   9723SM  H10F13175   1.861   0.012  10.475  0.1195 -0.0336  0.2761
   9723SM  H10G13176   1.851   0.028  10.647  1.3654 -0.1905  0.6738
   9723SM  C11F13177   1.949  -0.152  10.566 -0.0237 -0.3112 -0.8540
   9723SM  H11F13178   1.996  -0.177  10.663 -2.4772 -0.3529  0.4089
   9723SM  H11G13179   2.033  -0.166  10.495 -0.1854  2.5800 -1.7374
   9723SM  C12F13180   1.827  -0.235  10.530 -0.5718 -0.7187  0.2858
   9723SM  H12F13181   1.796  -0.213  10.426  1.2919  2.4950  0.2564
   9723SM  H12G13182   1.740  -0.222  10.597 -0.4190  0.1844  0.3177
   9723SM  C13F13183   1.860  -0.387  10.536 -0.2824  0.3801  0.2098
   9723SM  H13F13184   1.966  -0.401  10.508  0.0377  2.0562  0.5009
   9723SM  H13G13185   1.809  -0.449  10.459  0.3462  0.0823  0.0242
   9723SM  C14F13186   1.841  -0.445  10.669  0.2131 -0.6896 -0.0166
   9723SM  H14F13187   1.754  -0.400  10.721 -0.4923 -3.0558  0.9871
   9723SM  H14G13188   1.925  -0.416  10.736  0.4398 -0.0376 -0.5703
   9723SM  C15F13189   1.824  -0.602  10.670 -0.0061 -0.7755  0.4450
   9723SM  H15F13190   1.763  -0.614  10.578  0.6808  2.3289 -0.5417
   9723SM  H15G13191   1.757  -0.625  10.756 -2.9553  0.0409 -1.4729
   9723SM  C16F13192   1.954  -0.674  10.657 -0.0893 -0.0725 -0.0782
   9723SM  H16F13193   1.998  -0.659  10.758 -2.4506 -0.8228  1.1232
   9723SM  H16G13194   1.999  -0.634  10.563  0.1784 -1.4225 -0.5423
   9723SM  C17F13195   1.933  -0.818  10.634  0.8730 -0.0037  0.5351
   9723SM  H17F13196   1.853  -0.852  10.703  1.6823 -0.3768  1.3223
   9723SM  H17G13197   2.021  -0.874  10.673  1.6098  0.9822  0.3321
   9723SM  C18F13198   1.914  -0.848  10.483  0.0768 -0.5472 -0.3587
   9723SM  H18F13199   2.017  -0.871  10.447  0.1961 -1.0301  0.2688
   9723SM  H18G13200   1.870  -0.762  10.429 -1.0836  0.4272  1.9931
   9723SM  C19F13201   1.826  -0.973  10.458  0.4528 -0.0506  0.7037
   9723SM  H19F13202   1.727  -0.954  10.505  0.1658  1.8553 -0.5501
   9723SM  H19G13203   1.869  -1.060  10.514  0.5731 -1.5861 -1.6492
   9723SM  C20F13204   1.802  -1.004  10.311 -0.1580 -0.1341  0.2377
   9723SM  H20F13205   1.899  -1.046  10.276  0.9588  2.0650  0.4978
   9723SM  H20G13206   1.786  -0.906  10.262  1.4924  1.1618  2.1109
   9723SM  C21F13207   1.678  -1.095  10.298 -0.4824 -0.2661 -0.6737
   9723SM  H21F13208   1.597  -1.022  10.321  0.2401 -0.0500  1.3830
   9723SM  H21G13209   1.688  -1.181  10.368  0.3561 -1.3957 -2.1278
   9723SM  C22F13210   1.672  -1.146  10.154  0.6038  0.3382 -0.8913
   9723SM  H22F13211   1.765  -1.201  10.128 -0.3411 -2.1157  0.5655
   9723SM  H22G13212   1.659  -1.063  10.082  0.3891  0.5556 -0.6015
   9723SM  C23F13213   1.561  -1.256  10.156  0.0816  0.4946  0.3280
   9723SM  H23F13214   1.459  -1.215  10.167 -0.3703 -0.5365  0.1225
   9723SM  H23G13215   1.576  -1.335  10.233  2.6687 -0.5885 -1.1306
   9723SM  H23H13216   1.572  -1.312  10.060 -1.4334  0.8834 -0.1017
   9823SM     N13217   2.838   2.396   9.521  0.0447 -0.3410  0.7764
   9823SM   C1513218   2.921   2.312   9.613 -0.1312  0.0919  0.8408
   9823SM  H15A13219   2.978   2.240   9.556 -0.8605  0.1406  0.0241
   9823SM  H15B13220   2.854   2.266   9.684 -0.8782 -0.6803 -0.3326
   9823SM  H15C13221   2.999   2.372   9.658  1.1398  0.5374 -1.7824
   9823SM   C1413222   2.711   2.321   9.486 -0.5500 -0.0044  0.1821
   9823SM  H14A13223   2.737   2.226   9.441  2.0874 -0.8054  2.9864
   9823SM  H14B13224   2.645   2.373   9.418 -0.4332 -0.5792 -0.3804
   9823SM  H14C13225   2.645   2.291   9.566  0.9954  0.2135  1.6164
   9823SM   C1313226   2.802   2.528   9.595 -0.4153  0.3277 -0.5093
   9823SM  H13A13227   2.759   2.513   9.693 -0.6943  1.8716 -0.3683
   9823SM  H13B13228   2.720   2.575   9.542 -1.3135 -1.7013 -1.0522
   9823SM  H13C13229   2.884   2.598   9.599 -1.5699  1.9405 -2.6810
   9823SM   C1213230   2.911   2.436   9.397 -0.0444  0.0275 -0.8100
   9823SM  H12A13231   2.834   2.483   9.338 -0.7139 -1.3697 -1.0880
   9823SM  H12B13232   2.940   2.342   9.353 -1.7096 -0.9329  0.0217
   9823SM   C1113233   3.036   2.525   9.420 -0.1349  0.4888  0.1991
   9823SM  H11A13234   3.101   2.510   9.330 -0.2766 -1.1536  0.3400
   9823SM  H11B13235   3.087   2.492   9.512 -0.3869 -0.6492 -0.0536
   9823SM     P13236   3.109   2.755   9.450 -0.8290  0.1483  0.2944
   9823SM   O1313237   3.214   2.743   9.342 -1.0071  0.0885  0.1307
   9823SM   O1413238   3.062   2.896   9.469 -0.3681 -0.1239  0.0371
   9823SM   O1113239   3.171   2.712   9.592 -0.0308  0.4996 -0.4077
   9823SM   O1213240   2.994   2.657   9.432 -0.1017 -0.2563  0.1520
   9823SM   C1S13241   3.310   2.745   9.625  0.3195  0.4529 -1.2201
   9823SM   H1S13242   3.325   2.855   9.630 -2.5114  0.9698 -2.1301
   9823SM   H1T13243   3.379   2.699   9.551  0.3930 -0.5818 -0.5346
   9823SM    NF13244   3.495   2.728   9.780 -0.0923  0.3483  0.5813
   9823SM   HNF13245   3.567   2.668   9.747  3.5836  4.0725  1.0055
   9823SM   C2S13246   3.356   2.689   9.764 -0.2321 -0.0281 -0.1185
   9823SM   H2S13247   3.306   2.751   9.842  0.7413  2.3999 -1.3005
   9823SM   C3S13248   3.330   2.532   9.784 -0.7788 -0.3507 -0.0338
   9823SM   H3S13249   3.384   2.462   9.717 -1.1364 -0.2479 -0.4323
   9823SM    O313250   3.195   2.488   9.764 -0.9755  0.0789 -0.4406
   9823SM   HO313251   3.144   2.568   9.747 -3.4563 -1.2478  0.1803
   9823SM   C4S13252   3.369   2.492   9.925 -0.9813  0.2870  0.3636
   9823SM   H4S13253   3.299   2.526  10.003 -0.7105  0.1026  0.6890
   9823SM   C5S13254   3.482   2.419   9.945 -0.3207  0.0218  0.2165
   9823SM   H5S13255   3.532   2.385   9.853 -1.9754 -1.0494 -0.3412
   9823SM   C6S13256   3.534   2.375  10.078  0.1259  0.6050  0.3531
   9823SM   H6S13257   3.644   2.379  10.084  0.5351 -1.5800 -2.9298
   9823SM   H6T13258   3.499   2.270  10.091 -0.6282  0.9993  1.7076
   9823SM   C7S13259   3.476   2.457  10.193 -0.1691 -0.1139 -0.1356
   9823SM   H7S13260   3.366   2.457  10.206 -0.4235  2.9820 -1.4588
   9823SM   H7T13261   3.511   2.562  10.193 -0.8803  0.1312  0.0776
   9823SM   C8S13262   3.530   2.404  10.332 -0.1554  0.1829 -0.8594
   9823SM   H8S13263   3.640   2.417  10.319  0.0188 -0.1528  0.1585
   9823SM   H8T13264   3.514   2.295  10.349  1.0437 -0.4088 -3.1015
   9823SM   C9S13265   3.473   2.482  10.452 -0.1885  0.9268  0.0873
   9823SM   H9S13266   3.365   2.459  10.452 -0.1699  0.8319  0.4086
   9823SM   H9T13267   3.489   2.592  10.441  0.6965  0.8698  0.6957
   9823SM  C10S13268   3.549   2.452  10.577 -0.0600 -0.0148  0.1495
   9823SM  H10S13269   3.659   2.465  10.567 -0.2701  0.1605 -2.7159
   9823SM  H10T13270   3.536   2.344  10.599  0.3034  0.5210  3.4903
   9823SM  C11S13271   3.514   2.535  10.701 -0.2332  0.0725  0.3435
   9823SM  H11S13272   3.541   2.642  10.699  0.7995 -0.1886 -1.5743
   9823SM  H11T13273   3.559   2.482  10.788 -0.7675 -1.8463 -0.4969
   9823SM  C12S13274   3.358   2.531  10.726 -0.0036 -0.9416  0.3583
   9823SM  H12S13275   3.342   2.421  10.736  0.4968 -1.3040 -2.1239
   9823SM  H12T13276   3.304   2.569  10.637 -0.4023  0.0989  1.0244
   9823SM  C13S13277   3.304   2.624  10.837  0.3496  0.2935 -0.0574
   9823SM  H13S13278   3.368   2.603  10.926 -1.1583  0.8945  1.1987
   9823SM  H13T13279   3.198   2.591  10.843  0.2149  0.9840  1.9497
   9823SM  C14S13280   3.308   2.767  10.798  0.0946  0.2543 -0.3694
   9823SM  H14S13281   3.297   2.777  10.688  2.9127  0.6519 -0.7046
   9823SM  H14T13282   3.409   2.812  10.813 -1.1991  3.3845 -0.2966
   9823SM  C15S13283   3.203   2.858  10.867 -0.4236 -0.2031  0.5974
   9823SM  H15S13284   3.191   2.833  10.975 -1.3585  0.8288  0.7561
   9823SM  H15T13285   3.099   2.846  10.829 -1.0285  2.0522  1.3770
   9823SM  C16S13286   3.243   3.008  10.853 -0.0142 -0.8365  0.3615
   9823SM  H16S13287   3.346   2.997  10.894 -0.8272 -0.9448  2.5004
   9823SM  H16T13288   3.178   3.070  10.918 -0.7418 -0.2238 -0.9292
   9823SM  C17S13289   3.247   3.068  10.707  0.4635  0.1114 -0.5783
   9823SM  H17S13290   3.150   3.076  10.653  0.7615  0.7486 -1.0249
   9823SM  H17T13291   3.308   2.999  10.644  0.4281 -0.2707 -0.1994
   9823SM  C18S13292   3.317   3.200  10.696  0.0906  0.5388 -0.4153
   9823SM  H18S13293   3.264   3.279  10.753 -1.8902 -0.6308 -0.5236
   9823SM  H18T13294   3.330   3.237  10.592  0.7620  0.4305 -0.3736
   9823SM  H18U13295   3.413   3.195  10.752  1.1824 -3.6177 -2.2460
   9823SM   C1F13296   3.536   2.847   9.804  0.7126  0.0549  0.7642
   9823SM    OF13297   3.457   2.941   9.823  0.6395  0.4878 -0.2542
   9823SM   C2F13298   3.681   2.868   9.786 -0.4855 -0.0723 -0.6401
   9823SM   H2F13299   3.698   2.911   9.686 -1.4557 -1.4415 -1.4316
   9823SM   H2G13300   3.728   2.767   9.788 -1.8132 -0.7286 -0.7558
   9823SM   C3F13301   3.741   2.947   9.903  0.7086  0.3128 -0.6583
   9823SM   H3F13302   3.731   3.057   9.895 -0.5389  0.2974  0.2706
   9823SM   H3G13303   3.851   2.932   9.902  0.8430  1.3011 -1.0039
   9823SM   C4F13304   3.699   2.892  10.041 -0.2046 -0.4361 -0.3260
   9823SM   H4F13305   3.595   2.927  10.057 -1.1491 -2.4855 -1.5273
   9823SM   H4G13306   3.760   2.952  10.111  1.8040 -2.7570  0.0813
   9823SM   C5F13307   3.727   2.745  10.074  0.5765  0.0622 -0.5394
   9823SM   H5F13308   3.674   2.681  10.001 -0.9243 -0.1799  0.6934
   9823SM   H5G13309   3.686   2.721  10.175  0.3039 -1.5963 -1.0188
   9823SM   C6F13310   3.877   2.702  10.067  0.1609 -0.4467 -0.3961
   9823SM   H6F13311   3.929   2.766  10.142 -0.9542 -0.0320  0.0525
   9823SM   H6G13312   3.928   2.718   9.970  1.1795 -0.5441  0.1114
   9823SM   C7F13313   3.894   2.557  10.117 -0.4615 -0.5409  0.2440
   9823SM   H7F13314   3.868   2.493  10.030  0.7851 -0.8407  0.0756
   9823SM   H7G13315   3.825   2.542  10.203 -2.9173 -3.2469 -1.9844
   9823SM   C8F13316   4.040   2.527  10.153  0.9299 -0.2278 -0.0449
   9823SM   H8F13317   4.055   2.574  10.252 -1.4797 -1.0073  0.7385
   9823SM   H8G13318   4.100   2.579  10.075  1.3120  0.3118  0.5955
   9823SM   C9F13319   4.071   2.377  10.174  0.0689  0.0546  0.0293
   9823SM   H9F13320   4.045   2.315  10.085  1.8273 -0.5449 -0.1090
   9823SM   H9G13321   4.002   2.335  10.251 -2.6232  1.3024 -1.5693
   9823SM  C10F13322   4.222   2.337  10.191 -0.0972  0.1167 -0.0661
   9823SM  H10F13323   4.261   2.394  10.278 -2.0461 -0.7902  1.5030
   9823SM  H10G13324   4.283   2.351  10.100  1.1979 -0.6431  0.6621
   9823SM  C11F13325   4.239   2.190  10.211  0.1469  0.5742 -0.6581
   9823SM  H11F13326   4.191   2.146  10.120 -0.7847  0.8514 -0.3143
   9823SM  H11G13327   4.170   2.165  10.294 -0.6469  1.1997 -1.1143
   9823SM  C12F13328   4.380   2.134  10.227  0.3221 -0.4228 -0.5782
   9823SM  H12F13329   4.415   2.174  10.324  0.1652 -2.1543  0.2097
   9823SM  H12G13330   4.436   2.191  10.149 -3.0999  1.0204 -2.1790
   9823SM  C13F13331   4.392   1.977  10.219 -0.2410 -0.0271 -0.1013
   9823SM  H13F13332   4.328   1.931  10.141 -0.8976  0.8850 -0.1231
   9823SM  H13G13333   4.345   1.927  10.306 -0.7279  0.1308 -0.2675
   9823SM  C14F13334   4.539   1.926  10.205 -0.2137 -0.2513 -0.0170
   9823SM  H14F13335   4.586   1.968  10.297  1.2370 -2.8261  0.5004
   9823SM  H14G13336   4.588   1.974  10.118  2.5891 -3.4865 -0.4334
   9823SM  C15F13337   4.553   1.777  10.194 -0.1822  0.6410  0.0899
   9823SM  H15F13338   4.658   1.754  10.166 -1.0059 -1.5733 -1.5305
   9823SM  H15G13339   4.493   1.733  10.111  1.0870  0.2835 -0.6547
   9823SM  C16F13340   4.526   1.692  10.315  0.2400  0.3289 -0.1084
   9823SM  H16F13341   4.433   1.716  10.371  0.0369  2.3093 -1.1809
   9823SM  H16G13342   4.605   1.706  10.392  0.3713 -0.2682 -0.1334
   9823SM  C17F13343   4.550   1.541  10.270  0.0321  0.4073  0.7475
   9823SM  H17F13344   4.650   1.541  10.222 -0.6820 -0.4735 -0.8369
   9823SM  H17G13345   4.472   1.511  10.196  0.0976 -2.6038  1.7831
   9823SM  C18F13346   4.549   1.449  10.387  0.0214 -0.4265 -0.0058
   9823SM  H18F13347   4.448   1.429  10.429 -0.2171 -0.2143 -0.4695
   9823SM  H18G13348   4.603   1.490  10.475 -1.7955 -0.4803  1.2098
   9823SM  C19F13349   4.603   1.311  10.341 -0.0171  0.0022 -0.3627
   9823SM  H19F13350   4.706   1.334  10.305 -0.0146  0.6243  0.0128
   9823SM  H19G13351   4.536   1.267  10.265 -0.4119  0.8980 -0.5473
   9823SM  C20F13352   4.611   1.207  10.460 -0.7311 -1.0538 -0.2367
   9823SM  H20F13353   4.612   1.108  10.411  1.2469 -0.4946 -1.3950
   9823SM  H20G13354   4.518   1.211  10.522  0.0479 -0.3998  0.9348
   9823SM  C21F13355   4.719   1.225  10.561 -0.0467  0.0512 -1.0987
   9823SM  H21F13356   4.681   1.206  10.664 -1.6287  4.4546 -0.6424
   9823SM  H21G13357   4.744   1.333  10.569 -1.0686  0.1859  1.5125
   9823SM  C22F13358   4.849   1.146  10.548 -0.2904  0.3143  0.6326
   9823SM  H22F13359   4.898   1.183  10.456 -3.4263  0.6674 -1.0359
   9823SM  H22G13360   4.833   1.038  10.527 -0.0136  0.6766 -1.7401
   9823SM  C23F13361   4.949   1.163  10.663  0.1149 -0.2178 -0.0961
   9823SM  H23F13362   5.004   1.260  10.658 -0.2375  0.0172  0.5686
   9823SM  H23G13363   5.029   1.086  10.654  0.3940 -0.1419  1.4464
   9823SM  H23H13364   4.901   1.173  10.762 -2.1644  0.2995 -1.1910
   9923SM     N13365   7.258   0.537   9.450 -0.0927  0.1065  0.3149
   9923SM   C1513366   7.152   0.584   9.365 -0.7401  0.1213  0.4390
   9923SM  H15A13367   7.073   0.512   9.348  0.2036 -0.7544 -0.4025
   9923SM  H15B13368   7.196   0.602   9.268 -1.3946  0.6455  0.2324
   9923SM  H15C13369   7.107   0.674   9.404 -0.6251  0.2354  0.3104
   9923SM   C1413370   7.309   0.404   9.401 -0.2099  0.6510 -0.2126
   9923SM  H14A13371   7.389   0.367   9.463  1.3923  2.5754 -1.0198
   9923SM  H14B13372   7.364   0.410   9.308  2.2036 -1.3082  0.9637
   9923SM  H14C13373   7.240   0.323   9.380  0.6516 -0.6038  1.5626
   9923SM   C1313374   7.366   0.642   9.436  0.7163  0.6452  0.7593
   9923SM  H13A13375   7.459   0.613   9.482  1.9344 -0.6044 -2.1709
   9923SM  H13B13376   7.339   0.743   9.463  2.0861  1.5008 -0.8535
   9923SM  H13C13377   7.384   0.650   9.329  0.4871 -3.4740  0.2340
   9923SM   C1213378   7.212   0.518   9.598 -0.0581  0.0478  0.1128
   9923SM  H12A13379   7.292   0.468   9.651 -0.2616  0.0418  0.4204
   9923SM  H12B13380   7.122   0.459   9.591 -0.0932 -0.1012  1.5545
   9923SM   C1113381   7.174   0.653   9.669 -0.2403 -0.1106 -0.0899
   9923SM  H11A13382   7.256   0.729   9.665 -0.1951 -0.1707 -0.3065
   9923SM  H11B13383   7.162   0.620   9.774 -0.3432 -0.7865 -0.3134
   9923SM     P13384   6.926   0.692   9.676  0.6127  0.1513  0.0956
   9923SM   O1313385   6.833   0.779   9.598  0.0226 -0.4335  0.1773
   9923SM   O1413386   6.900   0.548   9.682  0.0975 -0.5789  0.9188
   9923SM   O1113387   6.941   0.742   9.830  0.5672 -0.4304 -0.1908
   9923SM   O1213388   7.067   0.713   9.611  0.4010 -0.0630 -0.0344
   9923SM   C1S13389   6.961   0.883   9.857  0.2432  0.5731  0.4064
   9923SM   H1S13390   6.875   0.936   9.811 -0.1491 -0.0907  0.3504
   9923SM   H1T13391   7.047   0.934   9.810  0.2702 -1.1790 -1.5980
   9923SM    NF13392   6.972   1.055  10.044 -0.7363 -0.9447 -0.3985
   9923SM   HNF13393   7.060   1.102  10.056 -0.9850 -0.2820 -1.0593
   9923SM   C2S13394   6.984   0.911  10.005 -0.3278  0.2417 -0.6248
   9923SM   H2S13395   6.897   0.863  10.054  0.3196  0.2670  0.5746
   9923SM   C3S13396   7.119   0.837  10.052  0.0545 -0.0640 -0.2224
   9923SM   H3S13397   7.196   0.872   9.980  1.1347  1.8535  1.7289
   9923SM    O313398   7.110   0.695  10.035 -0.5514  0.3438  0.0582
   9923SM   HO313399   7.046   0.680   9.964  1.0209 -2.8170 -0.8671
   9923SM   C4S13400   7.143   0.860  10.202  0.3950 -0.1077 -0.0069
   9923SM   H4S13401   7.209   0.946  10.224 -0.6948  1.3764 -2.1874
   9923SM   C5S13402   7.088   0.786  10.301 -0.0436 -0.2359 -0.1056
   9923SM   H5S13403   7.027   0.700  10.273 -1.2809  0.6462 -0.1799
   9923SM   C6S13404   7.112   0.815  10.449 -0.4430 -0.5561  0.2229
   9923SM   H6S13405   7.015   0.831  10.502  0.1350 -4.7397  3.0459
   9923SM   H6T13406   7.173   0.907  10.452  0.0750 -0.7846 -1.8734
   9923SM   C7S13407   7.191   0.701  10.532 -0.2525  0.7130  0.8858
   9923SM   H7S13408   7.289   0.676  10.484 -1.0735  0.0433 -0.5139
   9923SM   H7T13409   7.125   0.612  10.523 -0.8848  1.3639 -2.8249
   9923SM   C8S13410   7.222   0.736  10.677  0.2124 -0.5734 -0.6826
   9923SM   H8S13411   7.129   0.778  10.721 -0.1345 -0.4753 -1.4917
   9923SM   H8T13412   7.305   0.810  10.677 -1.8624  1.9597  0.9181
   9923SM   C9S13413   7.270   0.611  10.749  0.1706  0.3283 -0.9120
   9923SM   H9S13414   7.347   0.572  10.679 -0.0825  1.1199 -1.6520
   9923SM   H9T13415   7.191   0.535  10.766  1.4685 -0.5324  1.7944
   9923SM  C10S13416   7.331   0.625  10.888  0.4458 -0.4728  0.1776
   9923SM  H10S13417   7.238   0.656  10.939  0.4736  1.5396 -0.9000
   9923SM  H10T13418   7.403   0.710  10.885 -0.0037 -0.1105 -1.3944
   9923SM  C11S13419   7.408   0.497  10.927  0.9145 -0.1870  0.0783
   9923SM  H11S13420   7.511   0.526  10.899  0.1040  3.0021 -0.0481
   9923SM  H11T13421   7.371   0.416  10.862 -1.3701  0.0048  1.0240
   9923SM  C12S13422   7.404   0.446  11.070 -0.5458  0.5384  0.3771
   9923SM  H12S13423   7.449   0.522  11.138  0.9635  0.6825 -0.7364
   9923SM  H12T13424   7.466   0.354  11.075  2.0192  2.1904  1.5961
   9923SM  C13S13425   7.258   0.420  11.119  0.3212 -0.1261  0.1253
   9923SM  H13S13426   7.208   0.519  11.111 -2.5368 -1.4308  0.3828
   9923SM  H13T13427   7.266   0.385  11.224 -0.0054 -0.6644 -0.0276
   9923SM  C14S13428   7.182   0.307  11.046  0.5211 -0.4183 -0.7824
   9923SM  H14S13429   7.210   0.209  11.090  0.8819  0.4350  0.9876
   9923SM  H14T13430   7.210   0.310  10.939 -0.6461  2.0123 -1.0682
   9923SM  C15S13431   7.027   0.314  11.049  0.0818  0.3369 -0.0843
   9923SM  H15S13432   6.986   0.255  10.964 -0.7516  0.4687  0.2182
   9923SM  H15T13433   6.986   0.415  11.032 -2.5567 -0.5200  0.7254
   9923SM  C16S13434   6.973   0.251  11.180 -0.4645 -0.2541 -0.2865
   9923SM  H16S13435   6.866   0.281  11.181 -0.8155 -1.4495 -0.5241
   9923SM  H16T13436   7.021   0.298  11.268 -0.6221  0.9460 -0.8185
   9923SM  C17S13437   6.978   0.094  11.185  0.6010  0.5631  0.0877
   9923SM  H17S13438   7.037   0.053  11.100  0.2721  0.4705 -0.0976
   9923SM  H17T13439   6.878   0.046  11.184  2.0021 -2.5837  0.0208
   9923SM  C18S13440   7.049   0.042  11.308  0.4112  0.1454  0.1147
   9923SM  H18S13441   7.147   0.093  11.320  1.5516 -2.0634  0.7541
   9923SM  H18T13442   7.052  -0.068  11.294 -0.4915  0.0329  0.7782
   9923SM  H18U13443   6.998   0.067  11.403 -1.1414  1.2116 -0.9474
   9923SM   C1F13444   6.857   1.117  10.048 -0.3411 -0.9877  0.0517
   9923SM    OF13445   6.758   1.060  10.017  1.0265 -0.0666  0.0222
   9923SM   C2F13446   6.869   1.261  10.090  0.0023  0.4897  0.3430
   9923SM   H2F13447   6.954   1.309  10.035 -0.1441  1.6650  1.1083
   9923SM   H2G13448   6.895   1.267  10.198  0.0652 -1.7984  0.5013
   9923SM   C3F13449   6.740   1.340  10.066 -0.2583 -0.5138  0.0622
   9923SM   H3F13450   6.658   1.319  10.138  0.5927  3.4766  2.5463
   9923SM   H3G13451   6.722   1.317   9.959  0.7951  3.9118 -1.2850
   9923SM   C4F13452   6.779   1.492  10.069 -0.5248  0.7380  0.3997
   9923SM   H4F13453   6.693   1.553  10.033 -1.6389 -0.6467  0.6382
   9923SM   H4G13454   6.866   1.500  10.000  0.6218 -0.6693  1.6059
   9923SM   C5F13455   6.815   1.554  10.211 -0.2630 -0.3114  0.0963
   9923SM   H5F13456   6.900   1.492  10.247 -2.0462 -2.7479  0.4107
   9923SM   H5G13457   6.727   1.540  10.277 -1.2984  1.3347 -0.8711
   9923SM   C6F13458   6.858   1.701  10.203 -0.1351  0.7437  0.4489
   9923SM   H6F13459   6.776   1.764  10.163  1.2489  1.4894 -1.3083
   9923SM   H6G13460   6.949   1.707  10.141  1.3009 -2.1892  2.0560
   9923SM   C7F13461   6.887   1.752  10.341 -0.3470 -0.1558  0.0498
   9923SM   H7F13462   6.945   1.675  10.396 -0.7590 -0.8706 -0.4988
   9923SM   H7G13463   6.795   1.776  10.400  2.2528  5.5269  2.5949
   9923SM   C8F13464   6.965   1.887  10.347  0.5570 -0.0519  0.3171
   9923SM   H8F13465   6.912   1.960  10.282  0.1027 -1.3377 -0.8235
   9923SM   H8G13466   7.070   1.878  10.314  1.4166 -1.0420  3.0227
   9923SM   C9F13467   6.956   1.935  10.492 -0.1589  0.3415  0.2874
   9923SM   H9F13468   6.851   1.945  10.529  0.1187 -0.7901  1.4518
   9923SM   H9G13469   6.988   2.041  10.481 -0.7084  0.3176 -1.9102
   9923SM  C10F13470   7.043   1.857  10.589 -1.1535 -0.5246 -0.3043
   9923SM  H10F13471   7.144   1.863  10.542 -1.1448  1.0687 -0.1337
   9923SM  H10G13472   7.014   1.751  10.605 -0.6397 -0.6976 -0.4812
   9923SM  C11F13473   7.054   1.933  10.725 -0.1678 -0.1971  0.3594
   9923SM  H11F13474   7.100   2.035  10.724 -0.2024 -0.1858 -0.2774
   9923SM  H11G13475   7.111   1.865  10.792  1.7117 -0.2671 -1.2115
   9923SM  C12F13476   6.916   1.951  10.786  0.1505 -0.1214 -0.2111
   9923SM  H12F13477   6.862   1.854  10.787 -1.3904  0.6971  0.7643
   9923SM  H12G13478   6.850   2.025  10.734 -1.0381 -0.7577  0.3430
   9923SM  C13F13479   6.917   1.986  10.939 -0.6736 -0.5132 -0.6892
   9923SM  H13F13480   6.984   2.073  10.956  0.1059 -1.0828 -0.7409
   9923SM  H13G13481   6.967   1.903  10.994  1.4108  1.4448  0.5579
   9923SM  C14F13482   6.774   2.007  10.993  0.3555  0.1757  0.4238
   9923SM  H14F13483   6.705   2.042  10.914 -0.5288  1.1697  1.5997
   9923SM  H14G13484   6.776   2.078  11.079  1.9638 -1.0451  1.4597
   9923SM  C15F13485   6.716   1.875  11.047  0.5306  0.7555  0.4329
   9923SM  H15F13486   6.784   1.848  11.131  0.7038  0.4831  0.2075
   9923SM  H15G13487   6.713   1.790  10.976  1.8331 -0.3315  1.6120
   9923SM  C16F13488   6.572   1.892  11.112 -0.1213 -0.8550  0.3366
   9923SM  H16F13489   6.495   1.897  11.031 -0.8970  1.1481  1.1315
   9923SM  H16G13490   6.555   1.986  11.169  0.0276 -1.0779  0.7459
   9923SM  C17F13491   6.549   1.769  11.196 -0.8830 -0.2405  0.1829
   9923SM  H17F13492   6.577   1.791  11.301  0.9315 -0.5421 -0.2080
   9923SM  H17G13493   6.603   1.681  11.154 -2.3694 -2.0059  1.7310
   9923SM  C18F13494   6.397   1.718  11.198  0.9869  0.5086  0.2861
   9923SM  H18F13495   6.368   1.693  11.093  1.3033 -0.6456  0.4556
   9923SM  H18G13496   6.322   1.793  11.228 -1.0255 -1.2453 -0.1201
   9923SM  C19F13497   6.377   1.578  11.271  0.1520 -0.2768 -0.5620
   9923SM  H19F13498   6.404   1.584  11.379  0.2095  0.8702 -0.6288
   9923SM  H19G13499   6.445   1.506  11.221 -0.3488 -0.0865 -1.5395
   9923SM  C20F13500   6.241   1.515  11.240 -0.2693  0.7976 -0.0110
   9923SM  H20F13501   6.272   1.412  11.267  0.6880  1.2425  0.6408
   9923SM  H20G13502   6.212   1.505  11.133  0.2263  0.2188 -0.0950
   9923SM  C21F13503   6.129   1.581  11.321 -0.1171 -0.4704 -0.2047
   9923SM  H21F13504   6.107   1.677  11.269 -1.7651 -0.0480  1.1904
   9923SM  H21G13505   6.166   1.612  11.421  0.7976  1.8084 -1.1631
   9923SM  C22F13506   5.998   1.494  11.326 -0.0860 -0.9650 -0.1789
   9923SM  H22F13507   6.017   1.398  11.380 -0.6705 -1.2912 -0.5462
   9923SM  H22G13508   5.976   1.483  11.217 -0.7662 -1.2203 -0.0167
   9923SM  C23F13509   5.876   1.574  11.390  0.2749  0.1075  0.5468
   9923SM  H23F13510   5.855   1.675  11.347  0.0407  0.0272  0.4724
   9923SM  H23G13511   5.898   1.591  11.497  1.7303 -0.8657  0.4331
   9923SM  H23H13512   5.788   1.506  11.387  0.6124 -0.3880  1.4766
  10023SM     N13513   8.049   1.411   9.377  0.1929 -0.5445 -0.1054
  10023SM   C1513514   8.153   1.316   9.329 -0.2727 -0.4010 -0.2337
  10023SM  H15A13515   8.237   1.311   9.396 -0.2907  1.8081  0.0466
  10023SM  H15B13516   8.198   1.358   9.240  0.8495  0.1476  0.5761
  10023SM  H15C13517   8.132   1.211   9.320  3.1009 -1.1611 -0.6107
  10023SM   C1413518   8.090   1.558   9.382  0.0090 -0.7116 -0.1994
  10023SM  H14A13519   8.190   1.566   9.422  1.7334 -2.1570 -3.7838
  10023SM  H14B13520   8.012   1.597   9.446 -2.7586 -3.4184 -1.6801
  10023SM  H14C13521   8.102   1.606   9.286  3.6511 -0.5430  0.1907
  10023SM   C1313522   7.929   1.392   9.280  0.1970 -0.2570  0.1217
  10023SM  H13A13523   7.951   1.443   9.187  0.2590  2.3143  1.4425
  10023SM  H13B13524   7.837   1.428   9.323 -0.4336 -0.4217 -1.0538
  10023SM  H13C13525   7.921   1.286   9.263 -1.3378  0.1661 -2.3365
  10023SM   C1213526   8.005   1.374   9.521 -0.5540 -0.5855 -0.0284
  10023SM  H12A13527   8.092   1.342   9.576 -0.7098  0.2865  0.7525
  10023SM  H12B13528   7.950   1.282   9.505  0.9366 -1.3609 -0.8868
  10023SM   C1113529   7.924   1.474   9.612 -0.0894 -0.8946  0.2864
  10023SM  H11A13530   7.985   1.565   9.630 -0.8408  0.3763 -2.8986
  10023SM  H11B13531   7.904   1.427   9.711  1.4013 -1.7337  0.2209
  10023SM     P13532   7.665   1.450   9.586 -0.1621 -0.4687  0.0677
  10023SM   O1313533   7.561   1.535   9.529 -0.0413  0.1927  0.3079
  10023SM   O1413534   7.658   1.313   9.546  0.0552  0.2972 -1.0312
  10023SM   O1113535   7.645   1.460   9.743 -0.3643 -0.7622 -0.3964
  10023SM   O1213536   7.801   1.516   9.554 -0.2614 -0.4523  0.6040
  10023SM   C1S13537   7.668   1.586   9.819  0.4281  0.6471  0.3078
  10023SM   H1S13538   7.576   1.640   9.788 -2.1516 -2.0954  2.6017
  10023SM   H1T13539   7.764   1.627   9.781  0.6620 -0.3445 -0.2016
  10023SM    NF13540   7.679   1.691  10.045 -0.1262 -0.4583  0.7417
  10023SM   HNF13541   7.766   1.732  10.072  0.6839 -0.8478 -1.1350
  10023SM   C2S13542   7.684   1.566   9.969 -0.1118 -0.0520 -0.2453
  10023SM   H2S13543   7.613   1.486  10.001  0.6946  0.0094  1.8624
  10023SM   C3S13544   7.815   1.488  10.000  0.0033  0.5520  0.4876
  10023SM   H3S13545   7.896   1.560   9.975  0.1125  0.2725  0.0207
  10023SM    O313546   7.828   1.371   9.912  0.3111 -0.4811 -0.2246
  10023SM   HO313547   7.752   1.375   9.853  0.5612 -1.5495 -0.6444
  10023SM   C4S13548   7.827   1.436  10.141  0.4338  0.2077 -0.3342
  10023SM   H4S13549   7.738   1.384  10.179  1.2547  0.8554  2.7387
  10023SM   C5S13550   7.929   1.468  10.224 -0.5719 -0.3720  0.3876
  10023SM   H5S13551   8.015   1.523  10.182 -1.3917  0.1501 -0.6485
  10023SM   C6S13552   7.931   1.442  10.373  0.2574  0.4006 -0.1789
  10023SM   H6S13553   7.835   1.478  10.416 -1.1015 -2.2023 -0.8225
  10023SM   H6T13554   8.015   1.490  10.427  0.4230 -0.0414 -0.0361
  10023SM   C7S13555   7.936   1.287  10.407 -0.1644  0.6840 -0.3770
  10023SM   H7S13556   8.037   1.252  10.378 -0.2100 -0.0197  0.2783
  10023SM   H7T13557   7.866   1.217  10.356  1.1706  0.8037 -2.4742
  10023SM   C8S13558   7.911   1.271  10.555 -0.4210  0.1690  1.1747
  10023SM   H8S13559   7.916   1.160  10.562 -0.9807  0.1133  0.6918
  10023SM   H8T13560   7.807   1.293  10.587 -0.1254  1.1462  1.4916
  10023SM   C9S13561   8.013   1.335  10.649 -0.0116 -0.2912  0.1137
  10023SM   H9S13562   8.000   1.445  10.648 -0.5974 -0.3604 -0.3325
  10023SM   H9T13563   8.119   1.321  10.617  0.4371  0.0865  1.3768
  10023SM  C10S13564   7.992   1.281  10.791  0.5445  0.0272  0.3120
  10023SM  H10S13565   7.984   1.171  10.781  0.4884  0.2214 -2.6453
  10023SM  H10T13566   7.899   1.310  10.846  0.5481  0.9737 -0.1528
  10023SM  C11S13567   8.100   1.308  10.890 -0.0660 -0.7523 -0.2298
  10023SM  H11S13568   8.087   1.260  10.990  2.9508 -0.3498  0.4839
  10023SM  H11T13569   8.101   1.418  10.897  2.5796 -0.5346 -2.3031
  10023SM  C12S13570   8.245   1.266  10.849  0.2377  1.0501  0.3359
  10023SM  H12S13571   8.290   1.314  10.759  1.1117 -0.2166  0.0734
  10023SM  H12T13572   8.247   1.155  10.844 -0.4105  0.9263  2.1622
  10023SM  C13S13573   8.341   1.289  10.967  0.1261 -0.0376  0.9218
  10023SM  H13S13574   8.295   1.260  11.064 -1.9330  0.5347  0.1641
  10023SM  H13T13575   8.356   1.399  10.972 -0.6106  0.0574  1.1640
  10023SM  C14S13576   8.479   1.225  10.956  0.5075 -0.1733  0.0080
  10023SM  H14S13577   8.521   1.273  10.865 -0.3353  0.4331 -0.0725
  10023SM  H14T13578   8.467   1.116  10.937  0.7578 -0.3451  0.8268
  10023SM  C15S13579   8.568   1.263  11.069 -0.0041  0.6076  0.0722
  10023SM  H15S13580   8.538   1.196  11.153 -0.0903  0.0993 -0.3570
  10023SM  H15T13581   8.548   1.369  11.097  0.7264  0.2536  2.1351
  10023SM  C16S13582   8.721   1.246  11.030  0.6663 -0.2169 -0.0359
  10023SM  H16S13583   8.748   1.293  10.933  0.0245  0.2266 -0.0054
  10023SM  H16T13584   8.743   1.138  11.017  1.9500  0.0284  0.0245
  10023SM  C17S13585   8.819   1.302  11.123  0.6388 -0.6054  0.2879
  10023SM  H17S13586   8.790   1.409  11.129 -2.2969 -1.2630 -0.4022
  10023SM  H17T13587   8.922   1.300  11.080  0.3187  4.9663 -1.4777
  10023SM  C18S13588   8.794   1.246  11.262 -0.2070 -0.0256 -0.2170
  10023SM  H18S13589   8.687   1.262  11.288  0.0383 -0.5524  1.1767
  10023SM  H18T13590   8.864   1.288  11.337  0.0415  0.4725 -0.7197
  10023SM  H18U13591   8.810   1.137  11.248  3.5767  0.3261  0.4830
  10023SM   C1F13592   7.570   1.762  10.035  0.3341  0.5607  0.4802
  10023SM    OF13593   7.461   1.707   9.999 -0.0890 -0.6096  0.0873
  10023SM   C2F13594   7.584   1.905  10.052  0.3228  0.0346  0.1291
  10023SM   H2F13595   7.557   1.946   9.953  1.9212  1.2452  0.1611
  10023SM   H2G13596   7.694   1.914  10.070  0.3835 -0.6423  0.1469
  10023SM   C3F13597   7.495   1.966  10.159  0.1946  0.4386 -0.6108
  10023SM   H3F13598   7.388   1.937  10.149  0.6037 -0.5312 -2.6587
  10023SM   H3G13599   7.500   2.077  10.160 -0.0332  0.4593  0.6954
  10023SM   C4F13600   7.561   1.931  10.296  0.1634 -0.2906  0.1672
  10023SM   H4F13601   7.642   2.001  10.325 -0.6278  0.6551  0.1402
  10023SM   H4G13602   7.596   1.825  10.298 -1.1946 -0.7693 -0.3925
  10023SM   C5F13603   7.460   1.948  10.409  1.2731 -0.1843 -0.2782
  10023SM   H5F13604   7.381   1.871  10.397  0.7015  0.1697  1.0096
  10023SM   H5G13605   7.403   2.041  10.390 -0.1631 -0.9718  0.0532
  10023SM   C6F13606   7.522   1.941  10.542 -0.6811 -0.5788 -0.2623
  10023SM   H6F13607   7.596   2.023  10.548 -0.1736 -1.0328 -0.2181
  10023SM   H6G13608   7.579   1.846  10.556  0.5180  0.4025  2.0363
  10023SM   C7F13609   7.434   1.941  10.665  0.3815 -0.0072  0.6149
  10023SM   H7F13610   7.376   1.846  10.667  1.0921 -0.4308  1.6661
  10023SM   H7G13611   7.358   2.020  10.646 -1.2838 -1.8773 -0.9709
  10023SM   C8F13612   7.506   1.959  10.800  0.1836 -0.1394  0.1423
  10023SM   H8F13613   7.565   2.054  10.798 -0.1100  0.0290 -0.9021
  10023SM   H8G13614   7.577   1.875  10.814  0.2734  0.0038  0.5612
  10023SM   C9F13615   7.406   1.967  10.913 -0.2215  0.5366  0.0634
  10023SM   H9F13616   7.334   1.883  10.905  0.1157  0.1524  0.9527
  10023SM   H9G13617   7.331   2.048  10.898  0.8441  1.3685 -1.0049
  10023SM  C10F13618   7.468   1.964  11.054  0.3196 -0.1743  0.6383
  10023SM  H10F13619   7.564   2.019  11.049  1.0209 -1.4357 -0.0932
  10023SM  H10G13620   7.503   1.861  11.075  0.0994 -0.3489  0.1650
  10023SM  C11F13621   7.365   2.002  11.159  0.6626 -0.0673 -0.6317
  10023SM  H11F13622   7.294   1.918  11.153  1.0419 -0.4007 -0.4848
  10023SM  H11G13623   7.318   2.098  11.130  2.3193  0.9113 -0.2324
  10023SM  C12F13624   7.427   2.010  11.301  0.1212 -0.2327  0.2703
  10023SM  H12F13625   7.486   2.103  11.298  0.0642 -0.1949  0.3214
  10023SM  H12G13626   7.491   1.922  11.327  0.4251  0.1689  0.9035
  10023SM  C13F13627   7.316   2.016  11.407  0.8391  0.0552  0.2036
  10023SM  H13F13628   7.246   1.930  11.405 -0.8759  0.9445  5.8674
  10023SM  H13G13629   7.242   2.097  11.388  0.3633 -0.2103  0.8802
  10023SM  C14F13630   7.354   2.027  11.551  1.1791  0.1313 -0.4676
  10023SM  H14F13631   7.433   2.103  11.565  1.3025 -0.3475  1.6905
  10023SM  H14G13632   7.407   1.937  11.589  1.7234  0.7991  0.3696
  10023SM  C15F13633   7.221   2.046  11.635  0.4985  0.6249 -0.0401
  10023SM  H15F13634   7.143   1.998  11.572  1.8135  2.0899 -2.9991
  10023SM  H15G13635   7.192   2.153  11.639 -0.7950  0.3327 -1.1854
  10023SM  C16F13636   7.220   1.976  11.768  0.4436 -0.6556 -0.2791
  10023SM  H16F13637   7.303   2.022  11.826  1.1749 -1.7531 -0.4427
  10023SM  H16G13638   7.240   1.870  11.744  0.9288 -0.7791  0.6155
  10023SM  C17F13639   7.083   1.990  11.847 -0.3748 -0.4528 -0.9483
  10023SM  H17F13640   7.007   1.957  11.774  0.0028  0.2268 -1.6613
  10023SM  H17G13641   7.065   2.097  11.874 -2.0955 -1.1137  0.7438
  10023SM  C18F13642   7.086   1.912  11.980 -0.6376 -0.0258  0.1478
  10023SM  H18F13643   7.186   1.925  12.025 -1.3573  1.4440  1.4356
  10023SM  H18G13644   7.072   1.807  11.946 -0.4696  0.0297 -0.0919
  10023SM  C19F13645   6.983   1.945  12.078 -0.4933  0.8771 -0.4435
  10023SM  H19F13646   6.882   1.962  12.036 -1.1398 -1.7440 -0.1156
  10023SM  H19G13647   7.021   2.041  12.119 -1.7936  1.5527 -0.7842
  10023SM  C20F13648   6.971   1.839  12.191  0.0092 -0.7538  0.4301
  10023SM  H20F13649   6.898   1.892  12.256  0.2326  3.7533 -2.5121
  10023SM  H20G13650   7.072   1.834  12.236  1.1595 -0.0088 -1.9306
  10023SM  C21F13651   6.939   1.697  12.145  1.1348  0.2065  0.2373
  10023SM  H21F13652   7.019   1.644  12.089 -0.9369 -1.1855 -1.5444
  10023SM  H21G13653   6.856   1.700  12.072 -1.1420 -0.7310  2.6097
  10023SM  C22F13654   6.901   1.598  12.257  0.1334 -0.4787 -0.7675
  10023SM  H22F13655   6.816   1.639  12.316  1.0782  0.0974  0.2019
  10023SM  H22G13656   6.980   1.608  12.333 -1.9004  0.5284  1.3389
  10023SM  C23F13657   6.868   1.461  12.205  0.3252  0.2499  0.3830
  10023SM  H23F13658   6.948   1.441  12.130 -0.2767 -0.6466 -0.0459
  10023SM  H23G13659   6.770   1.456  12.153  0.9822  1.1743 -0.9943
  10023SM  H23H13660   6.868   1.382  12.283  1.0573 -0.6140 -0.4621
  101CHL1    C313661   2.805   5.544  12.655 -0.6100 -0.2004  0.6732
  101CHL1    H313662   2.845   5.576  12.557  0.9298  0.5922  1.5087
  101CHL1    O313663   2.917   5.496  12.726 -0.2219  0.1752  0.0432
  101CHL1   H3'13664   2.996   5.549  12.713  0.0849 -0.7466 -2.4126
  101CHL1    C413665   2.743   5.670  12.726  0.5183  0.1492  0.0701
  101CHL1   H4A13666   2.727   5.644  12.833  1.8416  1.0978  0.5180
  101CHL1   H4B13667   2.812   5.756  12.727 -0.7072  1.1650 -0.3632
  101CHL1    C513668   2.621   5.709  12.649 -0.6440 -0.5836  0.1930
  101CHL1    C613669   2.608   5.837  12.607 -0.2156  0.6460 -0.1919
  101CHL1    H613670   2.683   5.909  12.641 -1.4897  3.5135 -2.9791
  101CHL1    C713671   2.499   5.889  12.529 -0.0262 -0.3147  0.1471
  101CHL1   H7A13672   2.473   5.987  12.575 -1.1294 -1.8093  2.9367
  101CHL1   H7B13673   2.531   5.897  12.423  1.1838  1.4148  0.5965
  101CHL1    C813674   2.373   5.797  12.537 -0.6141  0.0577 -0.2554
  101CHL1    H813675   2.331   5.808  12.640  0.4755  2.1753  0.0154
  101CHL1   C1413676   2.277   5.838  12.426  0.2655 -0.1131  0.1593
  101CHL1   H1413677   2.317   5.816  12.325 -0.7808  0.4173 -0.3915
  101CHL1   C1513678   2.232   5.985  12.413 -0.5137 -0.1171  0.5994
  101CHL1  H15A13679   2.210   6.021  12.516  0.6504  0.1579  0.7661
  101CHL1  H15B13680   2.318   6.038  12.366 -0.3876 -1.6246 -0.9714
  101CHL1   C1613681   2.101   5.971  12.343  0.5424 -0.7490 -0.7686
  101CHL1  H16A13682   2.023   6.033  12.394  1.0092 -1.4213  0.8187
  101CHL1  H16B13683   2.105   6.016  12.241  0.6491  1.4111  0.1271
  101CHL1   C1713684   2.053   5.827  12.332  0.2964 -0.1176  0.1594
  101CHL1   H1713685   2.093   5.785  12.237 -1.0736  1.1813 -1.0195
  101CHL1   C1313686   2.141   5.761  12.438 -0.9275  0.2328 -0.0076
  101CHL1   C1813687   2.070   5.776  12.576 -0.2034 -0.3717 -0.6874
  101CHL1  H18A13688   1.988   5.701  12.584 -1.8258  0.9918 -3.0104
  101CHL1  H18B13689   2.144   5.750  12.654  0.6258  0.4527 -1.1808
  101CHL1  H18C13690   2.035   5.881  12.582 -0.3018 -0.4221 -0.3549
  101CHL1   C1213691   2.180   5.618  12.405  0.2943  0.0619 -0.0105
  101CHL1  H12A13692   2.086   5.558  12.411 -0.8405  1.8327  1.0510
  101CHL1  H12B13693   2.230   5.622  12.307 -0.5213  1.0895 -0.4043
  101CHL1   C1113694   2.281   5.564  12.505 -0.1364  0.1180 -1.2935
  101CHL1  H11A13695   2.220   5.544  12.595  0.1975 -2.6830 -1.5944
  101CHL1  H11B13696   2.315   5.465  12.467  2.2483  0.8073 -1.1651
  101CHL1    C913697   2.410   5.658  12.518  0.2008  0.5025 -0.0154
  101CHL1    H913698   2.454   5.645  12.416  1.6558 -2.5897  0.8695
  101CHL1   C1013699   2.517   5.601  12.615 -0.5647 -0.1685 -0.0231
  101CHL1   C1913700   2.453   5.559  12.750 -0.0105 -0.7268 -0.0483
  101CHL1  H19A13701   2.519   5.542  12.837 -0.4094 -0.1640  0.3746
  101CHL1  H19B13702   2.374   5.634  12.772  1.5350  0.8599  0.2694
  101CHL1  H19C13703   2.406   5.461  12.725 -0.1391 -0.6451 -0.1336
  101CHL1    C113704   2.586   5.468  12.555  0.2869  0.4570 -0.7049
  101CHL1   H1A13705   2.508   5.390  12.561 -0.2613  1.0427 -0.0344
  101CHL1   H1B13706   2.617   5.484  12.449  2.0988  2.5310  0.0474
  101CHL1    C213707   2.704   5.431  12.642 -0.5282 -0.1666 -0.1337
  101CHL1   H2A13708   2.747   5.342  12.593  0.2530 -1.3615  2.5273
  101CHL1   H2B13709   2.686   5.400  12.747  2.1376 -0.3022  0.3372
  101CHL1   C2013710   1.897   5.805  12.325  0.3865  0.2856  0.3182
  101CHL1   H2013711   1.861   5.844  12.423 -0.9150 -0.5292  0.1843
  101CHL1   C2113712   1.863   5.660  12.311 -0.1614 -0.0942 -0.7105
  101CHL1  H21A13713   1.887   5.610  12.407 -0.4813 -1.3870 -1.2876
  101CHL1  H21B13714   1.922   5.609  12.231  0.1509 -1.8486  0.5921
  101CHL1  H21C13715   1.754   5.660  12.289 -0.1056  0.9464 -1.0633
  101CHL1   C2213716   1.833   5.887  12.210 -0.6159 -0.0085 -0.5542
  101CHL1  H22A13717   1.722   5.888  12.219 -0.6389  0.0994 -0.8418
  101CHL1  H22B13718   1.862   5.990  12.239  0.9713 -0.8425  1.0297
  101CHL1   C2313719   1.880   5.858  12.067 -0.3478  0.3294 -0.7536
  101CHL1  H23A13720   1.990   5.867  12.057 -0.3396 -0.5423 -1.6239
  101CHL1  H23B13721   1.862   5.753  12.037 -0.9796  0.3528 -0.4682
  101CHL1   C2413722   1.811   5.951  11.969 -0.4313 -0.1219 -0.0606
  101CHL1  H24A13723   1.701   5.935  11.967 -0.3867 -0.4942  0.3636
  101CHL1  H24B13724   1.822   6.055  12.005  0.4346 -0.0106 -0.6280
  101CHL1   C2513725   1.875   5.953  11.829 -0.4782  0.8839  0.0370
  101CHL1   H2513726   1.986   5.952  11.832 -0.3475 -2.4929 -1.3285
  101CHL1   C2613727   1.841   5.820  11.751  0.2624 -0.3075  0.2024
  101CHL1  H26A13728   1.734   5.829  11.723 -0.2288 -1.6928  1.4689
  101CHL1  H26B13729   1.910   5.818  11.665  0.1517 -1.6625  0.1227
  101CHL1  H26C13730   1.854   5.735  11.822  0.9879 -1.3073 -1.0909
  101CHL1   C2713731   1.827   6.068  11.735 -0.4816  0.2720 -0.1736
  101CHL1  H27A13732   1.880   6.155  11.779  0.4658 -0.7753  0.8501
  101CHL1  H27B13733   1.870   6.059  11.633  1.2043 -1.4348  0.6213
  101CHL1  H27C13734   1.716   6.068  11.741 -0.5475 -1.2535 -0.9285
  102CHL1    C313735   0.973   6.427  12.694 -0.3819 -0.4356 -0.1633
  102CHL1    H313736   0.959   6.319  12.713 -1.5523  0.0422  2.1258
  102CHL1    O313737   1.056   6.478  12.794 -0.0894  0.4602 -0.2765
  102CHL1   H3'13738   1.067   6.571  12.771  1.7998  0.0944 -1.0200
  102CHL1    C413739   1.044   6.459  12.560  0.0006 -0.2037  0.0032
  102CHL1   H4A13740   1.084   6.562  12.549 -0.3953 -0.2717 -3.0662
  102CHL1   H4B13741   1.134   6.395  12.564  1.3081  1.6172  1.5635
  102CHL1    C513742   0.966   6.428  12.435  0.3731 -0.1060  0.1600
  102CHL1    C613743   1.012   6.343  12.339  0.6187 -0.4821  0.1830
  102CHL1    H613744   1.111   6.296  12.355  0.7867 -0.3561 -0.4540
  102CHL1    C713745   0.932   6.305  12.218 -0.6976 -0.3889  0.1247
  102CHL1   H7A13746   1.006   6.323  12.137 -0.0303  1.4354  1.0757
  102CHL1   H7B13747   0.901   6.201  12.239 -0.1760 -0.5150  0.3029
  102CHL1    C813748   0.812   6.404  12.192  0.3226  0.6855 -0.8201
  102CHL1    H813749   0.865   6.497  12.162 -0.4632  1.8228  1.1035
  102CHL1   C1413750   0.719   6.342  12.081 -0.1332  0.7051  0.1871
  102CHL1   H1413751   0.676   6.250  12.127 -1.2286  0.2413 -1.6971
  102CHL1   C1513752   0.779   6.311  11.949 -0.6503 -0.1109  0.7665
  102CHL1  H15A13753   0.862   6.375  11.913 -1.1509 -0.2451 -0.7322
  102CHL1  H15B13754   0.824   6.209  11.950  0.0316  0.1115 -1.2641
  102CHL1   C1613755   0.667   6.315  11.846  0.3111  0.3254 -0.0267
  102CHL1  H16A13756   0.679   6.402  11.778 -0.2903 -0.0083 -0.5655
  102CHL1  H16B13757   0.661   6.223  11.785  1.6442  0.2288 -0.0345
  102CHL1   C1713758   0.537   6.350  11.935  1.0488  0.1215  0.8241
  102CHL1   H1713759   0.509   6.253  11.980 -1.4094 -0.4092 -1.5748
  102CHL1   C1313760   0.599   6.428  12.050 -0.3658 -0.7490 -0.6810
  102CHL1   C1813761   0.645   6.575  12.001 -0.3583 -0.0026 -0.7979
  102CHL1  H18A13762   0.695   6.615  12.091  1.7210 -3.1240 -0.4177
  102CHL1  H18B13763   0.708   6.584  11.910 -1.5857 -2.3352 -1.9611
  102CHL1  H18C13764   0.554   6.632  11.969  0.4678  0.6707 -2.0529
  102CHL1   C1213765   0.515   6.431  12.183 -0.3628  0.1477  0.3198
  102CHL1  H12A13766   0.431   6.493  12.144 -1.3762 -1.6760 -0.4830
  102CHL1  H12B13767   0.475   6.331  12.208  0.0071  0.3906  2.0088
  102CHL1   C1113768   0.589   6.502  12.296  0.2116  0.3757  0.8845
  102CHL1  H11A13769   0.610   6.609  12.278  1.5116 -0.3901 -2.9934
  102CHL1  H11B13770   0.523   6.490  12.385 -2.0211  1.2081 -0.5618
  102CHL1    C913771   0.730   6.430  12.319 -0.7291  0.1302  0.1746
  102CHL1    H913772   0.699   6.331  12.358  0.0803  0.1980  1.0408
  102CHL1   C1013773   0.818   6.491  12.432  0.0218  0.2193  0.0666
  102CHL1   C1913774   0.844   6.644  12.401 -0.0860 -0.2840  0.2020
  102CHL1  H19A13775   0.883   6.656  12.297 -0.0697 -1.8085  0.0117
  102CHL1  H19B13776   0.751   6.699  12.424 -0.4580 -0.5512 -0.6351
  102CHL1  H19C13777   0.925   6.673  12.472  0.7404 -0.4469 -0.6483
  102CHL1    C113778   0.743   6.475  12.576  0.0288 -0.0541 -0.0621
  102CHL1   H1A13779   0.660   6.549  12.575  2.7352  3.2545 -1.6493
  102CHL1   H1B13780   0.706   6.371  12.574  0.9650 -0.3961  0.0718
  102CHL1    C213781   0.831   6.499  12.702 -0.1993 -0.0742  0.3466
  102CHL1   H2A13782   0.766   6.467  12.785  0.2122  0.2999  0.8193
  102CHL1   H2B13783   0.851   6.607  12.720  0.3240  0.2820 -2.0175
  102CHL1   C2013784   0.421   6.416  11.847  0.6791  0.2659 -0.3603
  102CHL1   H2013785   0.444   6.524  11.834 -1.6187  0.8767  0.1809
  102CHL1   C2113786   0.286   6.390  11.923 -0.1593 -0.5506  0.3687
  102CHL1  H21A13787   0.270   6.280  11.927 -1.3408 -0.4278 -0.3724
  102CHL1  H21B13788   0.196   6.431  11.873  0.4955 -0.8105 -1.0790
  102CHL1  H21C13789   0.291   6.419  12.030 -1.2592 -0.1961  0.3402
  102CHL1   C2213790   0.419   6.358  11.706  0.4706  0.1249  0.4895
  102CHL1  H22A13791   0.513   6.371  11.649  0.6233 -1.2958  0.3621
  102CHL1  H22B13792   0.399   6.249  11.696  1.3660  0.0853 -1.2444
  102CHL1   C2313793   0.325   6.429  11.606 -0.3530  0.2948  0.3339
  102CHL1  H23A13794   0.218   6.427  11.634 -0.8429 -2.2665 -1.3882
  102CHL1  H23B13795   0.352   6.536  11.621 -1.7099  0.8938 -1.2718
  102CHL1   C2413796   0.333   6.393  11.465 -0.3970  0.2718  0.5352
  102CHL1  H24A13797   0.430   6.405  11.412 -0.3500 -1.0222  0.2824
  102CHL1  H24B13798   0.322   6.283  11.451 -0.0380  0.4230 -1.2312
  102CHL1   C2513799   0.219   6.455  11.386 -0.1343 -0.4709  0.0180
  102CHL1   H2513800   0.124   6.415  11.429  1.6397 -4.2143  0.9210
  102CHL1   C2613801   0.230   6.604  11.399  0.3263  0.4790 -0.6198
  102CHL1  H26A13802   0.182   6.636  11.494  2.4327 -1.1610  1.0905
  102CHL1  H26B13803   0.332   6.644  11.417  0.3462 -0.1611  0.8306
  102CHL1  H26C13804   0.186   6.652  11.308  1.1019  0.3513 -1.0716
  102CHL1   C2713805   0.235   6.412  11.236  0.0284  0.4227 -0.4833
  102CHL1  H27A13806   0.340   6.424  11.202  0.3208 -0.9776 -0.1096
  102CHL1  H27B13807   0.209   6.307  11.213  0.1126  0.4191 -0.5661
  102CHL1  H27C13808   0.154   6.471  11.188  0.1770  0.0428 -1.2193
  103CHL1    C313809   1.749   4.769  12.384  0.2116 -0.1942 -0.8720
  103CHL1    H313810   1.817   4.773  12.297 -2.3186 -0.7819 -2.9958
  103CHL1    O313811   1.826   4.754  12.506  0.1969  0.2425 -0.8774
  103CHL1   H3'13812   1.910   4.790  12.476 -0.1757  3.9157  1.7904
  103CHL1    C413813   1.666   4.902  12.392  0.4111  1.4937  0.0847
  103CHL1   H4A13814   1.608   4.887  12.486  1.0533 -1.0904  0.1379
  103CHL1   H4B13815   1.731   4.990  12.412  0.9296  0.6753  2.2468
  103CHL1    C513816   1.575   4.908  12.269  0.1030  0.7634 -0.2426
  103CHL1    C613817   1.571   5.012  12.185 -0.3202 -0.3266  0.5550
  103CHL1    H613818   1.635   5.096  12.216 -0.3328 -0.3914  0.7536
  103CHL1    C713819   1.478   5.026  12.066 -0.3326  0.5329 -0.6065
  103CHL1   H7A13820   1.437   5.129  12.067 -0.6843  0.4348  1.6163
  103CHL1   H7B13821   1.540   5.008  11.976  1.0270 -1.4839  0.6322
  103CHL1    C813822   1.362   4.924  12.060 -0.3779  0.5033 -0.5759
  103CHL1    H813823   1.281   4.950  12.131  0.2023 -2.7767  1.5351
  103CHL1   C1413824   1.312   4.915  11.921  0.0759  0.1481  0.0219
  103CHL1   H1413825   1.397   4.878  11.860  0.7155  1.0131  0.3802
  103CHL1   C1513826   1.269   5.039  11.847  0.5139 -0.1063  0.1991
  103CHL1  H15A13827   1.225   5.110  11.920  1.1554 -0.9449  1.4428
  103CHL1  H15B13828   1.360   5.088  11.807  1.5500 -1.5000  0.7532
  103CHL1   C1613829   1.175   4.989  11.738  0.1501  0.1753 -0.0017
  103CHL1  H16A13830   1.073   5.030  11.753  0.2409  0.6277 -0.6205
  103CHL1  H16B13831   1.216   5.024  11.641 -0.1949 -1.9367 -0.9573
  103CHL1   C1713832   1.165   4.830  11.752  0.0622 -0.4662 -0.0601
  103CHL1   H1713833   1.257   4.794  11.703  0.7857 -1.8894  2.1693
  103CHL1   C1313834   1.200   4.809  11.901  0.5727 -0.1110 -0.6599
  103CHL1   C1813835   1.078   4.848  11.987 -0.3523 -0.6570 -0.7212
  103CHL1  H18A13836   1.095   4.839  12.096  1.5651 -1.0682 -1.0293
  103CHL1  H18B13837   1.035   4.949  11.966  0.9369 -0.1480 -1.0173
  103CHL1  H18C13838   1.001   4.769  11.976 -0.9592 -0.4102  1.3015
  103CHL1   C1213839   1.259   4.675  11.940 -0.4893 -0.9920 -0.0212
  103CHL1  H12A13840   1.191   4.587  11.931 -0.8579 -0.5798 -1.4446
  103CHL1  H12B13841   1.335   4.644  11.866  0.5281 -1.2318  1.0953
  103CHL1   C1113842   1.317   4.677  12.083 -0.1835  0.3419  0.1916
  103CHL1  H11A13843   1.230   4.689  12.150 -0.8049  0.5772 -0.6355
  103CHL1  H11B13844   1.368   4.579  12.085  3.4770  1.9566 -2.3718
  103CHL1    C913845   1.421   4.788  12.103 -0.5778 -0.1039 -0.0606
  103CHL1    H913846   1.496   4.752  12.029 -1.6311 -3.5529  0.3738
  103CHL1   C1013847   1.492   4.788  12.243  0.6698  1.0810 -0.0473
  103CHL1   C1913848   1.385   4.786  12.357  0.2944 -0.1402  0.2268
  103CHL1  H19A13849   1.438   4.788  12.454  1.4746  0.4497 -0.4033
  103CHL1  H19B13850   1.320   4.875  12.344 -0.9293 -1.3487 -2.8714
  103CHL1  H19C13851   1.327   4.692  12.342  0.3295 -0.1284  0.0087
  103CHL1    C113852   1.571   4.654  12.255 -0.1309 -0.1689  0.6759
  103CHL1   H1A13853   1.499   4.570  12.246 -0.6839  0.3038  0.5772
  103CHL1   H1B13854   1.630   4.639  12.162 -0.6804  1.4459  0.0238
  103CHL1    C213855   1.661   4.640  12.376 -0.2865 -0.7662 -0.7485
  103CHL1   H2A13856   1.740   4.564  12.360  1.3298  0.8779 -0.8242
  103CHL1   H2B13857   1.603   4.625  12.470  2.8655 -0.8464  1.3144
  103CHL1   C2013858   1.037   4.772  11.684  0.1910 -0.2946  0.3419
  103CHL1   H2013859   0.953   4.788  11.755 -0.5558 -0.8692 -0.3962
  103CHL1   C2113860   1.058   4.618  11.668 -0.0689  0.0387 -0.7630
  103CHL1  H21A13861   1.062   4.560  11.762  0.8258 -0.3146 -1.0098
  103CHL1  H21B13862   1.152   4.598  11.612  1.9677  0.4079  2.2575
  103CHL1  H21C13863   0.980   4.570  11.605  0.5677 -0.2457 -1.3541
  103CHL1   C2213864   1.003   4.834  11.541  0.0114  0.2715 -0.4953
  103CHL1  H22A13865   0.907   4.785  11.517  0.0584  0.3732 -0.9012
  103CHL1  H22B13866   0.976   4.941  11.555  0.6662  0.4224 -0.3591
  103CHL1   C2313867   1.105   4.805  11.439  0.0661 -1.2436 -0.3248
  103CHL1  H23A13868   1.200   4.852  11.472 -0.1299 -0.8686 -0.2936
  103CHL1  H23B13869   1.135   4.699  11.422  1.2596 -1.1593  1.0621
  103CHL1   C2413870   1.063   4.881  11.308 -1.0132  0.4268 -0.5368
  103CHL1  H24A13871   0.987   4.817  11.259  1.0425 -2.5108 -0.1131
  103CHL1  H24B13872   1.013   4.979  11.326 -1.9385 -0.3161  1.1916
  103CHL1   C2513873   1.186   4.900  11.213 -0.2131 -0.1780  0.3602
  103CHL1   H2513874   1.274   4.958  11.248  0.2465  1.2678 -2.8098
  103CHL1   C2613875   1.243   4.769  11.168  0.2291 -0.2370  0.0638
  103CHL1  H26A13876   1.314   4.776  11.083  1.0039  1.2910  0.7820
  103CHL1  H26B13877   1.313   4.724  11.242  1.8723 -0.8186 -1.7577
  103CHL1  H26C13878   1.160   4.696  11.158  2.4526 -2.9346  0.0524
  103CHL1   C2713879   1.141   4.992  11.097 -0.0504  0.4105 -0.7136
  103CHL1  H27A13880   1.232   5.023  11.042 -0.5815 -0.2195 -1.9715
  103CHL1  H27B13881   1.072   4.936  11.030  1.1501 -0.5324 -1.2041
  103CHL1  H27C13882   1.090   5.081  11.140 -0.1800 -0.6375  1.4730
  104CHL1    C313883   5.166   6.075  12.991  0.1232  0.7090 -0.0043
  104CHL1    H313884   5.067   6.047  13.032  0.4496  0.2106  0.4569
  104CHL1    O313885   5.254   6.060  13.098 -0.3134  0.4859 -0.2606
  104CHL1   H3'13886   5.340   6.095  13.073  1.0421 -0.6833  2.2453
  104CHL1    C413887   5.196   5.976  12.879 -0.0226 -0.9904  0.0164
  104CHL1   H4A13888   5.301   5.994  12.849 -0.4118 -0.4560 -1.0728
  104CHL1   H4B13889   5.186   5.873  12.918 -2.2256 -0.2740  1.4976
  104CHL1    C513890   5.112   6.000  12.758 -0.7768  0.3066  0.8349
  104CHL1    C613891   5.038   5.899  12.708  0.0370  0.1624  0.2680
  104CHL1    H613892   5.034   5.802  12.760  1.3925 -0.0464  0.0201
  104CHL1    C713893   4.965   5.897  12.579  0.8152  0.2898 -0.6359
  104CHL1   H7A13894   5.000   5.806  12.526 -0.7699 -2.4585  2.5734
  104CHL1   H7B13895   4.856   5.892  12.598  0.4003  1.2931 -2.5334
  104CHL1    C813896   5.002   6.020  12.494 -0.2008 -0.0250 -1.1656
  104CHL1    H813897   5.095   5.997  12.436 -0.2045  1.1646 -1.6660
  104CHL1   C1413898   4.891   6.045  12.395 -0.2973  0.1989  0.8986
  104CHL1   H1413899   4.803   6.067  12.459  0.0200 -0.1133  1.4536
  104CHL1   C1513900   4.842   5.926  12.312  0.2792 -0.3950  0.8381
  104CHL1  H15A13901   4.932   5.882  12.265  1.7448  1.3122  1.9428
  104CHL1  H15B13902   4.782   5.840  12.348 -1.8312  0.5236 -0.2903
  104CHL1   C1613903   4.768   5.986  12.192  0.3955  0.4142 -0.4985
  104CHL1  H16A13904   4.813   5.964  12.093  0.5840  0.0067 -0.3265
  104CHL1  H16B13905   4.661   5.958  12.186  0.1537  1.0256  0.5746
  104CHL1   C1713906   4.783   6.140  12.207 -0.5982  0.6801  0.1499
  104CHL1   H1713907   4.691   6.159  12.268 -1.0914 -1.5781  0.2066
  104CHL1   C1313908   4.906   6.164  12.292  0.1238  0.2905 -0.1010
  104CHL1   C1813909   5.039   6.151  12.209 -0.3302  0.1842 -0.2976
  104CHL1  H18A13910   5.118   6.125  12.283  1.3926  1.4624 -1.5928
  104CHL1  H18B13911   5.040   6.073  12.130  0.3193 -1.2485  1.0558
  104CHL1  H18C13912   5.073   6.242  12.156  2.0497  0.7445  1.9699
  104CHL1   C1213913   4.913   6.290  12.393 -0.6764 -0.1954 -0.2812
  104CHL1  H12A13914   4.938   6.385  12.342 -0.1239 -0.4322 -0.4598
  104CHL1  H12B13915   4.814   6.308  12.440 -0.6592  2.2066 -1.0193
  104CHL1   C1113916   5.025   6.275  12.499  0.3728 -0.0198 -0.3062
  104CHL1  H11A13917   5.124   6.292  12.451  0.7834 -0.0705  0.5155
  104CHL1  H11B13918   5.020   6.357  12.574  0.6852 -1.7175  1.6609
  104CHL1    C913919   5.015   6.143  12.585  0.4292 -0.3280  0.5464
  104CHL1    H913920   4.915   6.150  12.634  1.0007 -0.5886  1.8027
  104CHL1   C1013921   5.122   6.139  12.697  0.3346  0.2999  0.2670
  104CHL1   C1913922   5.259   6.152  12.624  0.2610  0.1318 -0.1423
  104CHL1  H19A13923   5.326   6.079  12.674  0.7193 -0.4210 -1.5172
  104CHL1  H19B13924   5.255   6.129  12.515  0.3942  0.3781 -0.2025
  104CHL1  H19C13925   5.304   6.253  12.638  1.1539 -0.3075  0.2088
  104CHL1    C113926   5.082   6.231  12.813  0.3988  0.3105 -0.1769
  104CHL1   H1A13927   5.095   6.330  12.764 -1.4592 -0.0450 -1.4650
  104CHL1   H1B13928   4.975   6.229  12.842  0.1516  2.1158 -0.7932
  104CHL1    C213929   5.160   6.223  12.945 -0.9148  0.0546 -0.3240
  104CHL1   H2A13930   5.114   6.280  13.028 -0.4338 -1.2067  0.8569
  104CHL1   H2B13931   5.265   6.258  12.937 -0.4118 -1.2405  0.2771
  104CHL1   C2013932   4.782   6.204  12.060  0.5166 -0.5292  0.3108
  104CHL1   H2013933   4.867   6.164  12.000  0.9729 -0.9195  1.1975
  104CHL1   C2113934   4.805   6.358  12.070  0.2917  0.0013  0.5152
  104CHL1  H21A13935   4.824   6.401  11.969  0.2590 -1.7398 -0.2730
  104CHL1  H21B13936   4.899   6.379  12.125  0.6305 -0.5798  0.1703
  104CHL1  H21C13937   4.714   6.400  12.117 -0.0049 -1.4430  1.2723
  104CHL1   C2213938   4.648   6.170  11.986 -0.3493 -0.1197 -0.6600
  104CHL1  H22A13939   4.639   6.228  11.892 -0.3956 -0.1612 -0.6813
  104CHL1  H22B13940   4.640   6.072  11.935  0.0305  0.7811 -2.5563
  104CHL1   C2313941   4.519   6.201  12.072 -0.0257 -0.2861  0.5314
  104CHL1  H23A13942   4.510   6.127  12.154  0.8649 -2.1205 -0.9361
  104CHL1  H23B13943   4.522   6.305  12.111 -1.3168 -1.1522  3.1451
  104CHL1   C2413944   4.399   6.195  11.977 -0.8741  0.1835  0.5381
  104CHL1  H24A13945   4.411   6.279  11.904  2.1100 -0.2273  0.4123
  104CHL1  H24B13946   4.414   6.113  11.903  2.8880 -0.8549  2.1902
  104CHL1   C2513947   4.262   6.184  12.046 -0.1225  0.0169  0.7320
  104CHL1   H2513948   4.236   6.287  12.079  2.0099  0.6570  0.5313
  104CHL1   C2613949   4.158   6.164  11.935 -0.1642  0.2638  0.3664
  104CHL1  H26A13950   4.148   6.056  11.910  0.9199  0.2762 -0.1770
  104CHL1  H26B13951   4.061   6.203  11.971  0.3367  1.9852 -0.0821
  104CHL1  H26C13952   4.182   6.224  11.845 -1.7392 -1.6461 -1.4358
  104CHL1   C2713953   4.249   6.089  12.165  0.3786 -0.2849 -0.3233
  104CHL1  H27A13954   4.250   5.980  12.144 -0.4330 -0.0525 -1.6840
  104CHL1  H27B13955   4.336   6.111  12.230 -0.6241  0.6825  0.7305
  104CHL1  H27C13956   4.155   6.118  12.216  0.6778  0.6121 -0.2717
  105CHL1    C313957   4.105   5.557  12.714  0.7964  0.0776 -0.1890
  105CHL1    H313958   4.054   5.458  12.713  0.4226  0.2747 -0.5583
  105CHL1    O313959   4.155   5.572  12.848 -0.1877 -0.1936  0.2314
  105CHL1   H3'13960   4.076   5.605  12.891 -1.5843 -0.4825 -1.9188
  105CHL1    C413961   4.216   5.536  12.609  0.0490 -0.4582  0.1625
  105CHL1   H4A13962   4.277   5.626  12.632 -0.1763 -0.2174 -0.1720
  105CHL1   H4B13963   4.270   5.441  12.631  0.1381 -0.3920  0.2314
  105CHL1    C513964   4.166   5.534  12.462 -0.3370 -0.4533  0.9771
  105CHL1    C613965   4.183   5.435  12.369  0.1663  0.3097  0.0462
  105CHL1    H613966   4.240   5.345  12.396 -0.0733  0.1002 -0.1344
  105CHL1    C713967   4.137   5.434  12.229  0.3891 -0.3030  0.1680
  105CHL1   H7A13968   4.218   5.406  12.158 -1.0441 -1.2150 -1.1815
  105CHL1   H7B13969   4.060   5.354  12.218 -1.0714  1.0140  0.4105
  105CHL1    C813970   4.069   5.564  12.189  0.1891 -1.1019  1.1729
  105CHL1    H813971   4.159   5.622  12.161  0.8899 -2.8434 -0.3545
  105CHL1   C1413972   3.979   5.536  12.064 -0.4265 -0.0387 -0.8474
  105CHL1   H1413973   3.905   5.461  12.099  0.7608 -0.5205  0.6995
  105CHL1   C1513974   4.055   5.488  11.943 -0.0766 -0.0069  0.6530
  105CHL1  H15A13975   4.142   5.556  11.930 -0.5849  0.5824  0.2723
  105CHL1  H15B13976   4.093   5.384  11.949 -0.0259  0.0465  1.2804
  105CHL1   C1613977   3.951   5.505  11.830  0.4288 -0.3699  0.0093
  105CHL1  H16A13978   3.999   5.546  11.738  1.7185 -1.1729  0.3093
  105CHL1  H16B13979   3.915   5.403  11.805  0.0946  0.2318 -2.2212
  105CHL1   C1713980   3.838   5.596  11.887  0.3455 -0.0171 -0.4025
  105CHL1   H1713981   3.759   5.529  11.928  0.0080  0.4338 -0.3089
  105CHL1   C1313982   3.899   5.657  12.015  0.4143 -0.9227  0.0768
  105CHL1   C1813983   4.002   5.775  11.976  0.0944  0.0907  0.1778
  105CHL1  H18A13984   4.078   5.790  12.056  3.1123 -0.4563 -2.4174
  105CHL1  H18B13985   4.054   5.750  11.881 -1.6971  0.3330 -0.9223
  105CHL1  H18C13986   3.950   5.871  11.954  0.5458  0.6647  1.4671
  105CHL1   C1213987   3.813   5.700  12.135 -0.3924  0.3331 -0.5198
  105CHL1  H12A13988   3.752   5.790  12.111 -0.9009  0.3440  0.7230
  105CHL1  H12B13989   3.748   5.616  12.168  0.7872  0.2974  1.9615
  105CHL1   C1113990   3.893   5.741  12.264 -0.4220  0.4707  0.6162
  105CHL1  H11A13991   3.940   5.838  12.236 -1.5174  0.4897 -1.3453
  105CHL1  H11B13992   3.810   5.751  12.338 -1.3418 -1.6798 -0.0335
  105CHL1    C913993   3.994   5.626  12.304 -0.1123  0.6515  0.1563
  105CHL1    H913994   3.922   5.545  12.327  1.3524 -0.8668 -0.4329
  105CHL1   C1013995   4.069   5.648  12.432 -0.2923  0.1796 -0.0415
  105CHL1   C1913996   4.153   5.779  12.424  0.9102 -0.2209 -0.3179
  105CHL1  H19A13997   4.207   5.792  12.328  2.0380  0.8470  0.4172
  105CHL1  H19B13998   4.085   5.866  12.438  0.5101 -0.6398  0.3964
  105CHL1  H19C13999   4.226   5.786  12.508 -0.0263  0.5409  0.4465
  105CHL1    C114000   3.957   5.665  12.540  0.8304 -0.3221  0.5789
  105CHL1   H1A14001   3.897   5.756  12.521 -1.6620 -1.9791 -0.0291
  105CHL1   H1B14002   3.897   5.573  12.521  0.1556 -0.1972  1.9977
  105CHL1    C214003   4.012   5.666  12.682  0.0362 -0.1941 -0.2532
  105CHL1   H2A14004   3.920   5.651  12.744 -0.7092 -0.0755 -1.3100
  105CHL1   H2B14005   4.057   5.764  12.709  2.1908 -0.5621 -2.2388
  105CHL1   C2014006   3.785   5.696  11.780  0.2465 -0.3025  0.2815
  105CHL1   H2014007   3.849   5.786  11.773  0.6883 -0.6932 -0.8883
  105CHL1   C2114008   3.648   5.750  11.837  0.4201 -0.6032  1.1117
  105CHL1  H21A14009   3.587   5.796  11.756  0.6459 -3.5077 -0.8466
  105CHL1  H21B14010   3.676   5.816  11.921  0.2506  0.4523  0.3667
  105CHL1  H21C14011   3.595   5.664  11.882  1.8859 -1.3185  1.5288
  105CHL1   C2214012   3.763   5.644  11.637  0.2974  0.4301 -0.3314
  105CHL1  H22A14013   3.714   5.720  11.574 -1.1341  0.4187  0.7182
  105CHL1  H22B14014   3.864   5.622  11.596  0.3857  0.6164 -0.2135
  105CHL1   C2314015   3.670   5.523  11.629 -0.2859 -0.2860  0.5483
  105CHL1  H23A14016   3.710   5.428  11.673  0.8859 -0.7896 -1.4889
  105CHL1  H23B14017   3.576   5.549  11.683  0.4130  0.9927  1.1981
  105CHL1   C2414018   3.651   5.500  11.478 -0.1568  0.3231 -0.5647
  105CHL1  H24A14019   3.580   5.576  11.440  1.0424  0.5804 -2.4249
  105CHL1  H24B14020   3.746   5.505  11.420 -0.4694  0.5233 -1.0628
  105CHL1   C2514021   3.597   5.368  11.433 -0.2992  0.5194  0.2301
  105CHL1   H2514022   3.680   5.294  11.432 -1.1446 -0.5555 -2.9717
  105CHL1   C2614023   3.487   5.299  11.514 -0.6542 -0.3766 -0.3861
  105CHL1  H26A14024   3.408   5.370  11.546 -0.2560 -0.2303  0.2962
  105CHL1  H26B14025   3.455   5.214  11.450 -0.0483  0.6610 -2.1383
  105CHL1  H26C14026   3.521   5.254  11.610  0.4709 -0.3481 -0.7569
  105CHL1   C2714027   3.558   5.365  11.285  0.1187  0.0569 -0.5418
  105CHL1  H27A14028   3.648   5.375  11.221  0.5833 -0.9048 -0.0507
  105CHL1  H27B14029   3.525   5.264  11.254 -0.8735  0.2958 -0.3042
  105CHL1  H27C14030   3.479   5.434  11.247  0.3795  0.4487 -0.3773
  106CHL1    C314031   1.233   4.416  12.616  0.4907  0.3391  0.3030
  106CHL1    H314032   1.160   4.499  12.600 -0.8862 -0.8839  0.0119
  106CHL1    O314033   1.315   4.440  12.730  0.3718  0.1623 -0.2456
  106CHL1   H3'14034   1.342   4.357  12.771 -2.2189  0.7709  3.0839
  106CHL1    C414035   1.149   4.284  12.630  0.2638  0.0048 -0.0903
  106CHL1   H4A14036   1.216   4.199  12.653 -0.3738 -0.0553  1.7595
  106CHL1   H4B14037   1.079   4.297  12.716  0.8827 -0.2894  0.4602
  106CHL1    C514038   1.070   4.256  12.502 -0.5196 -0.5789 -0.6129
  106CHL1    C614039   0.935   4.256  12.505  0.7046  0.0209  0.5799
  106CHL1    H614040   0.885   4.284  12.599 -1.0837 -1.8856  0.2914
  106CHL1    C714041   0.842   4.237  12.387 -0.1977  0.6102 -0.4422
  106CHL1   H7A14042   0.766   4.158  12.405  0.1059  0.4269  0.0693
  106CHL1   H7B14043   0.792   4.335  12.369  1.7781  1.7565  0.0017
  106CHL1    C814044   0.916   4.207  12.260  0.0392 -0.6937 -0.4587
  106CHL1    H814045   0.935   4.097  12.264 -0.6766 -0.8181 -0.3253
  106CHL1   C1414046   0.824   4.245  12.140  0.3761 -0.2221 -0.2603
  106CHL1   H1414047   0.838   4.354  12.125  3.1737 -0.5483 -0.4863
  106CHL1   C1514048   0.676   4.221  12.146  0.4505 -0.1164  0.0351
  106CHL1  H15A14049   0.655   4.126  12.200  2.0873 -1.6983 -1.8931
  106CHL1  H15B14050   0.628   4.302  12.204 -0.6217 -1.2416  0.7799
  106CHL1   C1614051   0.623   4.203  12.004  0.1293 -0.1322 -0.2818
  106CHL1  H16A14052   0.583   4.100  11.989 -1.6496  0.7688 -2.2022
  106CHL1  H16B14053   0.549   4.281  11.976  0.8167  0.4981 -0.3696
  106CHL1   C1714054   0.748   4.223  11.911 -0.7420  0.1590  0.1990
  106CHL1   H1714055   0.751   4.334  11.900 -0.5576  0.3356  1.7830
  106CHL1   C1314056   0.872   4.188  12.010  0.3130 -0.1653  0.2370
  106CHL1   C1814057   0.900   4.036  12.007  0.2337 -0.0033  0.2149
  106CHL1  H18A14058   0.937   4.016  11.904  1.1955 -1.3165  0.7970
  106CHL1  H18B14059   0.968   4.007  12.089  1.6851 -1.3785 -1.4158
  106CHL1  H18C14060   0.808   3.980  12.033  0.4405  0.1344  1.2938
  106CHL1   C1214061   1.002   4.268  11.982 -0.0550  0.1751  0.7981
  106CHL1  H12A14062   1.046   4.236  11.885 -2.9171 -0.8368 -0.2886
  106CHL1  H12B14063   0.987   4.378  11.975 -0.5687  0.2290  2.3029
  106CHL1   C1114064   1.105   4.244  12.100 -0.4890  0.2224 -0.3013
  106CHL1  H11A14065   1.162   4.149  12.100  0.7770  0.9367 -0.8223
  106CHL1  H11B14066   1.192   4.311  12.080  1.9494 -1.7232  2.9240
  106CHL1    C914067   1.045   4.284  12.234  0.4973 -0.0036  0.0665
  106CHL1    H914068   1.026   4.394  12.229 -2.4365 -0.4432  0.1180
  106CHL1   C1014069   1.144   4.264  12.364 -0.1009  0.2222  0.5506
  106CHL1   C1914070   1.209   4.123  12.359 -0.3480 -0.6071 -0.0497
  106CHL1  H19A14071   1.290   4.119  12.283  1.0198 -0.1075  1.3340
  106CHL1  H19B14072   1.272   4.102  12.448 -2.0549  0.8360  1.5984
  106CHL1  H19C14073   1.133   4.044  12.345 -1.0083  0.0315 -0.1713
  106CHL1    C114074   1.250   4.381  12.359  0.7061 -0.3263 -0.5704
  106CHL1   H1A14075   1.331   4.368  12.284  1.7227  1.9128  0.0739
  106CHL1   H1B14076   1.200   4.476  12.333  1.9901  0.6496  0.4392
  106CHL1    C214077   1.326   4.408  12.492  0.5585  0.0829 -0.2994
  106CHL1   H2A14078   1.382   4.503  12.482 -0.0103  0.6027  1.1620
  106CHL1   H2B14079   1.401   4.330  12.516 -1.6259 -1.9022  0.6032
  106CHL1   C2014080   0.731   4.150  11.779 -0.1416  0.0065  0.5128
  106CHL1   H2014081   0.727   4.040  11.792 -1.6735 -0.0113  0.1232
  106CHL1   C2114082   0.855   4.185  11.691  0.4907 -0.1952  0.6118
  106CHL1  H21A14083   0.857   4.144  11.589  0.7158  0.1286  0.4852
  106CHL1  H21B14084   0.940   4.133  11.739  0.9708 -2.4461 -2.4130
  106CHL1  H21C14085   0.873   4.294  11.678  1.6644 -0.3944  0.4896
  106CHL1   C2214086   0.602   4.190  11.695 -0.3120  0.5727 -0.1667
  106CHL1  H22A14087   0.512   4.222  11.750 -0.0281 -1.1790  1.4012
  106CHL1  H22B14088   0.644   4.277  11.640  2.7877  0.1874  1.3805
  106CHL1   C2314089   0.566   4.081  11.590  0.4108 -0.0100  0.4609
  106CHL1  H23A14090   0.650   4.055  11.522  0.2058  2.2007 -0.7130
  106CHL1  H23B14091   0.544   3.990  11.651  0.5427 -0.2120  0.2092
  106CHL1   C2414092   0.451   4.123  11.502 -0.4737 -0.8467 -0.1631
  106CHL1  H24A14093   0.367   4.149  11.570 -0.0599 -0.0954  0.0686
  106CHL1  H24B14094   0.473   4.212  11.440  0.9993 -1.4235 -0.5029
  106CHL1   C2514095   0.404   4.020  11.395 -0.4800  0.0710  0.4779
  106CHL1   H2514096   0.487   4.008  11.322 -0.8747  2.8965 -0.5779
  106CHL1   C2614097   0.368   3.886  11.463  0.2194 -0.0194  0.5252
  106CHL1  H26A14098   0.339   3.808  11.389  0.5124 -0.9766  1.3864
  106CHL1  H26B14099   0.449   3.830  11.514 -1.8758 -3.1630  0.7124
  106CHL1  H26C14100   0.287   3.900  11.539  0.3504 -1.5495  0.9909
  106CHL1   C2714101   0.282   4.072  11.324 -0.7554 -0.0194  1.4428
  106CHL1  H27A14102   0.290   4.179  11.296 -2.9435 -0.5410 -1.7332
  106CHL1  H27B14103   0.236   4.009  11.244  0.0450  1.9176 -0.6665
  106CHL1  H27C14104   0.203   4.091  11.399  0.6024  0.2710  2.8522
  107CHL1    C314105   4.113   1.271  12.635 -0.4337 -0.4824 -0.9643
  107CHL1    H314106   4.139   1.163  12.629  2.2652 -0.0883  1.2833
  107CHL1    O314107   4.094   1.283  12.776 -0.3257 -0.1290  0.1498
  107CHL1   H3'14108   4.152   1.216  12.812  0.0544  0.8712  1.4643
  107CHL1    C414109   4.234   1.360  12.589 -0.5874  0.5947  0.3928
  107CHL1   H4A14110   4.221   1.469  12.608  2.4882  1.3539 -1.1376
  107CHL1   H4B14111   4.326   1.324  12.639 -0.5620  1.5226  1.0539
  107CHL1    C514112   4.254   1.357  12.439 -0.1201  0.4109 -0.3327
  107CHL1    C614113   4.372   1.324  12.378  0.0111 -0.4899 -0.4472
  107CHL1    H614114   4.468   1.313  12.431  0.4996  0.6781 -1.0325
  107CHL1    C714115   4.393   1.324  12.227  0.4280 -0.6618 -0.1348
  107CHL1   H7A14116   4.496   1.357  12.202 -0.3285  2.5181  0.6204
  107CHL1   H7B14117   4.379   1.217  12.198 -0.4810 -0.9394  1.2341
  107CHL1    C814118   4.289   1.412  12.153 -0.3263  0.4686 -0.6025
  107CHL1    H814119   4.301   1.519  12.178 -2.6829  0.9059 -1.0896
  107CHL1   C1414120   4.296   1.383  12.007 -0.3646 -0.8774  0.3856
  107CHL1   H1414121   4.252   1.282  11.993 -1.5554 -0.4655  0.9460
  107CHL1   C1514122   4.427   1.391  11.928 -0.0243  0.2245  0.3472
  107CHL1  H15A14123   4.485   1.476  11.967 -1.2698  0.6613  1.3334
  107CHL1  H15B14124   4.473   1.291  11.943  0.2736  0.3243  0.0957
  107CHL1   C1614125   4.380   1.405  11.783 -0.1782 -0.2832 -0.1613
  107CHL1  H16A14126   4.422   1.495  11.734 -2.1860  0.8575  0.1113
  107CHL1  H16B14127   4.396   1.315  11.720 -0.9522 -1.4116  1.1885
  107CHL1   C1714128   4.227   1.429  11.789 -0.1325 -0.4789  0.4742
  107CHL1   H1714129   4.174   1.331  11.788 -2.1656  0.4895  2.5082
  107CHL1   C1314130   4.197   1.474  11.932 -0.1968 -0.4724  0.4729
  107CHL1   C1814131   4.245   1.623  11.943 -0.3270  0.2075  0.3123
  107CHL1  H18A14132   4.254   1.658  12.048  0.8851 -1.6624  0.8859
  107CHL1  H18B14133   4.347   1.626  11.899 -0.4357 -0.0087  0.0492
  107CHL1  H18C14134   4.184   1.686  11.876 -0.4105  0.0119  0.2045
  107CHL1   C1214135   4.056   1.448  11.975  0.4337  0.1242 -0.8151
  107CHL1  H12A14136   3.993   1.523  11.923 -1.6534  0.3437  1.8406
  107CHL1  H12B14137   4.034   1.340  11.957  0.3943 -0.0217  0.0767
  107CHL1   C1114138   4.041   1.471  12.123 -0.4713  0.5191  0.1266
  107CHL1  H11A14139   4.056   1.578  12.148  0.5188  0.3269  0.3762
  107CHL1  H11B14140   3.940   1.439  12.156  0.1992 -0.2708  1.4958
  107CHL1    C914141   4.140   1.386  12.207 -0.1391  0.1936  0.1858
  107CHL1    H914142   4.120   1.279  12.183  0.4070 -0.1380  1.1703
  107CHL1   C1014143   4.127   1.401  12.360  0.6559  0.3975 -0.1157
  107CHL1   C1914144   4.093   1.548  12.400 -0.2023  1.2738 -0.2727
  107CHL1  H19A14145   4.080   1.551  12.510 -1.1026  3.9152 -0.3826
  107CHL1  H19B14146   4.173   1.611  12.357  0.8014 -0.7398 -1.4890
  107CHL1  H19C14147   3.997   1.586  12.359  1.0251  2.7738 -1.9107
  107CHL1    C114148   4.005   1.315  12.403  0.0231  0.4363 -0.2481
  107CHL1   H1A14149   3.919   1.355  12.345  2.3519  2.7237 -2.3708
  107CHL1   H1B14150   4.014   1.210  12.368 -0.2239 -1.4893  4.6947
  107CHL1    C214151   3.988   1.312  12.559  0.1370  0.5998  0.1536
  107CHL1   H2A14152   3.909   1.239  12.589  1.0363  0.1296  1.4632
  107CHL1   H2B14153   3.954   1.413  12.590 -2.5059 -0.0016 -0.5512
  107CHL1   C2014154   4.173   1.497  11.661 -0.2215 -0.1678 -0.0415
  107CHL1   H2014155   4.230   1.591  11.649 -1.8423  0.7411 -0.9929
  107CHL1   C2114156   4.022   1.524  11.671 -0.2925  0.0801  0.3091
  107CHL1  H21A14157   3.963   1.554  11.582  1.1594  0.2235 -0.6442
  107CHL1  H21B14158   3.998   1.609  11.738  0.5147 -0.1067  0.8474
  107CHL1  H21C14159   3.970   1.432  11.705 -1.2984  0.4774 -0.1155
  107CHL1   C2214160   4.191   1.404  11.530 -1.0504  0.5777  0.1561
  107CHL1  H22A14161   4.296   1.367  11.528 -1.3983 -0.5602  1.4153
  107CHL1  H22B14162   4.120   1.318  11.536 -0.2234 -0.0472  1.3907
  107CHL1   C2314163   4.181   1.474  11.386  0.0441  0.2760  0.2542
  107CHL1  H23A14164   4.075   1.506  11.385  0.3086  1.1742 -0.4700
  107CHL1  H23B14165   4.248   1.563  11.383 -0.3696  0.5870 -2.5264
  107CHL1   C2414166   4.209   1.370  11.277  0.0034 -0.8370 -0.0321
  107CHL1  H24A14167   4.315   1.337  11.280  0.2757 -0.1105 -1.0155
  107CHL1  H24B14168   4.142   1.286  11.306  0.8203 -1.0291  1.4117
  107CHL1   C2514169   4.178   1.422  11.138  0.0690  0.1523 -0.3212
  107CHL1   H2514170   4.088   1.485  11.153 -0.8195 -1.6563  3.0603
  107CHL1   C2614171   4.292   1.510  11.076  0.2673  0.5919  0.0376
  107CHL1  H26A14172   4.390   1.460  11.088 -0.0278 -0.7446 -2.4027
  107CHL1  H26B14173   4.270   1.516  10.968 -0.0193  1.1601  0.1270
  107CHL1  H26C14174   4.288   1.608  11.128 -0.5097 -1.0275  3.3379
  107CHL1   C2714175   4.158   1.307  11.040 -0.1483 -0.3767  0.1390
  107CHL1  H27A14176   4.251   1.253  11.011  0.0644 -0.0396  0.1981
  107CHL1  H27B14177   4.087   1.234  11.087 -0.5909  0.2925  0.5280
  107CHL1  H27C14178   4.103   1.338  10.949  2.3544 -0.1233 -1.3673
  108CHL1    C314179   4.200   4.493  12.781 -0.6183 -0.5722 -0.7423
  108CHL1    H314180   4.291   4.429  12.785 -0.0437  0.3089  1.4510
  108CHL1    O314181   4.164   4.525  12.909 -0.2613 -0.1497 -0.3630
  108CHL1   H3'14182   4.069   4.510  12.910 -0.2266 -0.9939 -3.1383
  108CHL1    C414183   4.247   4.623  12.700  0.2488  0.7288  0.3801
  108CHL1   H4A14184   4.169   4.702  12.704  1.3503  2.0605 -2.1568
  108CHL1   H4B14185   4.341   4.660  12.746  2.4262  1.3033 -4.0967
  108CHL1    C514186   4.269   4.582  12.554 -0.3788 -0.5937 -0.0900
  108CHL1    C614187   4.390   4.604  12.500  0.0684 -0.0438  0.0956
  108CHL1    H614188   4.480   4.643  12.551  0.0209  2.0495 -1.2603
  108CHL1    C714189   4.409   4.587  12.346 -0.4385  0.2080 -0.8210
  108CHL1   H7A14190   4.471   4.670  12.306  0.6239  0.3366  0.9878
  108CHL1   H7B14191   4.465   4.492  12.336 -0.1309 -0.0338  2.2761
  108CHL1    C814192   4.278   4.562  12.263 -0.1274  0.5578  0.1353
  108CHL1    H814193   4.215   4.654  12.260 -1.0790 -0.0927 -0.2837
  108CHL1   C1414194   4.304   4.509  12.120  0.1572  0.3718  0.5170
  108CHL1   H1414195   4.359   4.414  12.136 -1.0056 -0.4312 -0.0964
  108CHL1   C1514196   4.392   4.588  12.023  0.0255  0.1165  0.0922
  108CHL1  H15A14197   4.354   4.692  12.031 -1.1949 -0.3316  0.5188
  108CHL1  H15B14198   4.501   4.586  12.042 -0.1375  1.5142  1.3826
  108CHL1   C1614199   4.370   4.526  11.885  0.1884  0.1392  0.0528
  108CHL1  H16A14200   4.360   4.611  11.814  0.3102  0.8346  0.8528
  108CHL1  H16B14201   4.458   4.464  11.857 -0.1772 -0.2904 -0.1505
  108CHL1   C1714202   4.251   4.423  11.912 -0.3786 -0.1805 -0.4241
  108CHL1   H1714203   4.298   4.327  11.941 -0.9680  0.0771  1.5075
  108CHL1   C1314204   4.184   4.471  12.040 -0.6291  0.3742  0.4734
  108CHL1   C1814205   4.097   4.590  12.002 -0.0079 -0.3848 -0.0085
  108CHL1  H18A14206   4.003   4.550  11.958 -0.8302  1.4775 -0.0626
  108CHL1  H18B14207   4.085   4.649  12.095  1.5467 -0.1583  0.0678
  108CHL1  H18C14208   4.144   4.651  11.922 -1.3004 -0.0137 -0.5096
  108CHL1   C1214209   4.103   4.364  12.120  0.0115  0.6044 -0.1108
  108CHL1  H12A14210   4.015   4.336  12.058  1.4915  0.5118 -2.2805
  108CHL1  H12B14211   4.153   4.265  12.128 -3.8152 -1.5911 -0.7742
  108CHL1   C1114212   4.062   4.415  12.256 -0.1444  0.0050 -0.2937
  108CHL1  H11A14213   3.993   4.502  12.241 -1.3323 -0.4738  2.0022
  108CHL1  H11B14214   4.017   4.332  12.313 -0.3542  1.9603  2.5967
  108CHL1    C914215   4.190   4.462  12.336 -0.5373  0.0684 -0.2115
  108CHL1    H914216   4.259   4.375  12.339 -1.5221 -0.7843 -1.2933
  108CHL1   C1014217   4.152   4.517  12.476 -0.3866  0.4227 -0.3952
  108CHL1   C1914218   4.034   4.612  12.470 -0.5722  0.5340  0.1903
  108CHL1  H19A14219   3.939   4.556  12.454 -1.0679  1.7766 -1.4647
  108CHL1  H19B14220   4.021   4.669  12.565  0.4316  0.8869  0.1302
  108CHL1  H19C14221   4.044   4.694  12.395 -1.9334  1.9230  1.4578
  108CHL1    C114222   4.093   4.394  12.561 -0.5464 -0.1941  0.3764
  108CHL1   H1A14223   3.994   4.365  12.521 -0.5841 -1.4582  1.3019
  108CHL1   H1B14224   4.167   4.312  12.547  0.5998  0.7553  0.6745
  108CHL1    C214225   4.081   4.420  12.713  0.0038  0.2513 -0.1179
  108CHL1   H2A14226   4.090   4.326  12.771 -1.2984  0.8214  1.0751
  108CHL1   H2B14227   3.989   4.479  12.733 -0.4520  0.9354 -3.6494
  108CHL1   C2014228   4.168   4.372  11.793  0.3380 -0.9671  0.1442
  108CHL1   H2014229   4.067   4.348  11.832 -0.1317  0.6971  0.0586
  108CHL1   C2114230   4.254   4.264  11.724  0.3106 -0.4446  0.3366
  108CHL1  H21A14231   4.348   4.315  11.696 -0.2089  1.1924  1.4065
  108CHL1  H21B14232   4.201   4.216  11.639 -1.1829 -0.9680  1.5141
  108CHL1  H21C14233   4.272   4.177  11.791  2.4713  1.4185  2.3409
  108CHL1   C2214234   4.137   4.482  11.678 -0.3270 -0.3473  0.0312
  108CHL1  H22A14235   4.089   4.575  11.715  2.4113  0.5244  1.6966
  108CHL1  H22B14236   4.231   4.517  11.631 -0.1452 -0.9106 -0.0329
  108CHL1   C2314237   4.061   4.433  11.562 -0.6110  0.0736  0.5004
  108CHL1  H23A14238   4.121   4.358  11.507 -1.9195 -1.1558  0.6897
  108CHL1  H23B14239   3.977   4.375  11.607  0.7579 -0.8101  1.9995
  108CHL1   C2414240   4.002   4.539  11.470  0.0357  0.5376  0.2013
  108CHL1  H24A14241   3.946   4.495  11.384  0.3805  0.3515  0.0717
  108CHL1  H24B14242   3.926   4.603  11.521 -0.7797 -1.4816  1.6705
  108CHL1   C2514243   4.097   4.642  11.404  0.3488  0.7068  0.7831
  108CHL1   H2514244   4.143   4.697  11.489 -1.7901  2.0098  1.1674
  108CHL1   C2614245   4.200   4.566  11.314  0.2846 -0.0391 -0.2852
  108CHL1  H26A14246   4.252   4.482  11.364 -0.3091  0.1318  0.6483
  108CHL1  H26B14247   4.147   4.526  11.224 -1.6935  0.7950  0.4503
  108CHL1  H26C14248   4.273   4.643  11.281 -1.0340  1.3183 -0.1380
  108CHL1   C2714249   4.013   4.750  11.327 -0.2031  0.8081 -0.3558
  108CHL1  H27A14250   3.937   4.789  11.398  2.1870  0.3830  2.6587
  108CHL1  H27B14251   4.064   4.840  11.286  1.1127  0.9210  1.3954
  108CHL1  H27C14252   3.967   4.689  11.247 -1.5101 -0.9394  1.6017
  109CHL1    C314253   6.258   1.962  12.443  0.5451  0.0001  0.0486
  109CHL1    H314254   6.205   2.059  12.451  0.9852  0.1091  1.9496
  109CHL1    O314255   6.199   1.875  12.541 -0.0186  0.0207  0.1809
  109CHL1   H3'14256   6.264   1.806  12.545  0.9534  0.8267 -0.9205
  109CHL1    C414257   6.257   1.894  12.305  0.1887  0.0553 -0.1151
  109CHL1   H4A14258   6.312   1.798  12.305  0.2006  0.0596  0.2627
  109CHL1   H4B14259   6.155   1.866  12.271 -0.4705  1.3544  0.7123
  109CHL1    C514260   6.331   1.991  12.214 -0.3235  0.1831 -0.9858
  109CHL1    C614261   6.268   2.040  12.106  0.3436 -0.3731  0.3417
  109CHL1    H614262   6.161   2.014  12.097  0.2543 -1.1416  2.8430
  109CHL1    C714263   6.321   2.135  12.006  0.4258 -0.2543 -0.2759
  109CHL1   H7A14264   6.297   2.097  11.904 -0.7893 -1.8030  0.5367
  109CHL1   H7B14265   6.277   2.238  12.011  1.7441  0.4034 -1.4446
  109CHL1    C814266   6.476   2.167  12.030  0.4375 -0.2841 -0.0318
  109CHL1    H814267   6.525   2.081  11.981 -3.8014 -1.4449 -2.8875
  109CHL1   C1414268   6.511   2.294  11.956 -0.0309 -0.0001 -0.3721
  109CHL1   H1414269   6.462   2.384  11.997  2.2115  1.4410 -0.6512
  109CHL1   C1514270   6.480   2.302  11.807 -0.0142  0.0208 -0.2255
  109CHL1  H15A14271   6.512   2.208  11.759 -4.4314 -1.8709  0.0467
  109CHL1  H15B14272   6.371   2.313  11.786 -0.7336 -2.5086  1.7284
  109CHL1   C1614273   6.566   2.421  11.757  0.5055 -0.5822 -0.4564
  109CHL1  H16A14274   6.623   2.395  11.665 -1.8671 -2.7263 -1.4174
  109CHL1  H16B14275   6.491   2.501  11.739 -0.1921 -1.0356  0.3839
  109CHL1   C1714276   6.653   2.461  11.880  0.0067 -0.3087  0.2239
  109CHL1   H1714277   6.599   2.536  11.942  0.9147 -1.3604  2.3765
  109CHL1   C1314278   6.655   2.337  11.969 -0.8811  0.6929 -0.9721
  109CHL1   C1814279   6.754   2.232  11.910 -0.0594  0.2483 -0.0351
  109CHL1  H18A14280   6.859   2.264  11.919 -0.0750  0.3118 -0.0767
  109CHL1  H18B14281   6.758   2.137  11.969 -0.8968 -0.0226 -0.3868
  109CHL1  H18C14282   6.720   2.204  11.808  1.7254 -0.2884 -0.5104
  109CHL1   C1214283   6.685   2.361  12.122  0.2008 -0.2243 -0.2431
  109CHL1  H12A14284   6.793   2.375  12.144 -0.1158  1.4330  0.3726
  109CHL1  H12B14285   6.616   2.445  12.144 -1.6654 -0.9732 -2.6911
  109CHL1   C1114286   6.647   2.235  12.203 -0.8230  0.0158 -0.7283
  109CHL1  H11A14287   6.718   2.152  12.185 -0.6611 -0.4875  1.8879
  109CHL1  H11B14288   6.665   2.262  12.309  3.4326 -1.3044 -0.9329
  109CHL1    C914289   6.502   2.176  12.177 -0.6365  0.1610  0.2157
  109CHL1    H914290   6.440   2.259  12.218  0.3542  0.1377  1.8746
  109CHL1   C1014291   6.472   2.047  12.257 -0.3279  0.2903  0.0487
  109CHL1   C1914292   6.574   1.923  12.222 -0.0059 -1.1260  0.1650
  109CHL1  H19A14293   6.583   1.902  12.114 -0.7453 -0.8446  0.0463
  109CHL1  H19B14294   6.675   1.931  12.268  0.6577 -1.3332 -1.2320
  109CHL1  H19C14295   6.529   1.834  12.272 -2.5958  0.0287  0.0322
  109CHL1    C114296   6.479   2.089  12.405 -0.2274  0.4473  0.4684
  109CHL1   H1A14297   6.581   2.109  12.445  0.4431 -1.4944 -0.1843
  109CHL1   H1B14298   6.426   2.186  12.419 -0.6207  0.3016 -0.0138
  109CHL1    C214299   6.404   1.986  12.494 -0.4259 -0.2903  0.4106
  109CHL1   H2A14300   6.404   2.034  12.594  1.9925  2.6074 -0.8405
  109CHL1   H2B14301   6.462   1.891  12.500 -0.3909 -0.3268 -0.3233
  109CHL1   C2014302   6.785   2.537  11.841 -0.5403  0.6953  0.4861
  109CHL1   H2014303   6.847   2.466  11.782  1.6667  1.3419  1.8946
  109CHL1   C2114304   6.870   2.568  11.965 -0.6077  0.2546  0.1472
  109CHL1  H21A14305   6.946   2.646  11.945 -1.7892  1.2194 -0.6921
  109CHL1  H21B14306   6.909   2.484  12.027  0.2119  0.3690 -0.1971
  109CHL1  H21C14307   6.803   2.619  12.038 -0.9847  1.4765 -1.0182
  109CHL1   C2214308   6.767   2.665  11.753 -0.5655 -0.1506  0.6047
  109CHL1  H22A14309   6.676   2.645  11.692 -1.6777  1.1716  1.7664
  109CHL1  H22B14310   6.736   2.744  11.824  0.2211 -0.7929  1.6908
  109CHL1   C2314311   6.892   2.693  11.676  0.0504 -0.2227  0.8844
  109CHL1  H23A14312   6.975   2.700  11.750  1.2992 -2.1409 -0.2303
  109CHL1  H23B14313   6.916   2.606  11.612 -0.7513  1.2686 -1.5842
  109CHL1   C2414314   6.874   2.821  11.594 -0.1528  0.2476  0.0354
  109CHL1  H24A14315   6.847   2.797  11.489 -0.8089  0.1195  0.2307
  109CHL1  H24B14316   6.787   2.879  11.632 -1.4582 -2.2242  1.0253
  109CHL1   C2514317   6.995   2.918  11.573 -0.2216  0.4373 -0.4802
  109CHL1   H2514318   7.027   2.958  11.672 -3.6581  1.3568  0.3681
  109CHL1   C2614319   7.111   2.846  11.506  0.3088  0.1796 -0.3330
  109CHL1  H26A14320   7.128   2.752  11.562 -1.6173 -0.3062 -0.4813
  109CHL1  H26B14321   7.060   2.810  11.414  0.3930  1.2888 -0.8328
  109CHL1  H26C14322   7.203   2.906  11.493 -0.1361  0.7552 -0.9234
  109CHL1   C2714323   6.951   3.039  11.488  0.5225  0.3540  0.1023
  109CHL1  H27A14324   6.926   3.010  11.383  1.1858 -1.4763  0.4191
  109CHL1  H27B14325   6.862   3.088  11.532  1.4634  0.0569  2.4619
  109CHL1  H27C14326   7.035   3.111  11.493  0.4868  0.3993  0.0621
  110CHL1    C314327   8.036   7.011  12.813 -0.0971  0.2893  0.9499
  110CHL1    H314328   8.036   6.903  12.787  0.4721  0.4704  0.1728
  110CHL1    O314329   8.126   7.027  12.920  0.2314 -0.2531 -0.0879
  110CHL1   H3'14330   8.118   7.117  12.954  0.5502  0.2464 -1.2941
  110CHL1    C414331   8.082   7.087  12.683 -0.1095  0.2476 -0.1799
  110CHL1   H4A14332   8.079   7.197  12.699  1.0578  0.1926  0.4838
  110CHL1   H4B14333   8.190   7.063  12.673  0.4105  1.5462  1.7164
  110CHL1    C514334   7.989   7.063  12.564  0.2114  0.9269  0.0661
  110CHL1    C614335   8.046   7.024  12.446 -0.1525  0.2283 -0.3142
  110CHL1    H614336   8.156   7.030  12.437 -0.2360  0.0817 -1.4841
  110CHL1    C714337   7.970   7.001  12.319  0.6069 -0.3968 -0.6531
  110CHL1   H7A14338   8.024   7.057  12.239  0.1904 -1.1710 -1.5107
  110CHL1   H7B14339   7.978   6.896  12.283 -3.6452 -1.0123 -0.2057
  110CHL1    C814340   7.823   7.054  12.318  0.9272  0.0324 -0.1306
  110CHL1    H814341   7.821   7.165  12.312 -0.2624  0.0217 -0.1548
  110CHL1   C1414342   7.745   6.997  12.198 -0.3088 -0.0230 -0.1040
  110CHL1   H1414343   7.760   6.889  12.217  1.9239  0.1278 -0.6393
  110CHL1   C1514344   7.804   7.012  12.058  0.5990  0.3453  0.1793
  110CHL1  H15A14345   7.822   7.118  12.031  0.5482  0.8680  2.0772
  110CHL1  H15B14346   7.899   6.960  12.035 -1.3476 -3.7988  0.6308
  110CHL1   C1614347   7.692   6.953  11.966  0.4110  0.2972  0.1185
  110CHL1  H16A14348   7.676   7.018  11.877  1.5029  0.5971  0.1289
  110CHL1  H16B14349   7.733   6.854  11.937  1.3627  0.2922  1.4204
  110CHL1   C1714350   7.563   6.934  12.067 -0.6497  0.7474 -0.1632
  110CHL1   H1714351   7.558   6.828  12.102 -0.0404  0.9262  0.4793
  110CHL1   C1314352   7.594   7.027  12.192  0.2927 -0.2652 -0.0452
  110CHL1   C1814353   7.569   7.173  12.158  0.0333 -0.0834 -0.2057
  110CHL1  H18A14354   7.618   7.244  12.229 -0.4449  2.8538 -2.5881
  110CHL1  H18B14355   7.627   7.206  12.069  1.7814  1.7744  1.5061
  110CHL1  H18C14356   7.460   7.196  12.152 -0.5594 -1.5297  2.9576
  110CHL1   C1214357   7.537   6.983  12.334  0.3740  0.2729  0.1316
  110CHL1  H12A14358   7.428   7.003  12.337 -0.1697 -2.4135  0.9019
  110CHL1  H12B14359   7.555   6.873  12.339 -1.7760 -0.0960  0.9894
  110CHL1   C1114360   7.607   7.050  12.447 -0.0747 -1.0002  0.5496
  110CHL1  H11A14361   7.589   7.159  12.436 -0.8962 -1.3318 -1.9979
  110CHL1  H11B14362   7.563   7.020  12.545  0.3052  3.2755  2.2546
  110CHL1    C914363   7.758   7.019  12.451  0.0306 -0.5467  0.4360
  110CHL1    H914364   7.753   6.908  12.450  1.2140 -0.6329 -1.7153
  110CHL1   C1014365   7.835   7.071  12.583 -0.2568 -0.3967  0.6808
  110CHL1   C1914366   7.807   7.223  12.603 -0.0438  0.1742  0.1922
  110CHL1  H19A14367   7.879   7.266  12.676  0.2501 -2.2702  1.4244
  110CHL1  H19B14368   7.815   7.282  12.509  1.3822  2.1931  1.5124
  110CHL1  H19C14369   7.702   7.236  12.639 -1.1513 -3.5421 -1.2615
  110CHL1    C114370   7.801   6.993  12.717 -0.6113 -0.3948  0.3215
  110CHL1   H1A14371   7.693   7.007  12.741 -1.1151 -0.9078 -1.5219
  110CHL1   H1B14372   7.822   6.888  12.691  1.3496  0.1281 -0.3378
  110CHL1    C214373   7.895   7.041  12.834  0.1331 -0.4709 -0.0996
  110CHL1   H2A14374   7.856   6.989  12.924  3.7577 -0.7031  1.4956
  110CHL1   H2B14375   7.877   7.150  12.838  1.0713 -0.2820 -0.8749
  110CHL1   C2014376   7.435   6.959  11.980 -0.4514 -0.9512  0.4111
  110CHL1   H2014377   7.439   7.065  11.946  0.4606 -1.1748 -0.2160
  110CHL1   C2114378   7.311   6.954  12.067  0.2689 -0.6199 -0.6428
  110CHL1  H21A14379   7.327   7.020  12.155  1.8698 -1.0673 -0.5532
  110CHL1  H21B14380   7.273   6.853  12.092  2.0221 -0.9773  0.8580
  110CHL1  H21C14381   7.225   7.006  12.019 -0.7662 -1.5422  0.1733
  110CHL1   C2214382   7.425   6.856  11.861  0.2874  0.7118 -0.5463
  110CHL1  H22A14383   7.515   6.839  11.798 -2.0079 -0.6011 -3.6847
  110CHL1  H22B14384   7.408   6.754  11.902 -0.1560  0.7785 -0.5626
  110CHL1   C2314385   7.326   6.884  11.745  0.4514 -0.1046 -0.1373
  110CHL1  H23A14386   7.224   6.865  11.783  0.2042  1.4194  0.0570
  110CHL1  H23B14387   7.335   6.991  11.713 -1.0320  0.1458  0.2307
  110CHL1   C2414388   7.353   6.795  11.621 -0.5633 -0.2812 -0.3998
  110CHL1  H24A14389   7.456   6.808  11.582  0.8095 -3.0447  1.9091
  110CHL1  H24B14390   7.351   6.690  11.657  0.8082 -0.7980 -1.7527
  110CHL1   C2514391   7.260   6.824  11.501 -0.2821 -0.9296 -0.6811
  110CHL1   H2514392   7.165   6.869  11.538 -1.5029 -2.4808 -1.7957
  110CHL1   C2614393   7.336   6.935  11.424  0.1297  0.3876  0.3434
  110CHL1  H26A14394   7.337   7.032  11.479 -2.6638  0.8059 -0.1781
  110CHL1  H26B14395   7.438   6.906  11.390 -0.4839 -2.0888  0.4282
  110CHL1  H26C14396   7.268   6.947  11.337 -0.4672  0.0278  0.7585
  110CHL1   C2714397   7.232   6.702  11.419 -0.5418  0.1583 -0.3075
  110CHL1  H27A14398   7.184   6.623  11.480  0.6478  0.4932  1.1071
  110CHL1  H27B14399   7.171   6.723  11.328  0.1296  1.6255 -0.4493
  110CHL1  H27C14400   7.332   6.669  11.384 -0.2302  1.5839 -0.8391
  111CHL1    C314401   1.499   0.924  12.524 -0.0670  0.1648  0.6357
  111CHL1    H314402   1.456   1.025  12.516  0.3060  0.3784  1.2410
  111CHL1    O314403   1.543   0.915  12.657 -0.1827  0.1887  0.2636
  111CHL1   H3'14404   1.568   0.822  12.658 -1.2400 -0.1163  0.0901
  111CHL1    C414405   1.402   0.805  12.480 -1.0360 -0.1808  0.1742
  111CHL1   H4A14406   1.467   0.716  12.489 -0.7230 -0.8820 -5.3508
  111CHL1   H4B14407   1.315   0.804  12.549 -1.0965 -1.2314  0.0935
  111CHL1    C514408   1.371   0.827  12.333  0.0568 -0.0531  0.2116
  111CHL1    C614409   1.242   0.836  12.292  0.8260 -0.1737 -0.5736
  111CHL1    H614410   1.157   0.837  12.362  1.2171 -0.1009 -0.0945
  111CHL1    C714411   1.204   0.842  12.143 -0.5325 -0.0830  0.5807
  111CHL1   H7A14412   1.117   0.773  12.130  0.0609 -1.0294  1.4099
  111CHL1   H7B14413   1.172   0.946  12.122 -2.2090 -0.2443  2.0519
  111CHL1    C814414   1.323   0.804  12.046 -0.1849  0.0105  0.5263
  111CHL1    H814415   1.317   0.693  12.039  0.2342 -0.0082  0.4650
  111CHL1   C1414416   1.295   0.856  11.907 -0.6938 -0.1800  0.4224
  111CHL1   H1414417   1.317   0.965  11.911  0.4290 -0.4211  1.7709
  111CHL1   C1514418   1.158   0.837  11.856  0.4116 -0.1494  0.4952
  111CHL1  H15A14419   1.142   0.728  11.867  0.6555 -0.3792 -1.2487
  111CHL1  H15B14420   1.079   0.905  11.896 -0.0498  0.2531 -1.0519
  111CHL1   C1614421   1.173   0.873  11.705 -0.7425 -0.2045 -0.1549
  111CHL1  H16A14422   1.115   0.796  11.649  0.7671 -0.7242 -1.0912
  111CHL1  H16B14423   1.118   0.967  11.687 -0.9295 -0.1665  0.5774
  111CHL1   C1714424   1.331   0.867  11.674 -0.1479  0.0253 -0.2724
  111CHL1   H1714425   1.374   0.969  11.668  2.8498 -1.2065 -1.7798
  111CHL1   C1314426   1.398   0.813  11.801  0.0938 -0.0605  0.1033
  111CHL1   C1814427   1.391   0.665  11.779 -0.5786 -0.4944  0.3308
  111CHL1  H18A14428   1.411   0.607  11.872  0.8546  1.3241  1.2213
  111CHL1  H18B14429   1.289   0.633  11.750 -0.3281  0.5615 -1.8620
  111CHL1  H18C14430   1.453   0.633  11.693  0.8954 -0.0093  1.1736
  111CHL1   C1214431   1.537   0.868  11.844  0.0746  0.7463 -0.4961
  111CHL1  H12A14432   1.618   0.837  11.774 -1.1318  0.0171 -1.6173
  111CHL1  H12B14433   1.525   0.978  11.840 -1.5883  0.7436  2.2039
  111CHL1   C1114434   1.572   0.827  11.985 -0.3151  0.3623 -1.3742
  111CHL1  H11A14435   1.601   0.720  11.984 -1.2003  0.0386  0.8914
  111CHL1  H11B14436   1.663   0.880  12.020 -1.2776 -0.7906  3.7059
  111CHL1    C914437   1.455   0.851  12.095 -0.0240 -0.1888 -0.1665
  111CHL1    H914438   1.450   0.962  12.092  0.7499 -0.1537 -3.2796
  111CHL1   C1014439   1.494   0.815  12.238  0.3074  0.0762 -0.7681
  111CHL1   C1914440   1.546   0.670  12.226  0.4878 -0.0486  0.4340
  111CHL1  H19A14441   1.540   0.606  12.317 -1.8237 -0.3660  0.1362
  111CHL1  H19B14442   1.491   0.622  12.142 -0.2148  0.5600  0.5359
  111CHL1  H19C14443   1.654   0.682  12.206  0.5954  1.9778  1.9004
  111CHL1    C114444   1.602   0.915  12.282 -0.6319  0.2222 -0.3115
  111CHL1   H1A14445   1.698   0.895  12.232 -0.5213 -1.0013  0.3557
  111CHL1   H1B14446   1.582   1.016  12.241  1.2896 -0.4007 -2.9877
  111CHL1    C214447   1.626   0.909  12.432  0.1311  0.3313  0.5849
  111CHL1   H2A14448   1.697   0.991  12.456  0.2391  1.0226 -1.8584
  111CHL1   H2B14449   1.683   0.816  12.451 -2.2594 -0.9043  2.2402
  111CHL1   C2014450   1.358   0.816  11.535 -0.3728 -0.5608 -0.2739
  111CHL1   H2014451   1.324   0.712  11.517 -1.7840  0.0414 -1.2634
  111CHL1   C2114452   1.514   0.818  11.504  0.1440 -0.1835 -0.5534
  111CHL1  H21A14453   1.548   0.924  11.502  0.3745 -0.0901  2.7466
  111CHL1  H21B14454   1.540   0.775  11.405  0.6003 -0.3667 -0.3567
  111CHL1  H21C14455   1.576   0.764  11.578  1.5858  1.5215 -0.4419
  111CHL1   C2214456   1.301   0.899  11.416 -0.2192  0.3665 -0.5704
  111CHL1  H22A14457   1.193   0.907  11.441 -0.5674  1.2586 -2.1864
  111CHL1  H22B14458   1.344   1.001  11.426 -0.1092  0.4383 -1.6281
  111CHL1   C2314459   1.311   0.837  11.277  0.3886  0.1251 -0.3683
  111CHL1  H23A14460   1.418   0.824  11.250 -0.1236 -1.7576 -1.7208
  111CHL1  H23B14461   1.267   0.736  11.289 -1.5182  0.9877  0.2452
  111CHL1   C2414462   1.241   0.925  11.170  0.0843 -0.5899 -0.2273
  111CHL1  H24A14463   1.137   0.944  11.203 -0.7168  0.7475 -3.1521
  111CHL1  H24B14464   1.306   1.013  11.153  1.0036 -1.2014 -0.0109
  111CHL1   C2514465   1.227   0.845  11.039  0.2385  0.1169 -0.4117
  111CHL1   H2514466   1.162   0.760  11.067  1.6502 -0.3966  1.4435
  111CHL1   C2614467   1.155   0.918  10.923 -0.0961 -0.6866 -0.2839
  111CHL1  H26A14468   1.062   0.964  10.964  1.5243  0.9893  1.7654
  111CHL1  H26B14469   1.222   1.000  10.891  1.8241 -1.9588  0.3285
  111CHL1  H26C14470   1.131   0.858  10.833 -2.4489  1.3674 -1.1462
  111CHL1   C2714471   1.363   0.801  10.982 -0.4198  0.0285 -0.2026
  111CHL1  H27A14472   1.417   0.893  10.951  0.9640 -0.7273 -0.1207
  111CHL1  H27B14473   1.435   0.747  11.047 -1.0725 -2.0790 -1.1346
  111CHL1  H27C14474   1.353   0.740  10.890  1.1545 -0.2657 -0.2123
  112CHL1    C314475   3.672   0.877  12.499 -0.4863  0.1530  0.6698
  112CHL1    H314476   3.645   0.970  12.554  0.8357  0.5735  0.6386
  112CHL1    O314477   3.695   0.773  12.591 -0.3593 -0.0577  0.4709
  112CHL1   H3'14478   3.788   0.790  12.607 -0.2822  2.1608 -1.6786
  112CHL1    C414479   3.561   0.838  12.398  0.1898 -0.5755 -0.0812
  112CHL1   H4A14480   3.592   0.737  12.364  0.8185 -1.1405  2.0279
  112CHL1   H4B14481   3.466   0.811  12.449  0.7076  1.2592  2.0139
  112CHL1    C514482   3.535   0.949  12.294  0.1236  0.3430 -0.2108
  112CHL1    C614483   3.420   1.019  12.282  0.1158 -0.7570 -0.9237
  112CHL1    H614484   3.337   0.993  12.350  0.8225  0.9429  0.7113
  112CHL1    C714485   3.385   1.127  12.188 -0.8882  0.0489  0.0418
  112CHL1   H7A14486   3.286   1.103  12.144 -0.5920 -1.3076  0.0443
  112CHL1   H7B14487   3.381   1.227  12.235  2.2483  1.2447 -1.8867
  112CHL1    C814488   3.497   1.140  12.074 -0.6419  0.1481  0.5666
  112CHL1    H814489   3.484   1.055  12.003 -1.5679  1.1178 -0.4610
  112CHL1   C1414490   3.475   1.280  12.003 -0.9610  0.2653 -0.4444
  112CHL1   H1414491   3.469   1.356  12.084  2.9441  0.0343  0.2439
  112CHL1   C1514492   3.344   1.297  11.925  0.0314 -0.5661 -0.8805
  112CHL1  H15A14493   3.324   1.205  11.867  0.6387 -1.2303 -0.0713
  112CHL1  H15B14494   3.261   1.321  11.994  0.1855  2.5269 -1.6378
  112CHL1   C1614495   3.367   1.419  11.831  0.1576 -0.0160  0.7458
  112CHL1  H16A14496   3.369   1.389  11.724 -1.9074 -1.0023  0.9376
  112CHL1  H16B14497   3.283   1.491  11.829 -2.1505 -2.5847 -0.6746
  112CHL1   C1714498   3.514   1.465  11.864 -0.5774  0.0871 -0.3744
  112CHL1   H1714499   3.503   1.534  11.950  1.5921 -0.6827  0.6028
  112CHL1   C1314500   3.585   1.336  11.921  0.1170  0.9457  0.4498
  112CHL1   C1814501   3.618   1.238  11.809  0.7942  0.1939 -0.4539
  112CHL1  H18A14502   3.665   1.144  11.843  0.9044  0.1364 -0.7597
  112CHL1  H18B14503   3.530   1.208  11.748  0.6773 -0.7348  0.1633
  112CHL1  H18C14504   3.702   1.282  11.751  2.2935 -1.0138  0.7389
  112CHL1   C1214505   3.710   1.345  12.003 -0.1879  0.3919 -0.1855
  112CHL1  H12A14506   3.798   1.361  11.938  0.2451 -0.2219  0.2402
  112CHL1  H12B14507   3.714   1.425  12.080 -0.8274 -0.2664  0.5506
  112CHL1   C1114508   3.745   1.203  12.073 -0.2835 -0.3338  0.0888
  112CHL1  H11A14509   3.791   1.122  12.013  2.9991 -0.1201  2.0750
  112CHL1  H11B14510   3.827   1.216  12.146  0.8275 -2.4951 -0.6867
  112CHL1    C914511   3.625   1.141  12.154  0.2051 -0.1678  0.3274
  112CHL1    H914512   3.603   1.211  12.238 -1.2199 -0.8489  0.5553
  112CHL1   C1014513   3.660   1.000  12.216  0.2098  0.5813  0.5705
  112CHL1   C1914514   3.683   0.891  12.105  0.3899 -0.7391 -0.5931
  112CHL1  H19A14515   3.780   0.930  12.069  0.0585  0.8072  0.0717
  112CHL1  H19B14516   3.695   0.785  12.138 -2.2267  0.0048  3.6044
  112CHL1  H19C14517   3.606   0.889  12.025  0.4392  0.9141 -0.7202
  112CHL1    C114518   3.785   1.005  12.314  0.2544  0.1351 -0.3348
  112CHL1   H1A14519   3.872   1.008  12.246 -0.0979 -1.2146 -0.8694
  112CHL1   H1B14520   3.774   1.094  12.380 -0.1908 -1.3741  1.7582
  112CHL1    C214521   3.802   0.895  12.424 -0.6320 -0.3397 -0.5454
  112CHL1   H2A14522   3.882   0.923  12.496 -1.1141  0.4523 -0.3151
  112CHL1   H2B14523   3.831   0.805  12.365  1.0790 -0.0753 -0.1663
  112CHL1   C2014524   3.588   1.539  11.749 -0.3422 -0.2425 -0.2481
  112CHL1   H2014525   3.618   1.461  11.676 -0.7216 -1.4003  0.7991
  112CHL1   C2114526   3.706   1.614  11.815  0.4207  0.0262 -0.2488
  112CHL1  H21A14527   3.757   1.686  11.748  2.4135 -0.4837  0.6615
  112CHL1  H21B14528   3.785   1.545  11.849  0.9921  1.3911  1.3035
  112CHL1  H21C14529   3.667   1.665  11.905  0.2156  0.2576 -0.4670
  112CHL1   C2214530   3.491   1.637  11.679  0.3322 -0.5076  0.3870
  112CHL1  H22A14531   3.533   1.675  11.583  0.6499 -0.2274  0.6356
  112CHL1  H22B14532   3.391   1.598  11.652  0.1325  1.3344 -1.8454
  112CHL1   C2314533   3.447   1.763  11.755 -0.2280 -0.3077 -0.4325
  112CHL1  H23A14534   3.446   1.738  11.863  1.2376 -3.3866 -1.0189
  112CHL1  H23B14535   3.529   1.838  11.750 -1.6191  1.3955  1.1048
  112CHL1   C2414536   3.323   1.822  11.702  0.6574 -0.5610 -0.5026
  112CHL1  H24A14537   3.244   1.745  11.716 -0.3483  0.5853  0.3722
  112CHL1  H24B14538   3.288   1.914  11.753 -1.2993 -0.8129 -1.2867
  112CHL1   C2514539   3.342   1.865  11.552 -0.0143 -0.2552 -0.0166
  112CHL1   H2514540   3.362   1.781  11.482  1.2078  1.0583 -1.3174
  112CHL1   C2614541   3.207   1.926  11.512  0.3603  0.6204 -0.2988
  112CHL1  H26A14542   3.199   2.020  11.571  3.4971  0.9769 -0.2711
  112CHL1  H26B14543   3.197   1.952  11.404 -0.9744 -0.5386 -0.4721
  112CHL1  H26C14544   3.128   1.857  11.547  3.1546 -3.1737 -0.7552
  112CHL1   C2714545   3.452   1.969  11.516 -0.2529  0.3093  0.3658
  112CHL1  H27A14546   3.448   2.045  11.596 -1.1337  0.5145  0.1421
  112CHL1  H27B14547   3.548   1.913  11.516 -0.3650  0.1095 -0.1376
  112CHL1  H27C14548   3.438   2.018  11.417 -1.8869 -1.5903 -0.4351
  113CHL1    C314549   7.405   5.934  12.744 -0.0236 -0.3372  0.1547
  113CHL1    H314550   7.364   5.857  12.675 -2.4288 -0.2031  1.3587
  113CHL1    O314551   7.483   5.872  12.846 -0.4390  0.4924 -0.0523
  113CHL1   H3'14552   7.548   5.942  12.860 -0.7405  1.2486 -2.0484
  113CHL1    C414553   7.499   6.028  12.664 -0.4263  0.1380  0.0379
  113CHL1   H4A14554   7.553   6.096  12.733 -0.9731 -0.6530  1.2955
  113CHL1   H4B14555   7.582   5.967  12.622 -0.2372  0.4392 -0.0244
  113CHL1    C514556   7.437   6.112  12.560  0.2744  0.7797  0.8086
  113CHL1    C614557   7.472   6.099  12.432  0.3221  0.0300 -0.1953
  113CHL1    H614558   7.551   6.032  12.395  0.6056 -0.1226  0.6607
  113CHL1    C714559   7.426   6.199  12.339  0.1191 -0.0206 -1.0094
  113CHL1   H7A14560   7.508   6.232  12.271 -1.4434  1.5076 -2.2722
  113CHL1   H7B14561   7.350   6.156  12.270 -1.0087  0.6787 -0.2433
  113CHL1    C814562   7.347   6.321  12.392  0.0991  0.6697  0.1875
  113CHL1    H814563   7.418   6.402  12.421  0.0016  0.4239  1.1261
  113CHL1   C1414564   7.268   6.375  12.281 -0.1963 -0.3589  0.0968
  113CHL1   H1414565   7.214   6.287  12.240  2.1818 -1.6003 -0.5204
  113CHL1   C1514566   7.345   6.419  12.152  0.0372 -0.0861 -0.2006
  113CHL1  H15A14567   7.432   6.485  12.171 -0.4778  0.7775 -0.7708
  113CHL1  H15B14568   7.377   6.323  12.105 -1.5793 -0.3002 -0.9507
  113CHL1   C1614569   7.238   6.504  12.075 -0.4279 -0.3528 -0.1346
  113CHL1  H16A14570   7.286   6.604  12.064 -1.3234  0.2013  0.8234
  113CHL1  H16B14571   7.213   6.454  11.979  0.0126 -1.7861  0.4659
  113CHL1   C1714572   7.110   6.514  12.166 -0.4583 -0.3695 -0.5258
  113CHL1   H1714573   7.042   6.431  12.135  1.5841 -1.4389 -2.4906
  113CHL1   C1314574   7.163   6.482  12.305 -0.7426  0.5888  0.4779
  113CHL1   C1814575   7.243   6.607  12.368 -0.5201 -0.0418  0.9556
  113CHL1  H18A14576   7.313   6.650  12.294  0.4069 -3.8699 -0.6252
  113CHL1  H18B14577   7.178   6.693  12.395 -2.3617 -0.1035 -2.6871
  113CHL1  H18C14578   7.303   6.575  12.456  1.1169  1.0044  0.2658
  113CHL1   C1214579   7.075   6.438  12.414  0.3656 -0.9674  0.2564
  113CHL1  H12A14580   7.016   6.525  12.451 -0.2822 -1.7041  0.9960
  113CHL1  H12B14581   7.000   6.368  12.371  0.0263 -0.4414 -0.0173
  113CHL1   C1114582   7.146   6.377  12.541  0.2091  0.4744  0.3809
  113CHL1  H11A14583   7.208   6.454  12.592  0.8817 -0.9171  1.7379
  113CHL1  H11B14584   7.068   6.343  12.612 -0.0134 -0.4306 -0.2737
  113CHL1    C914585   7.247   6.265  12.501 -0.4281 -0.0781 -0.2447
  113CHL1    H914586   7.179   6.190  12.457 -3.3261  0.0225  3.4710
  113CHL1   C1014587   7.325   6.202  12.619  0.1085  0.0626  0.0604
  113CHL1   C1914588   7.383   6.314  12.715 -0.1938  0.8965  0.5800
  113CHL1  H19A14589   7.310   6.347  12.792 -1.1850  0.1920 -0.0397
  113CHL1  H19B14590   7.475   6.283  12.769 -0.8640 -0.9516  0.7141
  113CHL1  H19C14591   7.414   6.402  12.654  2.6634 -1.4281 -1.6313
  113CHL1    C114592   7.230   6.107  12.698  0.3914  0.1348 -0.6401
  113CHL1   H1A14593   7.149   6.165  12.747  0.5641  1.4367 -1.8542
  113CHL1   H1B14594   7.177   6.041  12.625  0.8868  0.0468 -0.9201
  113CHL1    C214595   7.290   6.014  12.804 -0.9022 -0.5213 -0.6391
  113CHL1   H2A14596   7.218   5.945  12.853 -1.4150 -0.6066 -1.4986
  113CHL1   H2B14597   7.330   6.072  12.890 -2.4853 -0.0650 -0.1749
  113CHL1   C2014598   7.040   6.650  12.144  0.5994  1.3951 -0.0937
  113CHL1   H2014599   7.103   6.735  12.177 -0.2803  2.3917 -0.9051
  113CHL1   C2114600   6.907   6.650  12.221  0.7810 -0.0230  0.3848
  113CHL1  H21A14601   6.831   6.714  12.171  1.1126  0.6099  0.6712
  113CHL1  H21B14602   6.921   6.694  12.322  0.2512  4.3207 -1.1945
  113CHL1  H21C14603   6.866   6.547  12.226 -0.5573  0.4284 -0.5795
  113CHL1   C2214604   7.007   6.675  11.989 -0.2641 -0.3421 -0.3076
  113CHL1  H22A14605   7.101   6.654  11.934  0.5910 -0.5335  1.1572
  113CHL1  H22B14606   6.935   6.596  11.960 -0.2401 -1.1238  1.5880
  113CHL1   C2314607   6.965   6.820  11.953  0.0322  0.9131  0.1240
  113CHL1  H23A14608   6.871   6.846  12.005 -0.8416 -0.2917 -0.7828
  113CHL1  H23B14609   7.043   6.890  11.990 -0.6719  0.0144  3.6296
  113CHL1   C2414610   6.929   6.829  11.806 -0.0073  0.0921  0.4326
  113CHL1  H24A14611   7.019   6.802  11.747  0.9736 -0.6154  2.1502
  113CHL1  H24B14612   6.860   6.746  11.779  0.0566  0.8385 -2.3312
  113CHL1   C2514613   6.882   6.962  11.767  0.3511  0.4373  0.4548
  113CHL1   H2514614   6.790   6.984  11.826 -1.1661 -4.7314  0.5508
  113CHL1   C2614615   6.985   7.071  11.787 -0.0895 -0.1595  0.6177
  113CHL1  H26A14616   6.942   7.172  11.772 -0.3313  0.0666  2.4970
  113CHL1  H26B14617   7.030   7.062  11.889  1.7870 -2.8008 -0.3373
  113CHL1  H26C14618   7.069   7.067  11.715 -0.1752 -0.1737  0.5185
  113CHL1   C2714619   6.835   6.963  11.619  0.6728  0.4442 -0.7450
  113CHL1  H27A14620   6.911   6.933  11.544 -0.9932 -1.4873 -1.7914
  113CHL1  H27B14621   6.759   6.882  11.606 -0.6086  0.9953  2.3629
  113CHL1  H27C14622   6.783   7.060  11.603 -0.7045 -0.5251 -2.6656
  114CHL1    C314623   3.235   8.113  12.591  0.2872 -0.1624  0.1380
  114CHL1    H314624   3.345   8.097  12.582  0.3095  0.3233 -0.4507
  114CHL1    O314625   3.212   8.123  12.731  0.0236 -0.0859 -0.3141
  114CHL1   H3'14626   3.120   8.149  12.735  0.0517  0.8766 -3.4672
  114CHL1    C414627   3.198   8.247  12.516 -0.2686 -0.6603 -0.1990
  114CHL1   H4A14628   3.096   8.279  12.549 -0.2260 -0.8360  0.1044
  114CHL1   H4B14629   3.265   8.332  12.542 -0.9330 -0.4224  0.8062
  114CHL1    C514630   3.203   8.235  12.364 -0.4119  0.2586 -0.1429
  114CHL1    C614631   3.282   8.311  12.289  0.1496  0.2144 -0.2203
  114CHL1    H614632   3.329   8.401  12.331  1.6978 -0.3451 -0.6858
  114CHL1    C714633   3.285   8.310  12.140  0.1931  0.3605 -0.9258
  114CHL1   H7A14634   3.281   8.417  12.110  3.5335  1.4187  1.6892
  114CHL1   H7B14635   3.384   8.271  12.106 -0.5565 -1.7609 -0.8380
  114CHL1    C814636   3.183   8.219  12.073 -0.1438  0.1230  0.0072
  114CHL1    H814637   3.081   8.262  12.083  0.1839  1.1353 -0.7647
  114CHL1   C1414638   3.209   8.191  11.924 -0.2429  0.1109  0.3094
  114CHL1   H1414639   3.308   8.141  11.925  0.1925  0.9619  1.2550
  114CHL1   C1514640   3.218   8.306  11.823 -0.3861  0.7733  0.4175
  114CHL1  H15A14641   3.119   8.357  11.822  0.0310  1.5947  0.1560
  114CHL1  H15B14642   3.301   8.376  11.848 -0.0412 -0.1507  1.9826
  114CHL1   C1614643   3.231   8.230  11.688  0.1444 -0.0077 -0.1922
  114CHL1  H16A14644   3.175   8.272  11.602 -2.6368  0.4605  1.6873
  114CHL1  H16B14645   3.340   8.222  11.671  0.1309 -1.0938  0.2004
  114CHL1   C1714646   3.174   8.086  11.710 -0.4542 -0.3739 -0.6317
  114CHL1   H1714647   3.262   8.020  11.728 -0.2894  0.4704  2.1172
  114CHL1   C1314648   3.113   8.088  11.853  0.1368  0.3488 -0.1848
  114CHL1   C1814649   2.961   8.133  11.846  0.0285 -0.9803  0.4307
  114CHL1  H18A14650   2.919   8.178  11.938 -2.4136 -0.8727 -0.6563
  114CHL1  H18B14651   2.949   8.208  11.764 -1.1114  1.2670  2.5250
  114CHL1  H18C14652   2.906   8.042  11.814  1.0560 -1.5583  0.2758
  114CHL1   C1214653   3.122   7.960  11.939  0.5484  0.2293  0.2979
  114CHL1  H12A14654   3.063   7.874  11.899 -0.7740  1.4096 -0.3773
  114CHL1  H12B14655   3.230   7.932  11.942  0.5138 -0.2380 -1.6023
  114CHL1   C1114656   3.088   7.987  12.086  0.4188  0.1064  0.0526
  114CHL1  H11A14657   2.984   8.026  12.096  0.5713  0.5463 -0.0511
  114CHL1  H11B14658   3.101   7.889  12.137  0.5870 -0.2724 -0.6946
  114CHL1    C914659   3.173   8.091  12.153 -0.2828 -0.3586 -0.0188
  114CHL1    H914660   3.277   8.055  12.166 -0.4430 -0.2199  1.8245
  114CHL1   C1014661   3.134   8.113  12.302 -0.2063 -0.5423 -0.7679
  114CHL1   C1914662   2.976   8.134  12.319 -0.6529 -0.2701  0.4083
  114CHL1  H19A14663   2.942   8.212  12.248  2.1147  0.4878 -0.1981
  114CHL1  H19B14664   2.929   8.034  12.310 -1.9463  0.4359 -1.0440
  114CHL1  H19C14665   2.967   8.165  12.425  0.8111 -0.9552  0.7663
  114CHL1    C114666   3.178   7.984  12.382  0.1110 -0.4082 -0.6096
  114CHL1   H1A14667   3.145   7.887  12.339 -0.5778  0.3775 -1.9059
  114CHL1   H1B14668   3.288   7.969  12.369 -0.2218 -4.1592 -0.2175
  114CHL1    C214669   3.159   7.994  12.532 -0.5193  0.2627 -0.4272
  114CHL1   H2A14670   3.198   7.900  12.578 -0.7012  0.0232 -0.7506
  114CHL1   H2B14671   3.050   8.004  12.552 -0.4688  1.2161 -0.6233
  114CHL1   C2014672   3.106   8.025  11.586  0.1621  0.2107  0.6482
  114CHL1   H2014673   3.009   8.072  11.558  0.2071  0.9406  1.6371
  114CHL1   C2114674   3.078   7.886  11.622  0.3779  0.1190  0.4566
  114CHL1  H21A14675   3.173   7.838  11.652  1.5921  1.9667 -0.2508
  114CHL1  H21B14676   3.042   7.827  11.536 -0.7720  2.9789 -1.1661
  114CHL1  H21C14677   2.998   7.881  11.700 -3.9096 -0.6709 -3.5454
  114CHL1   C2214678   3.190   8.029  11.453  0.1199 -0.0947  0.1939
  114CHL1  H22A14679   3.210   8.137  11.436  0.3091  0.1497  1.7474
  114CHL1  H22B14680   3.279   7.965  11.474 -1.3978 -2.4150 -0.1333
  114CHL1   C2314681   3.116   7.985  11.322 -0.0701 -0.2149  0.2478
  114CHL1  H23A14682   3.078   7.880  11.325  1.3446 -0.8123 -1.3918
  114CHL1  H23B14683   3.032   8.057  11.308 -0.2751 -0.0694  1.9938
  114CHL1   C2414684   3.211   7.987  11.201  0.1184  0.1821 -0.7861
  114CHL1  H24A14685   3.140   7.963  11.119  0.7929  0.7021 -1.5362
  114CHL1  H24B14686   3.250   8.088  11.177 -0.1759  0.4425 -0.1787
  114CHL1   C2514687   3.330   7.885  11.207  0.3978 -0.3968  0.1491
  114CHL1   H2514688   3.394   7.905  11.296  1.3044  0.2981 -0.6237
  114CHL1   C2614689   3.284   7.745  11.225 -0.9861 -0.0483  0.0993
  114CHL1  H26A14690   3.224   7.738  11.319  0.2029 -1.9541  0.7801
  114CHL1  H26B14691   3.227   7.717  11.134 -2.7146  1.0507  0.7813
  114CHL1  H26C14692   3.364   7.672  11.251 -1.2414  0.7153  3.5231
  114CHL1   C2714693   3.413   7.896  11.083 -0.4124 -0.2019 -0.4198
  114CHL1  H27A14694   3.503   7.832  11.094 -0.7182 -0.6868 -0.7456
  114CHL1  H27B14695   3.352   7.872  10.994 -1.5162 -2.3671  0.8430
  114CHL1  H27C14696   3.430   8.006  11.078 -4.7413  0.6124 -0.5509
  115CHL1    C314697   0.874   0.860  12.685  0.2133 -0.0205 -0.5417
  115CHL1    H314698   0.985   0.865  12.678  0.2421 -0.4693 -0.4572
  115CHL1    O314699   0.838   0.832  12.821 -0.1850 -0.4552 -0.0647
  115CHL1   H3'14700   0.849   0.915  12.869  1.4123 -0.4815 -0.3382
  115CHL1    C414701   0.798   0.988  12.642 -0.0731  0.3957  0.0906
  115CHL1   H4A14702   0.690   0.979  12.667 -0.7896 -0.8868 -3.0267
  115CHL1   H4B14703   0.836   1.078  12.696  1.4645  1.0082 -1.8826
  115CHL1    C514704   0.791   1.011  12.491 -0.3746 -0.2840  0.2249
  115CHL1    C614705   0.828   1.126  12.435 -0.2688  0.1328 -0.3126
  115CHL1    H614706   0.873   1.205  12.496  0.4727  1.0651 -2.0124
  115CHL1    C714707   0.823   1.158  12.289  0.1718 -0.2643 -0.0520
  115CHL1   H7A14708   0.787   1.262  12.274 -0.7525 -0.5738 -0.0543
  115CHL1   H7B14709   0.924   1.142  12.245  0.4041  3.4539 -1.1667
  115CHL1    C814710   0.737   1.049  12.213  0.2099 -0.1854  0.5198
  115CHL1    H814711   0.630   1.070  12.236 -0.7878 -2.8023 -1.2722
  115CHL1   C1414712   0.760   1.057  12.064 -0.5451  0.0583  0.1160
  115CHL1   H1414713   0.869   1.043  12.054 -0.0605  2.3238  1.4094
  115CHL1   C1514714   0.736   1.192  11.994  0.0143  0.3003 -0.5586
  115CHL1  H15A14715   0.649   1.247  12.036  0.0745  0.2855 -0.4155
  115CHL1  H15B14716   0.824   1.260  11.998  0.4077 -0.2003 -0.5977
  115CHL1   C1614717   0.716   1.158  11.849 -0.1502  0.1973 -0.1393
  115CHL1  H16A14718   0.616   1.197  11.822 -0.8998 -1.9850 -0.7518
  115CHL1  H16B14719   0.808   1.189  11.795  1.8400 -1.4985  2.0750
  115CHL1   C1714720   0.713   1.000  11.837 -0.0310 -0.1670 -0.5827
  115CHL1   H1714721   0.815   0.964  11.810 -0.1336 -0.4855 -0.5406
  115CHL1   C1314722   0.682   0.954  11.984 -0.9466 -0.7513  1.2017
  115CHL1   C1814723   0.532   0.965  12.003  0.6007  0.0475  0.0331
  115CHL1  H18A14724   0.489   0.980  12.104 -0.6963  0.0722 -0.5045
  115CHL1  H18B14725   0.499   1.057  11.949  0.4890  1.6174  2.6328
  115CHL1  H18C14726   0.482   0.874  11.964 -0.1996  1.7530 -3.2805
  115CHL1   C1214727   0.736   0.812  12.020 -0.1138 -0.1566  0.0653
  115CHL1  H12A14728   0.685   0.737  11.954  0.0903 -0.4679  0.2573
  115CHL1  H12B14729   0.837   0.821  11.973 -1.6632  0.4347 -3.4623
  115CHL1   C1114730   0.716   0.791  12.166  0.1013 -0.2008 -0.5142
  115CHL1  H11A14731   0.612   0.762  12.194  0.7826 -0.0879  2.4892
  115CHL1  H11B14732   0.765   0.698  12.202  0.4468  0.1907  0.0511
  115CHL1    C914733   0.769   0.906  12.256 -0.3784  0.5155 -0.2039
  115CHL1    H914734   0.879   0.903  12.243 -0.1879  3.6869 -0.0944
  115CHL1   C1014735   0.746   0.893  12.405  0.1572  0.4491 -0.1461
  115CHL1   C1914736   0.596   0.871  12.434  0.4467  0.3340 -0.2490
  115CHL1  H19A14737   0.577   0.852  12.542  1.6604 -1.5757 -0.3178
  115CHL1  H19B14738   0.536   0.958  12.402  1.4986  0.6158 -1.5352
  115CHL1  H19C14739   0.569   0.776  12.382  0.0393  0.8536 -0.9945
  115CHL1    C114740   0.821   0.762  12.453  0.2333 -0.2981  0.4764
  115CHL1   H1A14741   0.773   0.671  12.410 -1.2379  0.5701  0.2043
  115CHL1   H1B14742   0.927   0.768  12.422 -0.3042 -0.0420 -1.4660
  115CHL1    C214743   0.825   0.738  12.604  0.8689  0.8480  0.0742
  115CHL1   H2A14744   0.905   0.668  12.636 -0.6723 -0.1952  1.9092
  115CHL1   H2B14745   0.727   0.699  12.639  0.6839 -1.6399 -2.8579
  115CHL1   C2014746   0.615   0.959  11.729 -0.2325 -0.1507 -0.2960
  115CHL1   H2014747   0.508   0.985  11.746 -0.0429  0.3254  0.1741
  115CHL1   C2114748   0.618   0.805  11.711 -0.3393  0.3266 -0.4128
  115CHL1  H21A14749   0.557   0.757  11.791 -0.2929  2.9275  1.3279
  115CHL1  H21B14750   0.720   0.764  11.701 -0.9961 -0.9766 -2.4125
  115CHL1  H21C14751   0.560   0.786  11.618  1.5855  0.9720 -1.7899
  115CHL1   C2214752   0.650   1.029  11.594  0.2472  0.1488 -0.3152
  115CHL1  H22A14753   0.583   0.984  11.516  0.5164  2.3684 -1.9181
  115CHL1  H22B14754   0.619   1.136  11.597  2.9666  0.9824  1.0798
  115CHL1   C2314755   0.798   1.002  11.552  0.5801  0.2265 -0.4155
  115CHL1  H23A14756   0.863   1.052  11.628  0.5735  0.9025 -0.8410
  115CHL1  H23B14757   0.818   0.893  11.550 -0.3413  0.0373 -3.5863
  115CHL1   C2414758   0.842   1.050  11.410  0.1012  0.7509 -0.2645
  115CHL1  H24A14759   0.930   0.993  11.374 -0.3558  1.4554 -2.6453
  115CHL1  H24B14760   0.767   1.031  11.331  2.1789 -2.4490 -1.6651
  115CHL1   C2514761   0.859   1.202  11.405  0.1490 -0.1204 -0.3300
  115CHL1   H2514762   0.771   1.244  11.458 -0.1847 -1.1282 -0.0587
  115CHL1   C2614763   0.983   1.246  11.494  0.3160 -0.6980  0.3125
  115CHL1  H26A14764   1.069   1.181  11.467  0.3825 -0.6984  0.5255
  115CHL1  H26B14765   1.009   1.354  11.484  0.9624 -0.8906 -0.1207
  115CHL1  H26C14766   0.963   1.220  11.600  0.6712 -0.9442  0.3224
  115CHL1   C2714767   0.863   1.252  11.259 -0.0264  0.0781 -0.0308
  115CHL1  H27A14768   0.877   1.361  11.243  0.7070 -0.1626 -1.0939
  115CHL1  H27B14769   0.953   1.200  11.220  0.9489  1.1440  0.7276
  115CHL1  H27C14770   0.774   1.208  11.208  0.1604  0.4613 -0.6949
  116CHL1    C314771   1.344   1.453  12.548 -0.2869  0.6952  0.4268
  116CHL1    H314772   1.419   1.527  12.514 -0.0607  0.2176 -0.1202
  116CHL1    O314773   1.337   1.459  12.688 -0.1440 -0.0352  0.0873
  116CHL1   H3'14774   1.430   1.448  12.708  0.9023 -4.7432 -4.9683
  116CHL1    C414775   1.206   1.481  12.488 -0.2452  0.2783  0.4706
  116CHL1   H4A14776   1.138   1.401  12.524  1.5111 -1.7172 -0.4254
  116CHL1   H4B14777   1.184   1.580  12.533  0.1053 -0.6526  2.8208
  116CHL1    C514778   1.204   1.484  12.334 -0.6859  0.9848 -0.1310
  116CHL1    C614779   1.167   1.596  12.260  0.0692  0.3128  0.0721
  116CHL1    H614780   1.118   1.678  12.313 -1.7296 -1.0392  0.6231
  116CHL1    C714781   1.172   1.602  12.102 -0.1347  0.2647 -0.6451
  116CHL1   H7A14782   1.069   1.630  12.072 -0.2913  0.9965  0.5170
  116CHL1   H7B14783   1.243   1.681  12.070  1.6299 -0.4062  1.3457
  116CHL1    C814784   1.202   1.470  12.032 -0.0044  0.5328  0.3475
  116CHL1    H814785   1.107   1.413  12.035  0.1416  0.3266  2.3890
  116CHL1   C1414786   1.244   1.500  11.887 -0.0340  0.3040 -0.4477
  116CHL1   H1414787   1.347   1.544  11.885  0.5439 -1.0249 -1.5007
  116CHL1   C1514788   1.163   1.595  11.795 -0.2727  0.1553  0.5141
  116CHL1  H15A14789   1.054   1.578  11.814 -0.4453  0.6171 -0.0469
  116CHL1  H15B14790   1.185   1.703  11.811 -3.6415  0.9943  0.2809
  116CHL1   C1614791   1.195   1.537  11.657  0.1464  0.2690  0.4983
  116CHL1  H16A14792   1.104   1.489  11.616 -1.0057  1.4408  1.6184
  116CHL1  H16B14793   1.228   1.619  11.588 -1.4668 -0.0047 -0.6505
  116CHL1   C1714794   1.304   1.426  11.675 -0.2349 -0.2568 -0.1246
  116CHL1   H1714795   1.400   1.481  11.681  0.7439 -1.7659 -1.2620
  116CHL1   C1314796   1.262   1.366  11.815 -0.5276  0.4304 -0.7468
  116CHL1   C1814797   1.136   1.277  11.812  0.1223 -0.0956 -0.2527
  116CHL1  H18A14798   1.046   1.343  11.804 -0.4259 -0.8030 -0.0623
  116CHL1  H18B14799   1.120   1.214  11.723 -0.4046  1.4265 -1.2876
  116CHL1  H18C14800   1.126   1.211  11.901  0.0974  0.1254 -0.0905
  116CHL1   C1214801   1.376   1.283  11.885  0.6487 -0.0312  0.5119
  116CHL1  H12A14802   1.391   1.186  11.834  0.7487  1.2935 -2.1782
  116CHL1  H12B14803   1.478   1.329  11.882  0.2300  0.8845 -1.0083
  116CHL1   C1114804   1.344   1.251  12.029  0.4057  0.0561 -0.4419
  116CHL1  H11A14805   1.263   1.176  12.033 -0.8480  1.2733 -1.8740
  116CHL1  H11B14806   1.431   1.197  12.073 -0.5892 -1.1190  0.1667
  116CHL1    C914807   1.304   1.379  12.107 -0.2440  0.3112  0.5118
  116CHL1    H914808   1.397   1.439  12.104 -0.1333  0.1118 -0.7037
  116CHL1   C1014809   1.275   1.363  12.266 -0.0160 -0.1802  0.9140
  116CHL1   C1914810   1.164   1.258  12.283  0.3302  0.6662 -0.9544
  116CHL1  H19A14811   1.144   1.241  12.391  1.3410 -0.0778 -0.8730
  116CHL1  H19B14812   1.071   1.293  12.234  0.1130 -0.3720 -1.3135
  116CHL1  H19C14813   1.183   1.159  12.237 -1.3346 -1.1771  1.9566
  116CHL1    C114814   1.408   1.319  12.346  0.6289 -0.1204  0.0484
  116CHL1   H1A14815   1.433   1.215  12.315 -0.9676 -0.1934 -1.1081
  116CHL1   H1B14816   1.484   1.395  12.321 -1.2397  1.9108  0.2357
  116CHL1    C214817   1.402   1.319  12.499  0.0491  0.0297 -0.3841
  116CHL1   H2A14818   1.506   1.298  12.532  0.4341  2.0002 -0.2529
  116CHL1   H2B14819   1.341   1.228  12.520  0.7414 -0.8897 -2.1898
  116CHL1   C2014820   1.317   1.329  11.554 -0.8693  0.3148  0.4345
  116CHL1   H2014821   1.236   1.253  11.565 -0.9444 -0.0150 -1.9033
  116CHL1   C2114822   1.454   1.253  11.549 -0.7906  0.0595  0.1879
  116CHL1  H21A14823   1.533   1.331  11.542  0.5454 -1.3032 -0.5589
  116CHL1  H21B14824   1.441   1.173  11.472 -0.4262 -0.0567  0.2463
  116CHL1  H21C14825   1.474   1.194  11.641  1.5244 -0.7557 -0.7694
  116CHL1   C2214826   1.285   1.398  11.418 -0.1833 -0.4027 -0.2563
  116CHL1  H22A14827   1.175   1.405  11.411 -0.1278 -0.1650 -0.9301
  116CHL1  H22B14828   1.332   1.499  11.420  0.3253 -0.5838  2.7797
  116CHL1   C2314829   1.317   1.326  11.282 -0.1933 -0.8361 -0.3480
  116CHL1  H23A14830   1.423   1.329  11.250  0.3659 -2.0677  1.2560
  116CHL1  H23B14831   1.294   1.218  11.295 -0.6084 -0.5592  1.6339
  116CHL1   C2414832   1.234   1.392  11.171  0.4395  0.3347 -0.6657
  116CHL1  H24A14833   1.131   1.412  11.207  0.2995 -0.9295 -0.3305
  116CHL1  H24B14834   1.294   1.484  11.153  1.5613 -0.7567 -2.7554
  116CHL1   C2514835   1.226   1.317  11.039 -0.2528  0.4375 -0.2346
  116CHL1   H2514836   1.170   1.225  11.065 -0.1030  0.5543  0.5228
  116CHL1   C2614837   1.136   1.390  10.940  0.0282 -0.2750  0.2711
  116CHL1  H26A14838   1.170   1.492  10.915 -0.3267  0.1102  1.2886
  116CHL1  H26B14839   1.114   1.322  10.855  1.1178  1.4798 -1.4707
  116CHL1  H26C14840   1.034   1.408  10.981 -0.6633  0.6082 -1.7105
  116CHL1   C2714841   1.369   1.273  10.985 -0.4410 -0.4926 -0.0359
  116CHL1  H27A14842   1.433   1.359  10.957  2.1458 -2.5180 -0.8271
  116CHL1  H27B14843   1.411   1.208  11.064 -0.9404  0.3972  0.9783
  116CHL1  H27C14844   1.364   1.207  10.895  0.6707  0.7842 -1.0849
  117CHL1    C314845   3.000   0.696  12.682  0.2985  0.2724 -0.4788
  117CHL1    H314846   3.034   0.798  12.710 -0.2231  0.9054 -2.0034
  117CHL1    O314847   2.948   0.635  12.799  0.3526 -0.3234 -0.1834
  117CHL1   H3'14848   2.917   0.551  12.765 -2.6778  0.5730  0.0909
  117CHL1    C414849   2.886   0.704  12.578 -0.2098 -0.4121  0.5052
  117CHL1   H4A14850   2.865   0.597  12.556  1.0380  0.0289 -3.4995
  117CHL1   H4B14851   2.800   0.757  12.624  0.6395  3.7346 -2.1792
  117CHL1    C514852   2.944   0.762  12.447  0.2033 -0.0746 -0.9959
  117CHL1    C614853   2.889   0.867  12.383  0.0007 -0.0658 -0.0874
  117CHL1    H614854   2.794   0.914  12.410  0.1717  1.2687 -1.6841
  117CHL1    C714855   2.921   0.915  12.246 -0.3779  0.2761  0.4525
  117CHL1   H7A14856   2.827   0.919  12.186 -1.2636 -0.8196  1.7110
  117CHL1   H7B14857   2.966   1.016  12.253  0.6817 -0.3047  2.7917
  117CHL1    C814858   3.012   0.812  12.178 -0.0289 -0.1199 -0.2670
  117CHL1    H814859   2.946   0.739  12.126 -0.0065  0.8438 -1.6954
  117CHL1   C1414860   3.092   0.886  12.071  0.2560 -0.2182  0.0286
  117CHL1   H1414861   3.162   0.953  12.125 -1.2529  2.0996 -0.7269
  117CHL1   C1514862   3.011   0.984  11.983 -0.1338 -0.4708  0.5528
  117CHL1  H15A14863   2.912   0.947  11.950 -0.9018  1.6806  0.3102
  117CHL1  H15B14864   2.998   1.083  12.031  0.6112  1.2320 -2.4920
  117CHL1   C1614865   3.104   1.009  11.863 -0.0648 -0.2842  0.9471
  117CHL1  H16A14866   3.038   0.988  11.776 -0.9855 -0.4022  1.6707
  117CHL1  H16B14867   3.139   1.114  11.860 -1.9460  0.3933  1.8419
  117CHL1   C1714868   3.233   0.916  11.875 -0.4322  0.1828 -0.7279
  117CHL1   H1714869   3.306   0.973  11.937  0.4188  0.2202 -1.7270
  117CHL1   C1314870   3.185   0.805  11.980 -0.4401 -0.8422 -0.3227
  117CHL1   C1814871   3.103   0.697  11.902  0.3908 -0.1140 -0.3085
  117CHL1  H18A14872   3.033   0.749  11.834 -0.4940 -0.2434  0.4920
  117CHL1  H18B14873   3.171   0.639  11.835 -0.4488 -1.6039  0.0833
  117CHL1  H18C14874   3.040   0.632  11.966  0.6541 -0.7511 -0.6848
  117CHL1   C1214875   3.288   0.737  12.073  0.0375 -0.9984  0.5045
  117CHL1  H12A14876   3.363   0.678  12.016  1.9267  1.2446  0.5186
  117CHL1  H12B14877   3.346   0.818  12.123  1.4598 -2.1307  0.7677
  117CHL1   C1114878   3.222   0.653  12.175 -0.1084 -0.4826 -0.3735
  117CHL1  H11A14879   3.167   0.570  12.126 -0.6247 -0.3462 -0.0328
  117CHL1  H11B14880   3.302   0.621  12.246 -0.3661  0.6165  0.4416
  117CHL1    C914881   3.119   0.744  12.267 -1.0072 -0.2110  0.5007
  117CHL1    H914882   3.192   0.817  12.309  0.4524 -2.6252  2.4956
  117CHL1   C1014883   3.060   0.673  12.384  0.1215 -0.4114 -0.1183
  117CHL1   C1914884   3.021   0.529  12.341  0.4678 -0.2445 -0.0839
  117CHL1  H19A14885   3.112   0.470  12.318  0.3155 -0.1561 -0.9322
  117CHL1  H19B14886   2.960   0.471  12.414 -1.9977  1.0592 -0.9832
  117CHL1  H19C14887   2.956   0.533  12.251  1.3757 -0.0477 -0.7416
  117CHL1    C114888   3.169   0.661  12.496  0.3731  0.0170  0.4099
  117CHL1   H1A14889   3.256   0.601  12.461  0.9936  1.3816 -0.4892
  117CHL1   H1B14890   3.206   0.764  12.512  2.2638 -0.5134 -0.2956
  117CHL1    C214891   3.118   0.608  12.625  0.1151 -0.3306 -0.6411
  117CHL1   H2A14892   3.212   0.603  12.684  0.6370  1.1099 -1.3123
  117CHL1   H2B14893   3.080   0.505  12.609  2.1744 -1.0977 -0.8824
  117CHL1   C2014894   3.299   0.881  11.745  0.2933 -0.6062  0.3917
  117CHL1   H2014895   3.249   0.803  11.684  0.5063  0.0425 -0.6488
  117CHL1   C2114896   3.438   0.825  11.773 -0.1218 -0.1542 -0.6648
  117CHL1  H21A14897   3.490   0.801  11.678 -1.4892 -1.8926 -1.0160
  117CHL1  H21B14898   3.433   0.725  11.821  1.0530 -0.5454 -1.3274
  117CHL1  H21C14899   3.489   0.896  11.842 -1.7815 -1.3361  1.9788
  117CHL1   C2214900   3.306   1.008  11.656 -0.0613 -0.1273 -0.1959
  117CHL1  H22A14901   3.205   1.044  11.627  0.5212  1.9965  0.2719
  117CHL1  H22B14902   3.353   1.095  11.707 -1.0981  0.0616  0.4627
  117CHL1   C2314903   3.385   0.974  11.524  0.1763 -0.0332  1.0505
  117CHL1  H23A14904   3.491   0.945  11.542 -0.3735 -2.3995  0.7244
  117CHL1  H23B14905   3.335   0.889  11.474 -1.8971  0.9840  1.2819
  117CHL1   C2414906   3.395   1.098  11.439 -0.8591 -0.1250 -0.5497
  117CHL1  H24A14907   3.303   1.160  11.429  0.6655  2.0521 -1.6638
  117CHL1  H24B14908   3.473   1.167  11.478 -1.0443  0.1533 -0.6667
  117CHL1   C2514909   3.422   1.057  11.292 -0.2222  0.2280 -0.8467
  117CHL1   H2514910   3.335   0.994  11.266  0.9679 -1.0446 -1.9138
  117CHL1   C2614911   3.425   1.176  11.194  0.2623  0.6858 -0.0471
  117CHL1  H26A14912   3.320   1.184  11.158 -0.7068 -1.7604  1.9026
  117CHL1  H26B14913   3.464   1.267  11.243  0.9758  0.2214  0.2577
  117CHL1  H26C14914   3.498   1.161  11.113  0.0896 -0.7965  0.0411
  117CHL1   C2714915   3.549   0.969  11.281  0.5266 -0.7382  0.3281
  117CHL1  H27A14916   3.554   0.925  11.179  1.2108 -0.3462  0.1872
  117CHL1  H27B14917   3.630   1.044  11.292  0.0733 -0.2974  0.6842
  117CHL1  H27C14918   3.558   0.886  11.355  0.7139 -1.1349 -0.1325
  118CHL1    C314919   6.465   3.694  12.222  0.2275  0.4066 -0.2606
  118CHL1    H314920   6.487   3.802  12.207  0.7121  0.3287 -0.1317
  118CHL1    O314921   6.465   3.652  12.356  0.3404  0.5114 -0.7782
  118CHL1   H3'14922   6.450   3.557  12.359  2.5626  0.0992 -0.4489
  118CHL1    C414923   6.329   3.668  12.151  0.0742  0.5156 -0.1931
  118CHL1   H4A14924   6.309   3.562  12.174  1.8748 -0.2497 -1.8992
  118CHL1   H4B14925   6.258   3.736  12.204 -1.9206  0.5576 -2.7052
  118CHL1    C514926   6.333   3.692  11.997  0.1890  0.1108 -0.3970
  118CHL1    C614927   6.238   3.774  11.943 -0.1921 -0.1825 -0.0325
  118CHL1    H614928   6.160   3.812  12.011 -2.3196 -1.9426 -1.3613
  118CHL1    C714929   6.236   3.819  11.800 -0.0098  0.0865 -0.4491
  118CHL1   H7A14930   6.137   3.804  11.752 -1.1198 -1.7136  2.1322
  118CHL1   H7B14931   6.259   3.927  11.812 -0.1219  0.1850 -1.1089
  118CHL1    C814932   6.349   3.756  11.714 -0.0001 -0.1198  0.2822
  118CHL1    H814933   6.307   3.661  11.674  0.3670 -1.3828  2.6939
  118CHL1   C1414934   6.387   3.846  11.595  0.2351 -0.6151 -0.1739
  118CHL1   H1414935   6.437   3.932  11.644 -0.5809 -1.7720  2.9151
  118CHL1   C1514936   6.265   3.913  11.523  0.7725  0.5536 -0.0655
  118CHL1  H15A14937   6.187   3.836  11.507  0.6598  0.3380  1.3626
  118CHL1  H15B14938   6.219   4.000  11.575  0.0457  0.1614 -0.0454
  118CHL1   C1614939   6.331   3.946  11.396 -0.3012  0.3796  0.8606
  118CHL1  H16A14940   6.279   3.887  11.318  2.2204 -2.5713  1.2037
  118CHL1  H16B14941   6.315   4.055  11.385 -2.0877  0.2043  1.3531
  118CHL1   C1714942   6.485   3.897  11.399 -0.5762  0.2980 -0.3598
  118CHL1   H1714943   6.542   3.974  11.456 -1.6053 -0.1052  1.2595
  118CHL1   C1314944   6.489   3.785  11.505 -0.5209  0.4342 -0.1894
  118CHL1   C1814945   6.434   3.660  11.433  0.6452  0.2519  0.1351
  118CHL1  H18A14946   6.502   3.630  11.351 -1.0875 -1.4217 -0.7840
  118CHL1  H18B14947   6.405   3.576  11.501  1.0702  0.2696  0.3412
  118CHL1  H18C14948   6.340   3.693  11.383  0.3448  0.5616  0.8918
  118CHL1   C1214949   6.620   3.751  11.575  0.7737 -0.2380  0.3442
  118CHL1  H12A14950   6.688   3.691  11.511  1.2189  0.3813  0.2260
  118CHL1  H12B14951   6.679   3.840  11.605  0.7836  0.6554 -2.1107
  118CHL1   C1114952   6.589   3.663  11.700  0.2958 -0.2159 -0.2196
  118CHL1  H11A14953   6.553   3.569  11.652 -1.1499  0.7007 -1.0007
  118CHL1  H11B14954   6.672   3.628  11.765 -0.9065 -1.5905  0.6409
  118CHL1    C914955   6.478   3.725  11.792  0.1243 -0.6060 -0.1652
  118CHL1    H914956   6.518   3.822  11.829  2.7565 -1.7207  0.1241
  118CHL1   C1014957   6.453   3.644  11.922  0.1974  0.4474 -0.4352
  118CHL1   C1914958   6.422   3.494  11.893  0.0923 -0.1006 -0.6759
  118CHL1  H19A14959   6.513   3.448  11.850  0.3065  1.3357 -1.8516
  118CHL1  H19B14960   6.384   3.430  11.976  2.1876 -1.2623 -0.5445
  118CHL1  H19C14961   6.337   3.489  11.822 -0.5646 -0.5431  0.1178
  118CHL1    C114962   6.590   3.662  12.003  0.3539 -0.1733 -0.2933
  118CHL1   H1A14963   6.672   3.599  11.962  1.1354  0.0504  0.8826
  118CHL1   H1B14964   6.611   3.770  12.014 -0.4735 -0.0537  0.1614
  118CHL1    C214965   6.574   3.612  12.149  0.5831 -0.4288  0.1725
  118CHL1   H2A14966   6.672   3.636  12.196  0.8231 -2.0141  0.5277
  118CHL1   H2B14967   6.545   3.507  12.166 -0.4257  0.0230  1.3589
  118CHL1   C2014968   6.564   3.884  11.261 -0.0016 -0.1651 -1.3485
  118CHL1   H2014969   6.545   3.779  11.230 -1.2482 -0.7243  1.0705
  118CHL1   C2114970   6.717   3.883  11.289 -0.4576 -0.7308  0.6001
  118CHL1  H21A14971   6.768   3.891  11.191 -1.4541  2.4390  0.2261
  118CHL1  H21B14972   6.747   3.789  11.342 -1.6324  0.8599  4.4889
  118CHL1  H21C14973   6.750   3.969  11.351  0.3322 -1.1353  0.7497
  118CHL1   C2214974   6.525   3.988  11.152  0.0293 -0.6215 -0.0229
  118CHL1  H22A14975   6.560   3.947  11.055  0.1152 -3.2184  1.0284
  118CHL1  H22B14976   6.415   4.003  11.155 -0.1027 -1.4241 -0.8890
  118CHL1   C2314977   6.580   4.133  11.162 -0.2970  0.0322  0.2389
  118CHL1  H23A14978   6.580   4.174  11.265 -0.7361  2.7848 -0.7582
  118CHL1  H23B14979   6.689   4.128  11.138 -0.1771  0.9662  0.5482
  118CHL1   C2414980   6.512   4.234  11.077  0.2569 -0.2265 -0.1644
  118CHL1  H24A14981   6.486   4.201  10.974 -0.8873  1.2073 -0.3666
  118CHL1  H24B14982   6.411   4.254  11.118  0.3347 -1.0886  0.4779
  118CHL1   C2514983   6.591   4.365  11.057  0.1219 -0.2297  0.2356
  118CHL1   H2514984   6.623   4.396  11.159  0.1812  0.4729  0.0075
  118CHL1   C2614985   6.710   4.353  10.959 -0.6486  0.3906  0.5834
  118CHL1  H26A14986   6.672   4.356  10.855  0.6969 -3.9286 -0.2053
  118CHL1  H26B14987   6.782   4.438  10.965  0.3263 -0.2276 -1.3780
  118CHL1  H26C14988   6.760   4.254  10.969 -3.1760 -0.9977  0.0388
  118CHL1   C2714989   6.504   4.484  11.020  0.1730  0.0215 -0.1198
  118CHL1  H27A14990   6.459   4.486  10.918  0.3070  0.7978 -0.1722
  118CHL1  H27B14991   6.417   4.495  11.088  0.6684  0.6035  0.4386
  118CHL1  H27C14992   6.558   4.581  11.032 -0.0017  0.1053 -0.0050
  119CHL1    C314993   0.596   2.350  12.595  0.0056  0.2529  0.1052
  119CHL1    H314994   0.657   2.262  12.564  1.4186 -0.2511  3.7641
  119CHL1    O314995   0.581   2.351  12.734 -0.0017  0.6595 -0.0031
  119CHL1   H3'14996   0.541   2.268  12.762  1.4027  0.7278  2.5210
  119CHL1    C414997   0.676   2.476  12.562  0.2342  0.3928  0.1948
  119CHL1   H4A14998   0.615   2.563  12.595 -0.4309  0.2790 -0.6858
  119CHL1   H4B14999   0.771   2.474  12.618  0.1745  1.6254  0.3549
  119CHL1    C515000   0.707   2.481  12.411  0.2064  0.7814  0.5351
  119CHL1    C615001   0.833   2.494  12.361 -0.0781 -0.9512 -0.0152
  119CHL1    H615002   0.907   2.508  12.441 -1.4668  0.0083  1.1546
  119CHL1    C715003   0.873   2.498  12.219 -0.1700  0.2194  0.3382
  119CHL1   H7A15004   0.947   2.576  12.191 -2.4101  1.7578 -1.7401
  119CHL1   H7B15005   0.916   2.401  12.186  0.2900  0.7845 -0.7816
  119CHL1    C815006   0.749   2.511  12.122 -0.1640  0.5424 -0.2575
  119CHL1    H815007   0.714   2.616  12.133  0.7152  1.2030 -2.8975
  119CHL1   C1415008   0.783   2.474  11.981 -0.6343  0.9357  0.2829
  119CHL1   H1415009   0.786   2.364  11.974  2.0669  1.0472 -4.1964
  119CHL1   C1515010   0.919   2.530  11.926 -0.1891  0.2263  0.2976
  119CHL1  H15A15011   0.935   2.628  11.975 -1.5313 -0.3140  1.9634
  119CHL1  H15B15012   0.998   2.460  11.960  0.8343  2.5520  3.1344
  119CHL1   C1615013   0.898   2.517  11.778 -0.5137 -0.1088 -0.6819
  119CHL1  H16A15014   0.921   2.617  11.735  2.0259  0.1579  1.1092
  119CHL1  H16B15015   0.975   2.455  11.729 -0.8333 -0.8253 -0.3001
  119CHL1   C1715016   0.751   2.469  11.750 -0.3370  0.0204  0.3516
  119CHL1   H1715017   0.765   2.359  11.751 -1.9626 -0.2757 -1.8736
  119CHL1   C1315018   0.672   2.502  11.880  0.6443  0.0081  0.6051
  119CHL1   C1815019   0.637   2.655  11.880  0.1457 -0.2674 -0.4534
  119CHL1  H18A15020   0.729   2.704  11.840  1.9684 -1.2069  2.2657
  119CHL1  H18B15021   0.563   2.686  11.803  0.5784 -0.9585 -1.1733
  119CHL1  H18C15022   0.618   2.704  11.977 -0.0909  3.0129 -2.0158
  119CHL1   C1215023   0.561   2.404  11.916  0.4382 -0.4189  0.0289
  119CHL1  H12A15024   0.477   2.431  11.849  0.5671 -0.2550 -0.0666
  119CHL1  H12B15025   0.595   2.300  11.897  0.3964 -0.6255  1.0160
  119CHL1   C1115026   0.516   2.424  12.066  0.0087 -0.7910 -0.0699
  119CHL1  H11A15027   0.464   2.521  12.072 -0.5056 -0.9016 -2.0259
  119CHL1  H11B15028   0.441   2.346  12.092 -1.5487  0.9690  0.9716
  119CHL1    C915029   0.627   2.428  12.172 -0.1872 -0.3600 -0.3018
  119CHL1    H915030   0.671   2.327  12.176 -1.2833 -0.8395  0.0746
  119CHL1   C1015031   0.589   2.466  12.319 -0.1222  0.1312 -0.3379
  119CHL1   C1915032   0.510   2.591  12.315 -0.4021 -0.5905 -0.0640
  119CHL1  H19A15033   0.574   2.669  12.268  0.7240 -1.7663 -0.5590
  119CHL1  H19B15034   0.414   2.584  12.260 -0.8633  2.3615  0.2239
  119CHL1  H19C15035   0.489   2.631  12.416  0.4676 -1.9844  0.7084
  119CHL1    C115036   0.486   2.358  12.374 -0.5175  0.9377  0.1613
  119CHL1   H1A15037   0.391   2.387  12.323 -0.7164 -0.7684 -0.4822
  119CHL1   H1B15038   0.528   2.265  12.331  3.0186  2.6032 -0.2693
  119CHL1    C215039   0.463   2.349  12.524  0.5405  0.6214  0.1319
  119CHL1   H2A15040   0.406   2.261  12.562  1.7153  0.0468  0.6192
  119CHL1   H2B15041   0.406   2.437  12.559 -0.2805 -0.1269  0.7206
  119CHL1   C2015042   0.703   2.512  11.607  0.0050 -0.2852 -0.0782
  119CHL1   H2015043   0.683   2.621  11.605 -1.6608 -0.5699 -0.1279
  119CHL1   C2115044   0.570   2.436  11.569  0.3342 -0.0132 -0.0263
  119CHL1  H21A15045   0.490   2.487  11.627  1.9048  2.1709  0.3684
  119CHL1  H21B15046   0.584   2.328  11.590  1.6571 -0.0368 -0.9041
  119CHL1  H21C15047   0.533   2.467  11.469 -2.5762 -0.8776  0.6880
  119CHL1   C2215048   0.814   2.477  11.505 -0.1792  0.0824  0.2997
  119CHL1  H22A15049   0.905   2.539  11.523  0.1085  0.6192 -2.5465
  119CHL1  H22B15050   0.852   2.374  11.524 -1.7319 -0.8308 -1.2917
  119CHL1   C2315051   0.769   2.482  11.354 -0.1420 -0.1380 -0.3778
  119CHL1  H23A15052   0.858   2.446  11.298 -0.3130 -3.0440  1.0877
  119CHL1  H23B15053   0.690   2.406  11.337  0.6463 -1.0147 -0.1762
  119CHL1   C2415054   0.733   2.620  11.302  1.0017  0.0313 -0.0203
  119CHL1  H24A15055   0.634   2.657  11.336  0.8617 -0.8050  0.5303
  119CHL1  H24B15056   0.807   2.692  11.342  0.0136  2.1053 -1.7009
  119CHL1   C2515057   0.728   2.620  11.144  0.0064  0.2827  0.3385
  119CHL1   H2515058   0.815   2.556  11.117 -0.0698  0.0818  0.5689
  119CHL1   C2615059   0.612   2.536  11.080  0.3447  0.3418 -0.1833
  119CHL1  H26A15060   0.636   2.521  10.972 -3.0961  0.7728 -1.1124
  119CHL1  H26B15061   0.583   2.443  11.134 -1.1032  0.5134 -0.6308
  119CHL1  H26C15062   0.522   2.600  11.078 -0.2991 -0.4962  0.8531
  119CHL1   C2715063   0.749   2.759  11.084  0.1371 -0.4712  0.6427
  119CHL1  H27A15064   0.660   2.819  11.111 -0.9984 -1.5785 -0.5074
  119CHL1  H27B15065   0.839   2.808  11.127 -0.4202  1.0553  0.1376
  119CHL1  H27C15066   0.755   2.767  10.973 -0.2008 -0.2317  0.6415
  120CHL1    C315067   4.884   1.575  12.818  0.1165 -0.2046 -0.5722
  120CHL1    H315068   4.923   1.471  12.818 -0.5181 -0.4458  0.0568
  120CHL1    O315069   4.812   1.581  12.937 -0.7536 -0.1231 -0.5120
  120CHL1   H3'15070   4.771   1.668  12.938  0.6987  0.5857  0.0231
  120CHL1    C415071   5.002   1.674  12.830 -0.1527 -0.1821  1.0421
  120CHL1   H4A15072   4.954   1.770  12.857 -1.2712 -0.5072  0.2413
  120CHL1   H4B15073   5.066   1.634  12.912  1.0123  0.0070  0.2561
  120CHL1    C515074   5.081   1.697  12.703 -0.1624 -0.9524 -0.1412
  120CHL1    C615075   5.214   1.693  12.699 -0.6859 -0.2175 -0.3796
  120CHL1    H615076   5.276   1.690  12.790 -0.3252  0.2639 -0.6001
  120CHL1    C715077   5.295   1.708  12.572 -0.4142 -0.8982  0.6092
  120CHL1   H7A15078   5.382   1.776  12.590 -0.5971 -0.3420 -0.5246
  120CHL1   H7B15079   5.338   1.611  12.541 -2.3163 -0.8931 -2.3980
  120CHL1    C815080   5.206   1.753  12.450  0.1386  0.2047 -0.7861
  120CHL1    H815081   5.186   1.860  12.471  0.8630  0.0902  0.5289
  120CHL1   C1415082   5.284   1.730  12.321 -0.1938 -0.7186 -0.2697
  120CHL1   H1415083   5.295   1.620  12.310 -0.9753 -0.7650 -0.6301
  120CHL1   C1515084   5.424   1.799  12.307  0.3035  0.7767 -0.5823
  120CHL1  H15A15085   5.426   1.908  12.329 -0.6207  1.0188 -1.6338
  120CHL1  H15B15086   5.500   1.749  12.372  0.8947  0.7568 -1.2757
  120CHL1   C1615087   5.454   1.774  12.160  0.4119  0.0953  0.4723
  120CHL1  H16A15088   5.499   1.868  12.120 -0.5329 -0.0103 -0.9341
  120CHL1  H16B15089   5.522   1.688  12.145  1.0749  0.7391 -0.3726
  120CHL1   C1715090   5.313   1.743  12.089 -0.5663  0.2490 -0.4279
  120CHL1   H1715091   5.313   1.634  12.072 -0.1413  0.2099 -0.1699
  120CHL1   C1315092   5.211   1.768  12.198  1.2506 -0.1291  0.7619
  120CHL1   C1815093   5.181   1.918  12.196  0.6639 -0.3839  0.1779
  120CHL1  H18A15094   5.116   1.958  12.115 -1.8872 -1.8202  1.3836
  120CHL1  H18B15095   5.126   1.940  12.290 -2.2950 -1.9668 -1.0523
  120CHL1  H18C15096   5.272   1.982  12.196 -0.9706  2.1087 -1.3524
  120CHL1   C1215097   5.086   1.674  12.181 -0.1930  0.2354 -0.5408
  120CHL1  H12A15098   5.028   1.702  12.090 -0.9405  2.2436  0.4805
  120CHL1  H12B15099   5.134   1.575  12.174 -0.9707 -0.0890 -1.6365
  120CHL1   C1115100   4.997   1.696  12.308  0.1702 -0.0161 -0.3123
  120CHL1  H11A15101   4.955   1.799  12.313  1.3282  0.4061  1.7592
  120CHL1  H11B15102   4.910   1.626  12.302 -0.7490  0.9393  1.1112
  120CHL1    C915103   5.076   1.682  12.442  0.4962  0.9333 -0.0211
  120CHL1    H915104   5.112   1.577  12.439  2.3862  1.5218 -3.6464
  120CHL1   C1015105   5.003   1.702  12.574 -0.0396 -0.2199  0.2429
  120CHL1   C1915106   4.938   1.841  12.569  0.0932  0.1413 -0.2726
  120CHL1  H19A15107   4.888   1.866  12.665 -0.3862 -0.4490 -0.3616
  120CHL1  H19B15108   5.010   1.922  12.545  0.1546  0.0430 -0.4240
  120CHL1  H19C15109   4.855   1.840  12.494 -1.2339 -0.8964  1.1566
  120CHL1    C115110   4.893   1.585  12.571 -0.0866 -0.2425 -0.6606
  120CHL1   H1A15111   4.834   1.589  12.477 -0.9210  1.9879 -0.1043
  120CHL1   H1B15112   4.945   1.487  12.577 -0.3539 -0.5361 -2.5482
  120CHL1    C215113   4.798   1.594  12.691 -0.0286 -0.2362 -0.4033
  120CHL1   H2A15114   4.719   1.518  12.676  0.8184 -0.9775 -1.2837
  120CHL1   H2B15115   4.745   1.691  12.699  1.3661  0.4955  0.4679
  120CHL1   C2015116   5.301   1.805  11.957  0.4875 -0.2718 -0.0234
  120CHL1   H2015117   5.318   1.914  11.973 -0.0581  0.0480 -1.4752
  120CHL1   C2115118   5.159   1.790  11.890  0.8299 -0.1449  0.2718
  120CHL1  H21A15119   5.125   1.685  11.876  0.6279 -0.0235 -0.1614
  120CHL1  H21B15120   5.160   1.829  11.786  1.3523  0.5046  0.5149
  120CHL1  H21C15121   5.076   1.847  11.938  1.9740  1.2057  0.7182
  120CHL1   C2215122   5.406   1.749  11.872 -0.1715  0.5151 -0.1482
  120CHL1  H22A15123   5.507   1.772  11.913 -0.1309 -0.3620  0.2616
  120CHL1  H22B15124   5.380   1.642  11.859 -2.4789  0.9243  0.6175
  120CHL1   C2315125   5.413   1.803  11.734 -0.3308  0.1477 -0.3828
  120CHL1  H23A15126   5.316   1.784  11.683 -1.0092 -0.8858  1.2313
  120CHL1  H23B15127   5.435   1.912  11.733  1.1462 -0.1215 -0.3687
  120CHL1   C2415128   5.509   1.740  11.638 -0.2102 -0.5541  0.4881
  120CHL1  H24A15129   5.614   1.750  11.673  0.0233 -0.4746 -0.2277
  120CHL1  H24B15130   5.493   1.630  11.636  2.0745 -0.9150 -1.0124
  120CHL1   C2515131   5.503   1.792  11.489  0.8637 -0.2997  0.6970
  120CHL1   H2515132   5.576   1.728  11.436  1.3535 -0.7396  1.8505
  120CHL1   C2615133   5.370   1.774  11.428 -0.0857 -0.1293 -0.1146
  120CHL1  H26A15134   5.369   1.820  11.326 -0.7901 -1.5308 -0.7547
  120CHL1  H26B15135   5.346   1.667  11.417  0.6649 -0.1270 -2.1426
  120CHL1  H26C15136   5.295   1.826  11.491  1.2779 -0.2772  1.7135
  120CHL1   C2715137   5.551   1.940  11.466  0.4529 -0.6538 -0.3302
  120CHL1  H27A15138   5.548   1.994  11.563  2.2018  1.2941 -1.2977
  120CHL1  H27B15139   5.656   1.933  11.429  0.0327  0.5488 -1.8379
  120CHL1  H27C15140   5.497   1.992  11.384 -0.6409 -1.1110  0.0744
  121CHL1    C315141   2.907   5.889   9.982  0.1921  0.3076  0.1202
  121CHL1    H315142   3.001   5.937  10.018 -1.4362  3.0992  0.9734
  121CHL1    O315143   2.886   5.924   9.850  0.2028 -0.4497  0.1523
  121CHL1   H3'15144   2.797   5.900   9.824 -0.1146  1.3882 -0.6284
  121CHL1    C415145   2.908   5.732  10.002  0.0308  0.4421  1.2104
  121CHL1   H4A15146   2.817   5.685   9.959  0.1588  1.9754 -0.9029
  121CHL1   H4B15147   2.997   5.686   9.955  1.0891  1.4858  2.1167
  121CHL1    C515148   2.922   5.690  10.149 -0.1718 -0.2493  0.6854
  121CHL1    C615149   3.019   5.616  10.196 -0.0611 -0.3431  0.1032
  121CHL1    H615150   3.093   5.586  10.120  0.5607 -0.7722  0.8723
  121CHL1    C715151   3.036   5.564  10.334  0.0357  0.0027 -0.4762
  121CHL1   H7A15152   3.050   5.454  10.339 -0.3247 -0.0376 -0.3463
  121CHL1   H7B15153   3.131   5.618  10.356 -0.5869  2.0848 -2.4418
  121CHL1    C815154   2.908   5.597  10.419  0.5087  0.2091 -0.0743
  121CHL1    H815155   2.832   5.521  10.392  1.2040 -0.8462  0.8314
  121CHL1   C1415156   2.930   5.576  10.572  0.2143 -0.4437  0.7193
  121CHL1   H1415157   2.996   5.662  10.594 -1.3781  1.2814 -0.8890
  121CHL1   C1515158   3.005   5.457  10.625 -0.1226  0.2504  0.4986
  121CHL1  H15A15159   2.960   5.369  10.574  0.9287  0.2758 -0.4949
  121CHL1  H15B15160   3.114   5.460  10.602 -0.0270 -1.2781  0.6226
  121CHL1   C1615161   2.981   5.468  10.775  0.4119  0.1082 -0.5083
  121CHL1  H16A15162   2.961   5.365  10.812 -0.7178  0.7148  0.6632
  121CHL1  H16B15163   3.072   5.496  10.830  0.1816  0.1255 -0.1341
  121CHL1   C1715164   2.871   5.572  10.803  0.6013 -0.4149 -0.2898
  121CHL1   H1715165   2.917   5.666  10.841  0.8745 -0.8701  0.5321
  121CHL1   C1315166   2.808   5.596  10.664 -0.5191  0.5943  0.4716
  121CHL1   C1815167   2.710   5.481  10.632  0.4756 -0.8521 -0.1863
  121CHL1  H18A15168   2.616   5.495  10.690  1.3557  0.9806  0.8502
  121CHL1  H18B15169   2.678   5.482  10.525 -2.0209 -2.2993  0.4718
  121CHL1  H18C15170   2.758   5.384  10.659  4.4560  1.4878  2.1021
  121CHL1   C1215171   2.757   5.737  10.633 -0.1029 -0.3466 -0.2692
  121CHL1  H12A15172   2.668   5.769  10.693  1.3282  2.0492  0.7465
  121CHL1  H12B15173   2.828   5.822  10.646 -1.2421  0.6335 -0.2249
  121CHL1   C1115174   2.719   5.762  10.487 -0.3995 -0.1374  0.2448
  121CHL1  H11A15175   2.647   5.685  10.452  1.3950 -1.7527 -0.0945
  121CHL1  H11B15176   2.686   5.866  10.467  0.3225 -0.1859 -1.4482
  121CHL1    C915177   2.835   5.732  10.392 -0.3646  0.2860 -0.8092
  121CHL1    H915178   2.911   5.808  10.424 -1.2275  0.7998  0.0901
  121CHL1   C1015179   2.812   5.747  10.241 -0.2116  0.8791 -0.3656
  121CHL1   C1915180   2.677   5.674  10.205 -0.7337  0.1000  0.4767
  121CHL1  H19A15181   2.591   5.714  10.263 -1.5934  1.1454 -1.4480
  121CHL1  H19B15182   2.652   5.692  10.099 -0.5626  1.2607  0.6177
  121CHL1  H19C15183   2.677   5.563  10.215  0.4767 -0.0628 -0.9608
  121CHL1    C115184   2.795   5.902  10.218  0.6517 -0.1952  1.0723
  121CHL1   H1A15185   2.702   5.937  10.266 -0.4897  0.4538 -1.4518
  121CHL1   H1B15186   2.886   5.947  10.264  0.7743 -0.3771  1.0133
  121CHL1    C215187   2.792   5.941  10.070  0.8588  0.1289  0.0512
  121CHL1   H2A15188   2.804   6.052  10.076  0.0990  0.1397  2.5955
  121CHL1   H2B15189   2.694   5.920  10.022  0.1977  0.6225  1.1312
  121CHL1   C2015190   2.776   5.538  10.923 -0.3542  0.1618 -0.1574
  121CHL1   H2015191   2.719   5.444  10.907 -1.1515  0.4044  1.1349
  121CHL1   C2115192   2.678   5.653  10.945  0.0474  0.6759 -0.6818
  121CHL1  H21A15193   2.730   5.746  10.976 -0.5078  0.3539  1.3289
  121CHL1  H21B15194   2.612   5.627  11.030 -0.2905 -0.3567 -1.2407
  121CHL1  H21C15195   2.613   5.668  10.856  1.4456  0.0535 -1.8545
  121CHL1   C2215196   2.869   5.519  11.046 -0.3098  0.1352 -0.1069
  121CHL1  H22A15197   2.944   5.439  11.022  0.3350 -0.1222  2.4911
  121CHL1  H22B15198   2.930   5.610  11.063 -0.4590  0.3916 -0.9067
  121CHL1   C2315199   2.795   5.486  11.171  0.0523  1.3061 -0.7458
  121CHL1  H23A15200   2.750   5.575  11.221  0.5701  1.4963 -0.6106
  121CHL1  H23B15201   2.724   5.402  11.154  1.0430  0.5124 -1.0466
  121CHL1   C2415202   2.882   5.419  11.278 -0.2248  0.0133 -0.5251
  121CHL1  H24A15203   2.816   5.399  11.366 -1.2914  1.7775 -0.8703
  121CHL1  H24B15204   2.916   5.321  11.237  0.6081  0.4414 -0.8850
  121CHL1   C2515205   2.999   5.509  11.330 -0.3809  0.0950 -0.1242
  121CHL1   H2515206   3.066   5.542  11.248  1.8679  0.3016  1.7171
  121CHL1   C2615207   2.957   5.624  11.425  0.8771 -0.3512  0.1804
  121CHL1  H26A15208   3.044   5.687  11.452  0.3252  1.4191 -1.8529
  121CHL1  H26B15209   2.888   5.691  11.369  0.8531 -2.4589 -2.5045
  121CHL1  H26C15210   2.907   5.585  11.516  0.0529  1.2771  0.4540
  121CHL1   C2715211   3.089   5.422  11.421  0.2537  0.0666  0.0061
  121CHL1  H27A15212   3.058   5.414  11.527 -0.7625  0.4128 -0.2525
  121CHL1  H27B15213   3.125   5.325  11.379  0.9961  1.0478 -1.7594
  121CHL1  H27C15214   3.181   5.484  11.427  0.2351  0.0741  0.2066
  122CHL1    C315215   7.992   4.952   9.912 -0.5524 -0.3894  0.0457
  122CHL1    H315216   7.940   5.034   9.966 -0.1524 -0.7684  1.0312
  122CHL1    O315217   8.064   5.007   9.805  0.0572  0.7268 -0.1949
  122CHL1   H3'15218   8.114   4.929   9.780 -3.1510 -1.0200 -1.6970
  122CHL1    C415219   8.090   4.897  10.020  0.1589 -0.1298 -0.5925
  122CHL1   H4A15220   8.173   4.841   9.972  0.9893  0.7824 -0.2553
  122CHL1   H4B15221   8.130   4.985  10.076 -1.2024 -0.7671  1.4551
  122CHL1    C515222   8.019   4.813  10.125 -0.2506 -0.4880 -0.0007
  122CHL1    C615223   8.037   4.833  10.259  0.2510  0.4520  0.5313
  122CHL1    H615224   8.107   4.916  10.273 -0.8657  2.0386 -2.3656
  122CHL1    C715225   7.972   4.761  10.372  0.1354 -0.2755  0.4335
  122CHL1   H7A15226   8.044   4.751  10.456  0.3838 -1.6815  0.0825
  122CHL1   H7B15227   7.886   4.825  10.401  1.0550  1.4990 -0.6260
  122CHL1    C815228   7.916   4.625  10.322  0.4975  0.6335 -0.1311
  122CHL1    H815229   7.996   4.549  10.308 -0.6587 -0.5793 -0.2556
  122CHL1   C1415230   7.819   4.562  10.426 -0.4045 -0.2993 -0.0684
  122CHL1   H1415231   7.735   4.634  10.426  1.7127  2.3512  0.1129
  122CHL1   C1515232   7.860   4.557  10.577 -0.4828  1.0395 -0.0261
  122CHL1  H15A15233   7.964   4.524  10.599 -0.8178 -1.1376 -1.4112
  122CHL1  H15B15234   7.852   4.655  10.629  1.1776 -0.0086  2.4180
  122CHL1   C1615235   7.769   4.449  10.642  0.6085  0.6413 -0.2043
  122CHL1  H16A15236   7.839   4.374  10.683  1.7002  1.6023 -0.2624
  122CHL1  H16B15237   7.706   4.493  10.723  2.1922 -0.6919  1.8573
  122CHL1   C1715238   7.687   4.391  10.525  0.0444 -0.6118 -0.3384
  122CHL1   H1715239   7.599   4.456  10.509  0.5481  0.3493  0.6681
  122CHL1   C1315240   7.775   4.422  10.394  0.5577 -0.4088 -0.1414
  122CHL1   C1815241   7.888   4.317  10.376 -0.2738 -0.1036 -0.0287
  122CHL1  H18A15242   7.944   4.306  10.471 -0.0285  0.7198 -0.0744
  122CHL1  H18B15243   7.847   4.220  10.341  1.7612 -1.8258  2.0187
  122CHL1  H18C15244   7.958   4.347  10.295  1.0279  0.3604  1.2474
  122CHL1   C1215245   7.700   4.434  10.261  0.8204  0.0088 -0.2108
  122CHL1  H12A15246   7.666   4.334  10.227  0.1672  0.4075 -0.7575
  122CHL1  H12B15247   7.605   4.486  10.283  0.1889 -1.0833 -0.2821
  122CHL1   C1115248   7.776   4.501  10.147  0.4385 -0.0297 -0.3155
  122CHL1  H11A15249   7.864   4.434  10.132 -0.2052 -0.9127 -0.2124
  122CHL1  H11B15250   7.718   4.502  10.053 -2.5078  0.0005  1.3907
  122CHL1    C915251   7.840   4.639  10.193  0.2065 -0.5272  0.2540
  122CHL1    H915252   7.755   4.708  10.213 -0.7104 -1.7283  0.6008
  122CHL1   C1015253   7.925   4.703  10.074  0.3702  0.7960 -0.8581
  122CHL1   C1915254   8.016   4.593  10.015  0.0246  0.2488  0.7611
  122CHL1  H19A15255   7.942   4.531   9.962 -0.3084  0.7262  0.6623
  122CHL1  H19B15256   8.087   4.639   9.943  0.1407  4.2136  3.0929
  122CHL1  H19C15257   8.068   4.526  10.087  1.1374 -0.0077 -0.2482
  122CHL1    C115258   7.830   4.759   9.961 -0.3875 -0.5779 -0.0476
  122CHL1   H1A15259   7.786   4.676   9.903  1.4087 -0.2044 -2.0525
  122CHL1   H1B15260   7.752   4.817  10.014  0.2968  0.8492 -0.5691
  122CHL1    C215261   7.894   4.850   9.858 -0.3038  0.1395  0.2003
  122CHL1   H2A15262   7.822   4.907   9.795 -0.4108  0.0727  0.2610
  122CHL1   H2B15263   7.944   4.785   9.784 -0.8902 -0.1096  0.0134
  122CHL1   C2015264   7.633   4.248  10.558 -0.5307  0.3148 -0.2833
  122CHL1   H2015265   7.718   4.183  10.587 -3.7379 -4.5913 -0.6333
  122CHL1   C2115266   7.563   4.193  10.436  0.1135  0.2027  0.1551
  122CHL1  H21A15267   7.499   4.269  10.387  1.0498 -0.4529 -2.2436
  122CHL1  H21B15268   7.510   4.098  10.458 -3.1995  1.5575 -1.3839
  122CHL1  H21C15269   7.635   4.170  10.355 -1.4655  1.3054 -1.6374
  122CHL1   C2215270   7.542   4.252  10.691 -0.0248 -0.1582  0.0740
  122CHL1  H22A15271   7.599   4.306  10.770 -1.4098  0.9940  0.3273
  122CHL1  H22B15272   7.460   4.319  10.659  0.0592 -1.5781 -3.5322
  122CHL1   C2315273   7.491   4.114  10.743  0.4795 -0.2712  0.2802
  122CHL1  H23A15274   7.432   4.067  10.662  1.8488  1.4695 -1.8411
  122CHL1  H23B15275   7.577   4.046  10.760  1.1177 -0.9642 -4.5100
  122CHL1   C2415276   7.411   4.131  10.871 -0.1067  0.0061 -0.1915
  122CHL1  H24A15277   7.473   4.191  10.940 -0.7787  0.0866  0.3536
  122CHL1  H24B15278   7.312   4.179  10.854 -0.0489  0.5681  0.9842
  122CHL1   C2515279   7.390   3.996  10.946 -0.6563  0.3383 -0.4146
  122CHL1   H2515280   7.304   4.018  11.012 -0.9376 -2.6429  0.3452
  122CHL1   C2615281   7.348   3.880  10.846 -0.1488 -0.5417  0.0994
  122CHL1  H26A15282   7.431   3.855  10.776  0.1718 -0.2768  0.3814
  122CHL1  H26B15283   7.321   3.794  10.911 -0.1543 -1.1461 -0.6951
  122CHL1  H26C15284   7.262   3.914  10.785  0.7067  1.3784 -0.0969
  122CHL1   C2715285   7.511   3.948  11.034 -0.2288 -0.4073 -0.0048
  122CHL1  H27A15286   7.593   3.919  10.966 -1.8760 -1.0586 -1.7837
  122CHL1  H27B15287   7.535   4.026  11.110 -1.6867  0.9875 -0.9046
  122CHL1  H27C15288   7.487   3.858  11.094  2.8190 -1.2336  0.1003
  123CHL1    C315289   4.428   6.637   9.815  0.3900 -0.2840  0.2541
  123CHL1    H315290   4.418   6.532   9.850 -0.2000 -0.3500 -0.0868
  123CHL1    O315291   4.442   6.655   9.678 -0.5763 -0.4923  0.7352
  123CHL1   H3'15292   4.523   6.609   9.654 -0.3419  0.7993 -1.2943
  123CHL1    C415293   4.300   6.713   9.870 -0.1038  0.3760  0.2014
  123CHL1   H4A15294   4.326   6.812   9.827  1.8349  0.6269  1.7946
  123CHL1   H4B15295   4.211   6.672   9.816  2.1462 -2.1788 -1.8710
  123CHL1    C515296   4.291   6.734  10.023  0.0483 -0.0583 -0.4342
  123CHL1    C615297   4.176   6.699  10.079  0.8675  0.1324 -0.1347
  123CHL1    H615298   4.091   6.667  10.016 -0.6649  1.0299  1.3938
  123CHL1    C715299   4.159   6.694  10.229  0.4447 -0.3855  0.3460
  123CHL1   H7A15300   4.061   6.729  10.269  0.0424 -0.2955 -0.6848
  123CHL1   H7B15301   4.175   6.588  10.258  2.0307 -1.3149 -3.3218
  123CHL1    C815302   4.274   6.779  10.304  0.2616  0.5324  0.0938
  123CHL1    H815303   4.264   6.887  10.279  1.8051  0.1023 -2.8820
  123CHL1   C1415304   4.262   6.753  10.451 -0.1890 -0.0988 -0.0134
  123CHL1   H1415305   4.283   6.647  10.478 -2.0647 -0.2297  1.0753
  123CHL1   C1515306   4.126   6.774  10.530 -0.4220  0.2425 -0.3531
  123CHL1  H15A15307   4.059   6.846  10.479 -0.4250  0.5597  0.0868
  123CHL1  H15B15308   4.074   6.676  10.533 -1.1798  0.6527  1.6886
  123CHL1   C1615309   4.172   6.811  10.672 -0.5825 -0.7410  0.2512
  123CHL1  H16A15310   4.152   6.920  10.688  1.4803 -0.3491  0.4364
  123CHL1  H16B15311   4.130   6.750  10.754  0.2662 -1.0557  0.4664
  123CHL1   C1715312   4.326   6.799  10.673  0.4546  0.0133  0.0731
  123CHL1   H1715313   4.343   6.690  10.687 -1.0279 -0.7482 -3.1153
  123CHL1   C1315314   4.368   6.829  10.532 -0.7256 -0.0210  0.2825
  123CHL1   C1815315   4.348   6.984  10.509  0.0171  0.5935  0.3493
  123CHL1  H18A15316   4.245   7.019  10.530  0.7283  3.2451 -0.1334
  123CHL1  H18B15317   4.421   7.047  10.565 -2.3800  3.1104  0.8778
  123CHL1  H18C15318   4.350   7.004  10.400 -3.5330 -0.3053  0.0181
  123CHL1   C1215319   4.503   6.776  10.493 -0.2952 -0.4152  0.6002
  123CHL1  H12A15320   4.582   6.828  10.552 -0.1211  1.0907 -0.8690
  123CHL1  H12B15321   4.506   6.668  10.518 -0.8385 -0.5304  0.1901
  123CHL1   C1115322   4.536   6.789  10.337  0.0411 -0.8744  0.9021
  123CHL1  H11A15323   4.526   6.898  10.316  2.5910 -0.2891  2.3755
  123CHL1  H11B15324   4.625   6.742  10.290  0.1910  0.3968 -0.1643
  123CHL1    C915325   4.414   6.735  10.248  0.0032  0.0514 -0.1820
  123CHL1    H915326   4.420   6.624  10.254 -0.8097 -0.1086 -1.8198
  123CHL1   C1015327   4.424   6.763  10.094  0.0495 -0.1495 -0.9645
  123CHL1   C1915328   4.458   6.917  10.075  0.6441  0.5549  0.2462
  123CHL1  H19A15329   4.565   6.933  10.100  1.4133 -2.1001 -0.9330
  123CHL1  H19B15330   4.446   6.947   9.969 -0.4836 -1.8903 -0.3922
  123CHL1  H19C15331   4.398   6.987  10.137  0.0829  0.5167 -0.2479
  123CHL1    C115332   4.544   6.688  10.039  0.1602 -0.2516 -0.0341
  123CHL1   H1A15333   4.633   6.739  10.081 -1.4912  0.7177  2.4908
  123CHL1   H1B15334   4.548   6.581  10.068  0.2648 -0.3174 -0.2852
  123CHL1    C215335   4.551   6.692   9.882 -0.2921 -0.3971  0.4899
  123CHL1   H2A15336   4.647   6.646   9.850  1.5923  3.7491 -0.4570
  123CHL1   H2B15337   4.559   6.799   9.855 -0.9785 -0.1218  1.3263
  123CHL1   C2015338   4.411   6.860  10.790 -0.3162 -0.0835  0.3047
  123CHL1   H2015339   4.517   6.852  10.758 -0.3167  1.8266 -0.2789
  123CHL1   C2115340   4.395   6.773  10.920 -0.7184  0.1378  0.1891
  123CHL1  H21A15341   4.290   6.787  10.951 -0.7667 -0.9222  0.5233
  123CHL1  H21B15342   4.458   6.802  11.007  0.2546  0.0355 -0.4654
  123CHL1  H21C15343   4.425   6.667  10.904  2.3975  0.9016  0.3607
  123CHL1   C2215344   4.383   7.012  10.830  0.2036 -0.8130  1.0249
  123CHL1  H22A15345   4.347   7.079  10.749  2.7961  2.1543  2.1284
  123CHL1  H22B15346   4.302   7.001  10.905 -0.5465  0.4168  0.4351
  123CHL1   C2315347   4.510   7.077  10.893 -0.5612 -0.3588  0.4540
  123CHL1  H23A15348   4.533   7.013  10.981 -2.5468 -1.7649  0.0128
  123CHL1  H23B15349   4.590   7.053  10.819  0.3294  0.4159  1.1354
  123CHL1   C2415350   4.491   7.228  10.919 -0.7501 -0.6522 -0.6628
  123CHL1  H24A15351   4.495   7.285  10.824  1.7549 -1.9011 -1.4075
  123CHL1  H24B15352   4.390   7.232  10.965 -1.2884 -2.7743 -1.5499
  123CHL1   C2515353   4.591   7.274  11.035  0.5845 -0.7365 -0.5359
  123CHL1   H2515354   4.589   7.385  11.036 -1.8671 -0.7268 -0.8851
  123CHL1   C2615355   4.546   7.230  11.180 -0.0841 -0.2481 -0.0865
  123CHL1  H26A15356   4.612   7.271  11.259 -1.2034 -0.0341  0.7784
  123CHL1  H26B15357   4.444   7.270  11.201  0.6175  0.8912  1.3113
  123CHL1  H26C15358   4.545   7.119  11.178  1.1540 -0.2728  0.0720
  123CHL1   C2715359   4.739   7.234  11.006 -0.3440 -0.0966  0.4806
  123CHL1  H27A15360   4.746   7.124  11.016 -3.0286 -0.3465  0.4076
  123CHL1  H27B15361   4.766   7.267  10.903  1.0707  0.4601  0.9947
  123CHL1  H27C15362   4.814   7.278  11.075  0.3761  0.0382 -0.3699
  124CHL1    C315363   1.761   6.793   9.810  0.0939 -0.0488  0.2126
  124CHL1    H315364   1.720   6.894   9.788  3.1964  1.9462  2.6447
  124CHL1    O315365   1.753   6.706   9.698 -0.1058 -0.1535 -0.0750
  124CHL1   H3'15366   1.812   6.750   9.636 -0.2233 -0.6386 -0.5410
  124CHL1    C415367   1.914   6.819   9.843  0.0695 -0.4185 -0.5809
  124CHL1   H4A15368   1.979   6.729   9.841  1.5653  0.6325 -0.8792
  124CHL1   H4B15369   1.944   6.882   9.757 -2.5205  0.0329 -1.2351
  124CHL1    C515370   1.934   6.893   9.973  0.5646 -0.8231  0.7566
  124CHL1    C615371   2.005   7.004   9.969  0.4426  0.4492  0.0676
  124CHL1    H615372   2.044   7.033   9.870 -0.4641 -2.0698 -1.1084
  124CHL1    C715373   2.032   7.075  10.097  0.5910 -0.3595 -0.6361
  124CHL1   H7A15374   2.135   7.116  10.108  0.4555 -0.3587  0.8439
  124CHL1   H7B15375   1.961   7.160  10.093  1.9233  0.7490 -1.8949
  124CHL1    C815376   2.008   6.988  10.228 -0.2635 -0.0974 -0.5992
  124CHL1    H815377   2.074   6.899  10.225  1.3453  0.8754  2.2374
  124CHL1   C1415378   2.020   7.075  10.353  0.4301  0.8015  0.1909
  124CHL1   H1415379   1.945   7.157  10.350 -1.5470 -0.9443 -2.0005
  124CHL1   C1515380   2.161   7.130  10.376 -0.4762  0.1627 -0.2703
  124CHL1  H15A15381   2.244   7.059  10.355 -1.5868 -0.5998 -2.4424
  124CHL1  H15B15382   2.162   7.214  10.303  0.4188 -0.7283 -1.3317
  124CHL1   C1615383   2.164   7.173  10.523  1.2185  0.1872 -0.3967
  124CHL1  H16A15384   2.256   7.134  10.572  0.5911 -1.0578 -0.1757
  124CHL1  H16B15385   2.166   7.284  10.520 -1.9973  0.3383 -1.9360
  124CHL1   C1715386   2.037   7.119  10.590  0.0536  0.0741 -0.0307
  124CHL1   H1715387   1.960   7.199  10.583 -0.0798 -0.1575 -1.6818
  124CHL1   C1315388   1.987   7.008  10.488  0.0093  0.5003 -0.2473
  124CHL1   C1815389   2.082   6.882  10.506  0.1758  0.3484  0.0929
  124CHL1  H18A15390   2.190   6.911  10.508  0.4270 -0.5653  0.6951
  124CHL1  H18B15391   2.071   6.832  10.604  2.5243  0.2935  0.4021
  124CHL1  H18C15392   2.066   6.804  10.428  0.0658  1.5382 -1.1004
  124CHL1   C1215393   1.839   6.969  10.481  1.1621  0.1658  0.7491
  124CHL1  H12A15394   1.819   6.914  10.576 -1.4719 -0.2131  0.0345
  124CHL1  H12B15395   1.776   7.061  10.487  1.5031  0.6402 -1.8998
  124CHL1   C1115396   1.809   6.876  10.357 -0.9436  0.5270  0.0806
  124CHL1  H11A15397   1.851   6.777  10.382 -1.6684  0.7227  2.2539
  124CHL1  H11B15398   1.699   6.859  10.354 -0.7194 -1.3094  1.0756
  124CHL1    C915399   1.861   6.935  10.225 -0.1739 -0.4228 -0.0277
  124CHL1    H915400   1.798   7.025  10.210 -0.6856 -0.5492  1.2948
  124CHL1   C1015401   1.855   6.840  10.097 -0.2683  0.1397 -0.3112
  124CHL1   C1915402   1.918   6.703  10.139  0.6829  0.5201 -0.3255
  124CHL1  H19A15403   1.909   6.635  10.051 -1.9272  0.9927 -0.5239
  124CHL1  H19B15404   2.024   6.697  10.170 -0.0340 -1.9293  2.0861
  124CHL1  H19C15405   1.860   6.651  10.218  2.3521  0.1092  0.6665
  124CHL1    C115406   1.704   6.813  10.057  0.3566 -0.0016 -0.1000
  124CHL1   H1A15407   1.656   6.759  10.142  1.6386  2.3974  2.3286
  124CHL1   H1B15408   1.666   6.917  10.050  3.1144  0.9899 -2.0246
  124CHL1    C215409   1.688   6.732   9.929 -0.3033  0.4467 -0.5503
  124CHL1   H2A15410   1.579   6.724   9.910 -0.6023 -1.3801  1.5358
  124CHL1   H2B15411   1.738   6.634   9.941  0.1170  0.6073 -0.9636
  124CHL1   C2015412   2.065   7.077  10.740 -0.4387 -0.3803 -0.6873
  124CHL1   H2015413   2.136   6.992  10.737 -1.2331 -1.1245  0.6082
  124CHL1   C2115414   1.939   7.013  10.792  0.2909  1.2943  0.1303
  124CHL1  H21A15415   1.961   6.983  10.897 -1.3612  0.0176  0.1408
  124CHL1  H21B15416   1.918   6.913  10.748  1.9774 -0.4869  2.9842
  124CHL1  H21C15417   1.853   7.082  10.781  0.3392  1.1787 -1.1235
  124CHL1   C2215418   2.128   7.185  10.828  0.4324  0.0783 -0.0891
  124CHL1  H22A15419   2.177   7.139  10.917  0.7259  0.4027 -0.0814
  124CHL1  H22B15420   2.202   7.240  10.767  1.4018 -1.7252 -0.5905
  124CHL1   C2315421   2.018   7.280  10.894 -0.2288 -0.2818 -0.0042
  124CHL1  H23A15422   1.934   7.301  10.824 -1.1114 -0.4288  0.9763
  124CHL1  H23B15423   1.960   7.220  10.968 -0.2448 -0.4919 -0.1857
  124CHL1   C2415424   2.085   7.398  10.969  0.6489 -0.3640 -0.6640
  124CHL1  H24A15425   2.162   7.357  11.038  0.2498 -0.0201 -0.0039
  124CHL1  H24B15426   2.133   7.467  10.896  0.0033 -0.7247 -1.4461
  124CHL1   C2515427   1.973   7.483  11.038  0.1999 -0.2573 -0.2383
  124CHL1   H2515428   1.879   7.438  10.999 -1.0610  1.8945  0.1700
  124CHL1   C2615429   1.983   7.463  11.192  0.7632 -0.6484  0.1139
  124CHL1  H26A15430   2.088   7.492  11.215  0.6231 -0.6217  0.7521
  124CHL1  H26B15431   1.917   7.525  11.257 -1.2857  0.7556 -3.0435
  124CHL1  H26C15432   1.966   7.358  11.221 -0.8011 -0.3844  0.2108
  124CHL1   C2715433   1.973   7.637  11.008  0.2737  0.2754  0.7768
  124CHL1  H27A15434   2.073   7.686  11.006  0.2739  0.2959 -2.0755
  124CHL1  H27B15435   1.922   7.659  10.912 -0.2068  3.9864  1.7042
  124CHL1  H27C15436   1.912   7.692  11.083  1.7785 -0.6953  2.8324
  125CHL1    C315437   2.936   6.359   9.949  0.5343  0.4665  0.1046
  125CHL1    H315438   2.882   6.268   9.913 -2.3415  1.0699  2.4711
  125CHL1    O315439   2.994   6.431   9.843 -0.0576 -0.4557 -0.8455
  125CHL1   H3'15440   3.053   6.497   9.881  1.7135 -1.7943 -1.1147
  125CHL1    C415441   2.822   6.442  10.016 -0.0634 -0.5145  0.8201
  125CHL1   H4A15442   2.861   6.545  10.034 -0.7425  0.0797 -0.9701
  125CHL1   H4B15443   2.737   6.440   9.945  0.6435  1.4791 -0.1743
  125CHL1    C515444   2.772   6.394  10.156  0.4201  0.6586  0.7090
  125CHL1    C615445   2.643   6.376  10.182  0.2867 -0.5964 -0.4127
  125CHL1    H615446   2.569   6.411  10.108  0.0505  0.0920  0.1371
  125CHL1    C715447   2.595   6.329  10.314 -0.7540 -0.6948  0.2747
  125CHL1   H7A15448   2.516   6.400  10.347 -2.0584 -0.8027 -2.3697
  125CHL1   H7B15449   2.556   6.224  10.314 -1.0343 -0.5914  0.3582
  125CHL1    C815450   2.703   6.328  10.422 -0.4656 -0.0992 -0.1409
  125CHL1    H815451   2.728   6.428  10.464  0.2376 -0.2390 -0.2110
  125CHL1   C1415452   2.655   6.239  10.546  0.1914 -0.7750 -0.6102
  125CHL1   H1415453   2.637   6.137  10.505 -2.1832 -0.2705 -0.9692
  125CHL1   C1515454   2.525   6.284  10.622  0.4029  0.7638  0.9324
  125CHL1  H15A15455   2.515   6.394  10.626 -1.2035  0.6368  0.7854
  125CHL1  H15B15456   2.435   6.248  10.567 -0.0387  2.0192  0.8100
  125CHL1   C1615457   2.532   6.212  10.753 -0.5488  0.5587 -0.5692
  125CHL1  H16A15458   2.535   6.295  10.827  2.7146  0.1935 -0.1522
  125CHL1  H16B15459   2.454   6.137  10.781 -0.0902  0.0260 -0.7060
  125CHL1   C1715460   2.675   6.136  10.758  0.2449  0.1589  0.2079
  125CHL1   H1715461   2.657   6.037  10.709  0.4993  0.0486  0.3355
  125CHL1   C1315462   2.762   6.219  10.658  0.8944 -0.3283 -0.1939
  125CHL1   C1815463   2.793   6.355  10.722  0.1915 -0.1220 -0.0525
  125CHL1  H18A15464   2.870   6.349  10.802  1.4058  2.8794 -0.8766
  125CHL1  H18B15465   2.829   6.428  10.647 -0.4663 -0.5398 -0.7900
  125CHL1  H18C15466   2.711   6.412  10.771 -0.8763 -1.0792 -0.6797
  125CHL1   C1215467   2.885   6.146  10.591 -0.4184  0.2950 -0.2944
  125CHL1  H12A15468   2.963   6.149  10.671 -2.2181 -0.2793  1.5502
  125CHL1  H12B15469   2.850   6.049  10.551  1.0831  1.0384 -3.7067
  125CHL1   C1115470   2.939   6.238  10.477  0.1447 -0.2207 -0.4537
  125CHL1  H11A15471   2.979   6.331  10.521 -1.3774  0.7717 -1.1040
  125CHL1  H11B15472   3.024   6.190  10.424  1.4282  0.8901  0.5622
  125CHL1    C915473   2.833   6.271  10.367  0.1802  0.3052 -0.0003
  125CHL1    H915474   2.824   6.169  10.325  3.0772  0.3147 -0.8447
  125CHL1   C1015475   2.893   6.351  10.246  0.5004 -0.2521 -0.1748
  125CHL1   C1915476   2.964   6.486  10.301  0.7615  0.3733  0.1898
  125CHL1  H19A15477   2.895   6.553  10.358  0.8368  1.2529 -0.7269
  125CHL1  H19B15478   3.060   6.477  10.356  0.9463  1.2839  0.0331
  125CHL1  H19C15479   2.990   6.538  10.206 -1.7089  0.7539 -0.3548
  125CHL1    C115480   2.998   6.267  10.172 -0.0510 -0.4893  0.1566
  125CHL1   H1A15481   3.086   6.259  10.240  1.1527 -0.4508 -1.3416
  125CHL1   H1B15482   2.961   6.165  10.148 -2.0074  0.0948  0.4999
  125CHL1    C215483   3.049   6.332  10.039 -0.4923 -0.3528 -0.4817
  125CHL1   H2A15484   3.122   6.274   9.979  1.0907  1.6434 -0.6046
  125CHL1   H2B15485   3.107   6.423  10.064 -0.0769 -0.8286  0.3354
  125CHL1   C2015486   2.726   6.114  10.904 -0.7423 -0.1913  0.2386
  125CHL1   H2015487   2.757   6.209  10.953 -2.1730 -0.5918  2.0169
  125CHL1   C2115488   2.862   6.043  10.900 -0.4737  0.1204 -0.3065
  125CHL1  H21A15489   2.932   6.112  10.848 -0.9156 -1.1179 -2.6744
  125CHL1  H21B15490   2.856   5.953  10.835  0.0225 -0.8553  0.9364
  125CHL1  H21C15491   2.906   6.017  10.999  0.3269  1.9498 -0.1482
  125CHL1   C2215492   2.624   6.041  10.994 -0.0414  0.6915 -0.1724
  125CHL1  H22A15493   2.536   6.108  10.996  1.1159  2.2283  0.8307
  125CHL1  H22B15494   2.612   5.941  10.947  1.3525  0.3871  0.0937
  125CHL1   C2315495   2.673   6.012  11.133  0.5421 -0.1119  0.2282
  125CHL1  H23A15496   2.745   5.928  11.138  0.8701  0.1799  0.4102
  125CHL1  H23B15497   2.739   6.090  11.177  1.6399 -1.1204  0.4062
  125CHL1   C2415498   2.562   5.954  11.223  0.1468  0.2263  0.2862
  125CHL1  H24A15499   2.492   6.029  11.267 -0.7745 -0.3185 -0.2233
  125CHL1  H24B15500   2.504   5.877  11.168  1.5302  0.5801 -1.7576
  125CHL1   C2515501   2.631   5.902  11.355 -0.4614  0.3301 -0.4885
  125CHL1   H2515502   2.668   5.799  11.335 -2.0151 -0.4309  0.4506
  125CHL1   C2615503   2.747   5.980  11.415 -0.0056 -0.8526 -0.3788
  125CHL1  H26A15504   2.826   6.008  11.342  0.7949 -2.2035 -0.0732
  125CHL1  H26B15505   2.711   6.075  11.459  1.5793  0.4677 -1.7951
  125CHL1  H26C15506   2.788   5.915  11.496 -2.8598 -3.1333 -0.5998
  125CHL1   C2715507   2.524   5.885  11.461  0.3623  0.0441 -0.6031
  125CHL1  H27A15508   2.560   5.860  11.563 -1.4353  0.9748  0.2873
  125CHL1  H27B15509   2.462   5.973  11.486  0.1481 -0.2469 -0.0867
  125CHL1  H27C15510   2.452   5.811  11.420  0.1563  1.1497 -2.3326
  126CHL1    C315511   8.331   8.436  10.600  0.9556  0.1226  0.1122
  126CHL1    H315512   8.350   8.334  10.561  0.9620  0.0816  0.2227
  126CHL1    O315513   8.309   8.513  10.486  0.6147  0.2597  0.9529
  126CHL1   H3'15514   8.240   8.575  10.512  0.2812  0.3651 -0.1174
  126CHL1    C415515   8.203   8.439  10.685  0.4472  0.1083 -1.0772
  126CHL1   H4A15516   8.175   8.543  10.713 -0.6853 -0.7606  1.2963
  126CHL1   H4B15517   8.119   8.400  10.624 -0.0431 -0.5308 -0.0312
  126CHL1    C515518   8.216   8.355  10.807  0.8130 -0.6863  0.4062
  126CHL1    C615519   8.134   8.254  10.827 -0.0509 -0.3109 -0.1270
  126CHL1    H615520   8.057   8.226  10.754 -0.0489 -3.1155  0.8249
  126CHL1    C715521   8.140   8.165  10.947  0.5172  0.1860  0.4838
  126CHL1   H7A15522   8.038   8.134  10.979  1.4587 -2.0691  1.5508
  126CHL1   H7B15523   8.191   8.068  10.929 -0.1465  0.2694 -2.2861
  126CHL1    C815524   8.221   8.225  11.065 -0.6115  0.1376 -0.5097
  126CHL1    H815525   8.166   8.314  11.101  0.1194  0.4821 -0.2329
  126CHL1   C1415526   8.232   8.127  11.179  0.0772  0.2492 -0.2636
  126CHL1   H1415527   8.282   8.035  11.141 -0.5917 -0.1084 -0.2841
  126CHL1   C1515528   8.110   8.077  11.259  0.0084  0.2507  0.1814
  126CHL1  H15A15529   8.028   8.150  11.276 -0.7626 -1.1166  2.9555
  126CHL1  H15B15530   8.066   7.986  11.214 -0.4996 -0.7754  2.6081
  126CHL1   C1615531   8.170   8.034  11.396  0.0034 -0.0602  0.5540
  126CHL1  H16A15532   8.129   8.097  11.478  3.8021  2.8804  0.4408
  126CHL1  H16B15533   8.149   7.930  11.427  1.0688  0.3165  2.6786
  126CHL1   C1715534   8.323   8.053  11.388 -0.2006 -0.5583  0.6641
  126CHL1   H1715535   8.377   7.967  11.343 -1.9987 -1.1800 -0.3788
  126CHL1   C1315536   8.323   8.176  11.294 -0.3096 -0.0607 -0.4276
  126CHL1   C1815537   8.257   8.305  11.356 -0.1462  0.0356  0.1350
  126CHL1  H18A15538   8.251   8.391  11.285 -1.0997 -0.2001 -0.0688
  126CHL1  H18B15539   8.155   8.286  11.394 -0.4113 -0.6837 -0.8770
  126CHL1  H18C15540   8.316   8.341  11.443 -0.1924 -0.3933  0.3457
  126CHL1   C1215541   8.471   8.209  11.228 -0.3776 -0.7188  0.8574
  126CHL1  H12A15542   8.544   8.248  11.303 -1.4104 -2.3164  2.7620
  126CHL1  H12B15543   8.519   8.111  11.205 -1.5520 -1.4670  1.4945
  126CHL1   C1115544   8.464   8.311  11.113 -0.3998  0.3967 -0.1873
  126CHL1  H11A15545   8.437   8.408  11.158  2.4256  0.4216  1.6867
  126CHL1  H11B15546   8.560   8.310  11.057 -0.1998 -1.7811  0.1012
  126CHL1    C915547   8.354   8.276  11.004 -0.1971  0.1764  0.4111
  126CHL1    H915548   8.402   8.190  10.952  1.6509  2.6563 -2.3143
  126CHL1   C1015549   8.339   8.390  10.898  0.0613  0.0729  0.1794
  126CHL1   C1915550   8.298   8.526  10.969 -0.4653  0.3117  0.2748
  126CHL1  H19A15551   8.270   8.605  10.896 -1.4238 -0.0812  0.2063
  126CHL1  H19B15552   8.216   8.518  11.043  0.3295  1.4591  1.3285
  126CHL1  H19C15553   8.386   8.569  11.021 -1.7061  4.1470 -0.4944
  126CHL1    C115554   8.464   8.413  10.809  0.2394  0.8298 -0.5470
  126CHL1   H1A15555   8.547   8.460  10.865 -1.5476  2.2692  1.0417
  126CHL1   H1B15556   8.493   8.313  10.772 -0.0866 -0.1609  1.7566
  126CHL1    C215557   8.441   8.493  10.678 -0.2307 -0.1153 -0.0731
  126CHL1   H2A15558   8.530   8.503  10.612  0.4351  1.5295  1.0004
  126CHL1   H2B15559   8.421   8.600  10.700  0.9753  0.6947 -2.5731
  126CHL1   C2015560   8.389   8.075  11.524  0.5390  0.4027 -0.2175
  126CHL1   H2015561   8.369   8.175  11.566  0.3961  0.7820 -1.1631
  126CHL1   C2115562   8.541   8.064  11.513 -0.3449 -0.0300 -0.4128
  126CHL1  H21A15563   8.579   8.086  11.615  0.1824 -1.5601 -0.2652
  126CHL1  H21B15564   8.592   8.146  11.457 -0.4274  0.4960  0.2607
  126CHL1  H21C15565   8.580   7.970  11.470 -0.5803 -0.7889  0.9761
  126CHL1   C2215566   8.350   7.968  11.632 -0.0607 -0.2944  0.4745
  126CHL1  H22A15567   8.417   7.989  11.718  1.4413 -2.4119 -0.1041
  126CHL1  H22B15568   8.243   7.987  11.657 -0.5818 -0.9210 -1.1062
  126CHL1   C2315569   8.365   7.823  11.591 -0.6628  0.9146  0.6615
  126CHL1  H23A15570   8.279   7.796  11.525 -0.1076 -0.5095  0.4834
  126CHL1  H23B15571   8.458   7.801  11.534 -0.5651 -1.0666  1.5236
  126CHL1   C2415572   8.363   7.734  11.710 -0.2666 -0.4477  0.2509
  126CHL1  H24A15573   8.469   7.739  11.741  0.4980 -1.8559 -1.8788
  126CHL1  H24B15574   8.295   7.772  11.789 -0.9129  0.8339 -0.8777
  126CHL1   C2515575   8.327   7.589  11.682 -0.5995 -0.0475  0.3154
  126CHL1   H2515576   8.222   7.593  11.645 -0.5447  2.2368  0.2730
  126CHL1   C2615577   8.417   7.520  11.576 -0.1700  0.4322  0.4987
  126CHL1  H26A15578   8.414   7.576  11.481 -2.3344 -0.5406 -0.0625
  126CHL1  H26B15579   8.516   7.516  11.627 -0.3337 -3.2435  0.7700
  126CHL1  H26C15580   8.386   7.417  11.551 -0.6137 -0.0637  2.8662
  126CHL1   C2715581   8.334   7.499  11.805  0.1436 -0.1131  0.2889
  126CHL1  H27A15582   8.435   7.501  11.850  0.0322 -0.4185  0.5613
  126CHL1  H27B15583   8.272   7.537  11.889  0.8484  2.1631 -0.1481
  126CHL1  H27C15584   8.287   7.400  11.787 -1.2910  0.3459  1.3000
  127CHL1    C315585   0.792   8.200  10.049  0.8312 -0.1594  0.5126
  127CHL1    H315586   0.727   8.284  10.081 -0.1464 -1.4326  2.0070
  127CHL1    O315587   0.808   8.205   9.911  0.0769  0.2330 -0.0949
  127CHL1   H3'15588   0.721   8.187   9.875 -0.3234 -0.4652  1.1486
  127CHL1    C415589   0.928   8.211  10.116 -0.1419  0.6701  0.3182
  127CHL1   H4A15590   0.998   8.147  10.057 -1.2833  1.0553 -1.5403
  127CHL1   H4B15591   0.967   8.315  10.107 -0.3597  0.6453 -1.2413
  127CHL1    C515592   0.930   8.169  10.263  0.0695 -1.0446  0.0007
  127CHL1    C615593   0.968   8.264  10.360 -0.1549 -0.3690 -0.3596
  127CHL1    H615594   1.000   8.361  10.321  0.4836 -0.6820 -0.6263
  127CHL1    C715595   0.984   8.237  10.506  0.5890  0.3241  0.1195
  127CHL1   H7A15596   1.086   8.269  10.536  0.8611  0.3709 -0.8172
  127CHL1   H7B15597   0.916   8.293  10.573 -1.3114 -2.5126  0.7305
  127CHL1    C815598   0.975   8.091  10.544  0.4688  0.0406  0.1643
  127CHL1    H815599   1.072   8.043  10.523  0.9531  1.6253 -1.4743
  127CHL1   C1415600   0.939   8.078  10.692 -0.2445  0.9928 -0.0145
  127CHL1   H1415601   0.838   8.124  10.698 -0.1707  0.9939  2.6212
  127CHL1   C1515602   1.048   8.139  10.784  0.3013  0.3187 -0.1034
  127CHL1  H15A15603   1.146   8.104  10.746  0.8189  0.3382  1.1788
  127CHL1  H15B15604   1.041   8.250  10.791  0.4620  0.2481  1.8276
  127CHL1   C1615605   1.024   8.068  10.918  0.2000 -0.3248  0.0092
  127CHL1  H16A15606   1.116   8.015  10.952  0.0503 -0.5931 -0.0013
  127CHL1  H16B15607   0.997   8.148  10.989  1.6442  0.7713 -0.6030
  127CHL1   C1715608   0.913   7.964  10.891 -0.2679  0.3147  0.3944
  127CHL1   H1715609   0.817   8.020  10.901 -1.1357 -0.7736 -1.2174
  127CHL1   C1315610   0.928   7.932  10.738 -0.6750 -0.1744 -0.6052
  127CHL1   C1815611   1.050   7.841  10.717 -0.3149 -0.0030  0.0715
  127CHL1  H18A15612   1.142   7.878  10.767 -0.9420  1.3469  0.2775
  127CHL1  H18B15613   1.030   7.740  10.757 -2.0720  1.1222  2.2656
  127CHL1  H18C15614   1.075   7.830  10.609 -0.5779 -0.6170  0.0766
  127CHL1   C1215615   0.800   7.877  10.667  0.0045  0.2066  1.1314
  127CHL1  H12A15616   0.801   7.767  10.682 -1.3844 -0.2983 -1.7485
  127CHL1  H12B15617   0.705   7.927  10.694 -0.0856  0.8631 -0.3105
  127CHL1   C1115618   0.819   7.885  10.515 -0.3606 -0.2554  0.3740
  127CHL1  H11A15619   0.907   7.825  10.485  1.0000  1.3829  0.8529
  127CHL1  H11B15620   0.720   7.862  10.470 -0.5580  2.2683 -0.6815
  127CHL1    C915621   0.861   8.028  10.466 -0.2111  0.3337  0.3895
  127CHL1    H915622   0.777   8.097  10.485 -0.4530 -0.2964  1.6966
  127CHL1   C1015623   0.871   8.034  10.304  0.0960  0.4900 -0.2215
  127CHL1   C1915624   0.950   7.910  10.255 -0.5453 -0.2691 -0.1023
  127CHL1  H19A15625   1.040   7.897  10.319 -1.9213 -2.7559  1.5147
  127CHL1  H19B15626   0.892   7.816  10.266  0.5241 -0.9614 -0.2037
  127CHL1  H19C15627   0.982   7.921  10.150 -1.9173  1.7650 -0.3737
  127CHL1    C115628   0.733   8.033  10.233 -0.2232  0.3595 -0.0869
  127CHL1   H1A15629   0.679   7.937  10.248 -1.2799  0.9968  0.2998
  127CHL1   H1B15630   0.661   8.101  10.284 -0.6712 -1.0117  1.2078
  127CHL1    C215631   0.730   8.067  10.082  0.1808 -0.3847 -0.4621
  127CHL1   H2A15632   0.625   8.055  10.048 -0.8934  1.8110  1.7973
  127CHL1   H2B15633   0.794   7.988  10.036  1.3022  1.1753 -1.6976
  127CHL1   C2015634   0.897   7.846  10.995 -1.1048 -0.5148  0.2905
  127CHL1   H2015635   0.974   7.768  10.978 -1.3044 -0.2172 -2.2292
  127CHL1   C2115636   0.758   7.793  10.996  0.7950  0.0626  0.2366
  127CHL1  H21A15637   0.758   7.693  11.044 -1.5891 -0.7306 -1.2669
  127CHL1  H21B15638   0.724   7.773  10.892 -1.0235  1.9520  0.3947
  127CHL1  H21C15639   0.678   7.861  11.033 -0.2284 -0.9576 -0.0499
  127CHL1   C2215640   0.922   7.894  11.139 -0.5574 -0.1370 -0.1166
  127CHL1  H22A15641   1.006   7.967  11.144 -0.7603  0.2239 -1.5756
  127CHL1  H22B15642   0.833   7.943  11.183  0.6708  2.3154 -0.1712
  127CHL1   C2315643   0.973   7.782  11.239  0.0281 -0.3174  0.2007
  127CHL1  H23A15644   0.894   7.707  11.257  1.6583 -1.8403  1.2450
  127CHL1  H23B15645   1.061   7.738  11.187  0.3264  0.4417  0.0321
  127CHL1   C2415646   1.025   7.838  11.379 -0.2804  0.1933  0.4916
  127CHL1  H24A15647   1.107   7.903  11.343 -0.5561 -0.0884 -0.6847
  127CHL1  H24B15648   0.951   7.911  11.419 -1.1848  0.2880 -1.2547
  127CHL1   C2515649   1.069   7.727  11.477 -0.0444 -0.0768  0.0765
  127CHL1   H2515650   1.096   7.779  11.572  2.3097  1.2654 -1.2101
  127CHL1   C2615651   0.959   7.631  11.515  0.4943  0.0585 -0.6222
  127CHL1  H26A15652   0.994   7.541  11.571  2.3950  0.4059 -1.1831
  127CHL1  H26B15653   0.882   7.687  11.572  1.3552 -0.8317  1.5177
  127CHL1  H26C15654   0.923   7.586  11.420 -3.5394 -0.0561  0.7899
  127CHL1   C2715655   1.191   7.648  11.425  0.7955 -0.5105 -0.3237
  127CHL1  H27A15656   1.280   7.715  11.431  1.8537 -1.8433 -0.7005
  127CHL1  H27B15657   1.208   7.564  11.495 -0.1058  1.8462  2.9742
  127CHL1  H27C15658   1.174   7.619  11.319 -2.1970  0.7334 -0.2839
  128CHL1    C315659   8.318   4.404   9.925  0.2324  0.1325 -0.1674
  128CHL1    H315660   8.211   4.383   9.948  0.4405 -0.8080 -0.0266
  128CHL1    O315661   8.327   4.454   9.787  0.1508  0.0884 -0.5579
  128CHL1   H3'15662   8.411   4.414   9.766 -0.3540 -1.2729 -0.0713
  128CHL1    C415663   8.363   4.512  10.027 -0.3720 -0.7386 -0.1027
  128CHL1   H4A15664   8.462   4.544   9.989 -0.9169 -1.1247 -1.9753
  128CHL1   H4B15665   8.292   4.595  10.009 -0.9841 -1.4136 -0.9047
  128CHL1    C515666   8.357   4.451  10.167  0.0144  0.4970  0.1787
  128CHL1    C615667   8.279   4.502  10.264 -0.8398  0.1592 -0.6821
  128CHL1    H615668   8.219   4.591  10.242 -1.4049 -0.2610 -0.8706
  128CHL1    C715669   8.252   4.448  10.403  0.3907 -0.1586  0.1953
  128CHL1   H7A15670   8.259   4.538  10.467  0.3220  1.6941 -2.2815
  128CHL1   H7B15671   8.145   4.421  10.414  0.2540 -0.1583 -0.9573
  128CHL1    C815672   8.356   4.344  10.437  1.6539 -0.4390 -0.7576
  128CHL1    H815673   8.450   4.394  10.469  0.2903  2.3630 -0.8205
  128CHL1   C1415674   8.303   4.259  10.553 -0.3294  0.4615 -0.4675
  128CHL1   H1415675   8.214   4.202  10.517 -0.4171 -0.2557  0.7971
  128CHL1   C1515676   8.233   4.320  10.674 -0.2667 -0.2526  0.0938
  128CHL1  H15A15677   8.295   4.405  10.709  0.8811 -0.2439 -1.8634
  128CHL1  H15B15678   8.135   4.370  10.655  1.4954  3.1593 -0.9325
  128CHL1   C1615679   8.222   4.203  10.777 -0.3451 -0.8312 -0.1302
  128CHL1  H16A15680   8.263   4.237  10.875 -0.8997 -1.7100  0.4197
  128CHL1  H16B15681   8.112   4.190  10.789 -0.2355  0.3204  3.2055
  128CHL1   C1715682   8.305   4.081  10.722  0.6335  0.2321  0.3107
  128CHL1   H1715683   8.230   4.018  10.670 -0.1269  2.3534 -1.3229
  128CHL1   C1315684   8.401   4.146  10.615 -0.0488 -0.4971  0.5803
  128CHL1   C1815685   8.520   4.213  10.688  0.1878  0.4172 -0.4681
  128CHL1  H18A15686   8.593   4.130  10.702  1.9552  1.5043 -2.4607
  128CHL1  H18B15687   8.551   4.290  10.613 -4.3957 -0.0739 -3.2700
  128CHL1  H18C15688   8.492   4.260  10.784  1.0764  2.2204 -1.0322
  128CHL1   C1215689   8.455   4.057  10.501 -0.6055  0.6563  0.5080
  128CHL1  H12A15690   8.544   3.996  10.524 -0.7079  0.7348  1.1532
  128CHL1  H12B15691   8.376   3.985  10.472  0.3535 -0.6936  1.1537
  128CHL1   C1115692   8.500   4.142  10.374  0.5943 -0.1775 -0.1950
  128CHL1  H11A15693   8.600   4.173  10.409  0.8609 -2.0529  0.8793
  128CHL1  H11B15694   8.513   4.072  10.289 -0.8594  2.2146 -2.5207
  128CHL1    C915695   8.398   4.248  10.321 -0.1322 -0.8433  0.5805
  128CHL1    H915696   8.304   4.192  10.302  0.1146 -0.6435 -1.4369
  128CHL1   C1015697   8.432   4.318  10.187 -0.1453  0.8301 -0.7222
  128CHL1   C1915698   8.584   4.332  10.182  0.3912  0.1476  0.0920
  128CHL1  H19A15699   8.604   4.380  10.084  0.9698  2.0783  1.0853
  128CHL1  H19B15700   8.611   4.399  10.267 -0.5861 -0.5288  0.9707
  128CHL1  H19C15701   8.632   4.232  10.186 -1.6647 -0.8610  1.8746
  128CHL1    C115702   8.386   4.222  10.074 -0.4980 -0.3300 -0.1167
  128CHL1   H1A15703   8.454   4.136  10.094 -1.3367 -0.6428  1.5562
  128CHL1   H1B15704   8.282   4.186  10.084 -0.5670  0.1022  0.8391
  128CHL1    C215705   8.401   4.279   9.933  0.6294  0.2123  0.0556
  128CHL1   H2A15706   8.372   4.208   9.853 -2.2081  1.6212 -0.3009
  128CHL1   H2B15707   8.504   4.315   9.910  1.0164 -0.8334  0.1110
  128CHL1   C2015708   8.380   3.996  10.828 -0.3497  0.0318  0.2354
  128CHL1   H2015709   8.445   4.061  10.890  1.8285 -0.2539 -1.6107
  128CHL1   C2115710   8.470   3.890  10.760  0.0046  0.8583 -0.3223
  128CHL1  H21A15711   8.438   3.859  10.658  0.6939  2.3245 -1.0107
  128CHL1  H21B15712   8.472   3.801  10.827  0.6851  0.1557 -1.2482
  128CHL1  H21C15713   8.575   3.925  10.756  0.4381 -0.3459  0.2901
  128CHL1   C2215714   8.271   3.939  10.918  0.2679  0.0706 -0.6832
  128CHL1  H22A15715   8.199   4.016  10.954  1.6545 -1.5518  7.5189
  128CHL1  H22B15716   8.211   3.861  10.866 -0.5114 -2.8314  3.9450
  128CHL1   C2315717   8.319   3.902  11.060 -0.1863  0.0316  0.3957
  128CHL1  H23A15718   8.251   3.822  11.096  0.2132 -0.6790 -0.3925
  128CHL1  H23B15719   8.417   3.849  11.053 -0.9442 -1.3401 -0.2098
  128CHL1   C2415720   8.322   4.025  11.155 -0.1423  0.3341 -0.9132
  128CHL1  H24A15721   8.362   4.116  11.106 -0.0158  0.8564  0.1293
  128CHL1  H24B15722   8.213   4.043  11.169 -0.4663 -2.2713  0.8054
  128CHL1   C2515723   8.383   3.993  11.295 -0.2961 -0.0978  0.0172
  128CHL1   H2515724   8.491   3.991  11.267 -0.2427 -1.4879  0.2628
  128CHL1   C2615725   8.368   4.102  11.397 -0.1345 -0.1087 -0.5876
  128CHL1  H26A15726   8.445   4.080  11.473  0.0585 -0.7120 -0.9547
  128CHL1  H26B15727   8.393   4.196  11.342  0.9148  0.3698  0.6461
  128CHL1  H26C15728   8.267   4.106  11.443 -0.4873 -2.1283 -1.0724
  128CHL1   C2715729   8.353   3.850  11.356 -0.6903 -0.4500 -0.1479
  128CHL1  H27A15730   8.404   3.772  11.296 -0.5568  0.8290 -1.7610
  128CHL1  H27B15731   8.377   3.850  11.464 -0.8180 -2.6201 -0.0600
  128CHL1  H27C15732   8.245   3.828  11.343 -0.2531 -1.7502 -2.0964
  129CHL1    C315733   5.121   8.084  10.470  0.0018 -0.1068  0.0980
  129CHL1    H315734   5.011   8.088  10.478 -0.2661  2.5351 -2.8710
  129CHL1    O315735   5.176   8.093  10.338 -0.4998  0.0175  0.7358
  129CHL1   H3'15736   5.271   8.088  10.351 -0.0615  1.8355 -1.2844
  129CHL1    C415737   5.172   8.215  10.537 -0.8523  0.2596  0.1022
  129CHL1   H4A15738   5.278   8.234  10.512 -1.4494  1.1677 -1.9551
  129CHL1   H4B15739   5.118   8.295  10.482  1.9289  1.7652 -0.5898
  129CHL1    C515740   5.144   8.217  10.683  0.4954  0.0700 -0.0041
  129CHL1    C615741   5.065   8.319  10.736 -0.1918  0.0685  0.7055
  129CHL1    H615742   5.019   8.389  10.664  1.0266 -1.8873 -2.1894
  129CHL1    C715743   5.038   8.340  10.888 -0.0815 -0.2004  0.7097
  129CHL1   H7A15744   5.067   8.443  10.919  0.6287 -0.1080 -0.2252
  129CHL1   H7B15745   4.930   8.323  10.907  0.0896 -1.2419  0.8048
  129CHL1    C815746   5.133   8.251  10.971 -0.4457 -0.6064  0.5326
  129CHL1    H815747   5.232   8.302  10.976 -0.7556 -0.0855  3.4694
  129CHL1   C1415748   5.076   8.242  11.115 -0.1044  0.4678  0.3226
  129CHL1   H1415749   4.980   8.186  11.118  1.1399 -1.8125 -0.1594
  129CHL1   C1515750   5.054   8.369  11.189 -0.4123  0.5105 -0.0695
  129CHL1  H15A15751   5.131   8.450  11.188  1.1998 -0.9588  0.3784
  129CHL1  H15B15752   4.956   8.420  11.175 -0.0121  1.6401  0.9785
  129CHL1   C1615753   5.047   8.315  11.337 -0.2436  0.1211  0.3311
  129CHL1  H16A15754   5.132   8.367  11.387  0.2083  1.3594 -1.5699
  129CHL1  H16B15755   4.948   8.347  11.374 -1.2359 -1.8419 -0.4906
  129CHL1   C1715756   5.069   8.163  11.344  0.0367  0.4225  0.4169
  129CHL1   H1715757   4.969   8.117  11.329  0.1821 -0.2247  1.3767
  129CHL1   C1315758   5.151   8.145  11.206  0.3270  1.0288  0.3931
  129CHL1   C1815759   5.301   8.185  11.217 -0.5915  0.1178  0.8876
  129CHL1  H18A15760   5.351   8.174  11.118 -1.5651  2.1220  0.1266
  129CHL1  H18B15761   5.315   8.293  11.242 -0.8236 -0.1834  2.4257
  129CHL1  H18C15762   5.345   8.121  11.296 -0.8619 -2.4690 -0.9358
  129CHL1   C1215763   5.126   8.006  11.141  0.4865  0.6614  0.0534
  129CHL1  H12A15764   5.181   7.938  11.209 -0.0882 -0.0995 -0.2248
  129CHL1  H12B15765   5.018   7.980  11.136  0.6901  0.0289 -1.3701
  129CHL1   C1115766   5.191   7.998  11.008  0.2783  0.1082  0.5190
  129CHL1  H11A15767   5.301   8.014  11.012  0.1980  1.2196 -0.8468
  129CHL1  H11B15768   5.162   7.897  10.972 -0.7371  0.6178 -0.1620
  129CHL1    C915769   5.136   8.108  10.910  0.2781  0.4769  0.5766
  129CHL1    H915770   5.032   8.073  10.897  1.2463 -2.8887  1.0241
  129CHL1   C1015771   5.195   8.097  10.766 -0.3523 -0.9890  0.8798
  129CHL1   C1915772   5.349   8.103  10.767  0.3383  0.2425 -0.4421
  129CHL1  H19A15773   5.397   8.012  10.809  0.4718 -0.5341 -2.2031
  129CHL1  H19B15774   5.388   8.107  10.664 -1.0338  0.4941 -0.9730
  129CHL1  H19C15775   5.379   8.183  10.838 -2.5989  1.0605  0.0326
  129CHL1    C115776   5.149   7.962  10.695  0.7317 -0.3607 -0.2571
  129CHL1   H1A15777   5.194   7.873  10.744  0.7005 -0.2698 -0.0598
  129CHL1   H1B15778   5.038   7.964  10.707  0.7568  2.6439  0.3705
  129CHL1    C215779   5.184   7.962  10.545  0.8768 -0.4295  0.1682
  129CHL1   H2A15780   5.147   7.871  10.493 -0.8380  0.2060  0.2207
  129CHL1   H2B15781   5.295   7.956  10.545  0.8778 -0.4896  0.5841
  129CHL1   C2015782   5.125   8.109  11.479  0.1335 -0.4938 -0.2606
  129CHL1   H2015783   5.232   8.132  11.494  1.2783 -4.4094 -1.1015
  129CHL1   C2115784   5.126   7.952  11.486 -1.3949 -0.2263 -0.1728
  129CHL1  H21A15785   5.044   7.906  11.428  0.3162 -1.4892 -1.7172
  129CHL1  H21B15786   5.119   7.909  11.588 -3.1898  2.3856  0.9098
  129CHL1  H21C15787   5.213   7.916  11.428 -2.4777 -2.7710 -0.3139
  129CHL1   C2215788   5.044   8.171  11.600 -0.1392 -0.5585 -0.5631
  129CHL1  H22A15789   5.085   8.131  11.696 -1.1171 -0.5440 -0.1281
  129CHL1  H22B15790   5.068   8.279  11.590 -1.2815  0.0090  2.0758
  129CHL1   C2315791   4.891   8.148  11.597 -0.2123  0.3115 -0.1124
  129CHL1  H23A15792   4.854   8.211  11.513 -0.5517 -0.5259 -0.5989
  129CHL1  H23B15793   4.871   8.045  11.563  2.1112 -0.4686  0.6997
  129CHL1   C2415794   4.825   8.191  11.725 -1.5346 -0.5856  0.6891
  129CHL1  H24A15795   4.875   8.132  11.805 -1.1619  0.0379  0.9282
  129CHL1  H24B15796   4.854   8.297  11.743  1.3382 -0.8401 -1.6045
  129CHL1   C2515797   4.679   8.168  11.731  0.6124  0.2149 -0.4870
  129CHL1   H2515798   4.652   8.072  11.682 -0.3223  0.3674 -0.2999
  129CHL1   C2615799   4.619   8.170  11.874  0.1055  0.2803  0.6360
  129CHL1  H26A15800   4.663   8.252  11.935  0.4169 -0.6499  1.7021
  129CHL1  H26B15801   4.510   8.189  11.883  0.1287  1.1487 -0.6621
  129CHL1  H26C15802   4.638   8.070  11.920  0.4862  0.7736  1.5784
  129CHL1   C2715803   4.609   8.282  11.656  0.0071  0.0886 -0.0078
  129CHL1  H27A15804   4.636   8.290  11.548  1.0151  0.1951  0.2444
  129CHL1  H27B15805   4.501   8.282  11.681  0.1904  0.4854  0.8127
  129CHL1  H27C15806   4.634   8.380  11.702  0.9026 -0.4031  0.5784
  130CHL1    C315807   1.286   0.017   9.859  0.2593 -0.2710 -0.0589
  130CHL1    H315808   1.388  -0.026   9.845  0.6877 -0.0069  1.8939
  130CHL1    O315809   1.230   0.013   9.726 -0.1208  0.0445  0.1266
  130CHL1   H3'15810   1.217  -0.081   9.713  0.7649 -0.3223  1.5713
  130CHL1    C415811   1.212  -0.078   9.952 -0.0966  0.9457 -0.1328
  130CHL1   H4A15812   1.108  -0.038   9.953 -0.8165 -0.8737  0.7343
  130CHL1   H4B15813   1.210  -0.180   9.909 -2.2826  0.6329  0.5983
  130CHL1    C515814   1.256  -0.075  10.101  0.1621  0.2404  0.8454
  130CHL1    C615815   1.275  -0.191  10.164 -0.1335 -0.5424  0.0422
  130CHL1    H615816   1.264  -0.292  10.121  1.2254 -0.1802 -1.2089
  130CHL1    C715817   1.330  -0.206  10.301  0.4981 -0.4108  0.3631
  130CHL1   H7A15818   1.262  -0.272  10.359 -0.5359 -0.0198 -0.3865
  130CHL1   H7B15819   1.437  -0.236  10.293  0.1503 -1.6658  0.1356
  130CHL1    C815820   1.333  -0.074  10.380  0.5256 -0.3551  0.0270
  130CHL1    H815821   1.231  -0.051  10.416  0.5345  0.4478 -0.4343
  130CHL1   C1415822   1.427  -0.090  10.493 -0.5394 -0.3182  0.0838
  130CHL1   H1415823   1.525  -0.093  10.440 -0.3436 -0.6601  0.4564
  130CHL1   C1515824   1.427  -0.208  10.591  0.0643  0.5905  0.3549
  130CHL1  H15A15825   1.325  -0.233  10.628  0.5470  0.6253  1.7758
  130CHL1  H15B15826   1.484  -0.300  10.563 -0.9088 -0.4449  1.6560
  130CHL1   C1615827   1.499  -0.152  10.719  0.6861 -0.1726  0.0923
  130CHL1  H16A15828   1.419  -0.150  10.797  0.9781 -0.9581  0.4155
  130CHL1  H16B15829   1.593  -0.204  10.748  1.9516  2.8656  1.9377
  130CHL1   C1715830   1.533  -0.006  10.689 -0.0284  0.4018 -0.3572
  130CHL1   H1715831   1.635  -0.010  10.645  0.1803 -0.4166  0.1836
  130CHL1   C1315832   1.439   0.042  10.577  0.0128 -0.0223 -0.6045
  130CHL1   C1815833   1.303   0.084  10.640  0.0160 -0.0606 -0.6503
  130CHL1  H18A15834   1.230   0.098  10.557  1.4648  1.1895 -1.7419
  130CHL1  H18B15835   1.266  -0.002  10.702  0.3354 -0.8089 -1.4786
  130CHL1  H18C15836   1.320   0.174  10.703  0.9670 -1.2097  0.8049
  130CHL1   C1215837   1.490   0.154  10.482 -0.2434  0.1939 -0.2352
  130CHL1  H12A15838   1.507   0.251  10.533 -2.2219  0.0334  0.8393
  130CHL1  H12B15839   1.584   0.115  10.439  1.7723  2.1834  2.0567
  130CHL1   C1115840   1.392   0.172  10.367 -0.5456  0.1989  0.3919
  130CHL1  H11A15841   1.296   0.206  10.411  0.8863  1.7286  2.5701
  130CHL1  H11B15842   1.435   0.242  10.292 -0.7503 -0.9231 -0.8125
  130CHL1    C915843   1.371   0.043  10.283 -0.4253 -0.1100 -0.4062
  130CHL1    H915844   1.473   0.010  10.254 -0.8967 -1.9979 -0.0817
  130CHL1   C1015845   1.283   0.066  10.159  0.9006 -0.2011  0.1109
  130CHL1   C1915846   1.150   0.132  10.203  0.4944  0.1046 -0.0814
  130CHL1  H19A15847   1.103   0.088  10.293  0.9742 -0.4142 -0.0824
  130CHL1  H19B15848   1.171   0.239  10.225 -0.4210 -0.2642  3.0657
  130CHL1  H19C15849   1.071   0.138  10.125  0.1437  2.0722  0.3721
  130CHL1    C115850   1.358   0.156  10.055 -0.7386 -0.2877  0.1249
  130CHL1   H1A15851   1.369   0.263  10.084  0.4302  0.0531 -1.4608
  130CHL1   H1B15852   1.459   0.112  10.041 -0.8917 -1.5253  2.4393
  130CHL1    C215853   1.282   0.158   9.918 -0.0478 -0.3025 -0.0227
  130CHL1   H2A15854   1.331   0.222   9.842  0.4679 -0.7437 -0.0598
  130CHL1   H2B15855   1.181   0.205   9.927  0.2729  0.4736 -0.3881
  130CHL1   C2015856   1.546   0.082  10.818  0.1761 -0.6795  0.1316
  130CHL1   H2015857   1.444   0.087  10.860 -0.6990  0.0265 -1.9220
  130CHL1   C2115858   1.586   0.230  10.786  0.1811 -0.7380  0.4848
  130CHL1  H21A15859   1.683   0.239  10.733 -0.7429  1.3798 -0.9876
  130CHL1  H21B15860   1.598   0.285  10.882 -0.2969  1.3149 -0.5693
  130CHL1  H21C15861   1.520   0.297  10.726  1.8225  0.3870 -0.1145
  130CHL1   C2215862   1.653   0.025  10.925 -0.5175 -0.5852  0.4832
  130CHL1  H22A15863   1.633  -0.085  10.926 -0.8664 -0.5258  0.2902
  130CHL1  H22B15864   1.755   0.050  10.888  0.3077 -2.1282  1.5935
  130CHL1   C2315865   1.647   0.063  11.073  0.5383  0.0873  0.9607
  130CHL1  H23A15866   1.621   0.171  11.081  0.9834  0.1985  0.9237
  130CHL1  H23B15867   1.556   0.030  11.128  2.0320 -0.9909  2.9039
  130CHL1   C2415868   1.777   0.039  11.154 -0.2052 -0.6029 -0.3571
  130CHL1  H24A15869   1.850   0.111  11.111 -1.0248 -1.2923 -3.1432
  130CHL1  H24B15870   1.765   0.071  11.259 -1.6071  1.8117 -1.1728
  130CHL1   C2515871   1.832  -0.102  11.135 -0.7045 -0.8849  0.2095
  130CHL1   H2515872   1.867  -0.110  11.030  0.7180  3.7512  0.0946
  130CHL1   C2615873   1.951  -0.127  11.230 -0.4931 -0.6222 -0.9105
  130CHL1  H26A15874   1.998  -0.225  11.209  0.9798  0.3969 -2.7455
  130CHL1  H26B15875   2.042  -0.067  11.209 -0.1584 -1.1131 -0.8739
  130CHL1  H26C15876   1.921  -0.119  11.337  0.7556  0.3272 -0.5971
  130CHL1   C2715877   1.727  -0.211  11.170  0.3103  0.0293  0.1425
  130CHL1  H27A15878   1.636  -0.202  11.107  0.7404 -1.1843 -0.6727
  130CHL1  H27B15879   1.765  -0.310  11.138  1.0266  0.5416 -0.6340
  130CHL1  H27C15880   1.703  -0.208  11.279 -1.6748  0.5747 -0.2642
  131CHL1    C315881   0.790   7.500   9.885  0.1303 -0.3746 -0.3519
  131CHL1    H315882   0.869   7.479   9.961 -0.3455 -0.6472  0.0746
  131CHL1    O315883   0.834   7.480   9.751  0.4945  0.2113  0.0943
  131CHL1   H3'15884   0.772   7.541   9.711  1.2571 -0.3383 -2.0242
  131CHL1    C415885   0.674   7.403   9.913  0.1417  0.8439  0.0082
  131CHL1   H4A15886   0.585   7.415   9.848 -0.6788 -1.1707  0.6959
  131CHL1   H4B15887   0.722   7.306   9.891 -0.7335  0.1083  1.2300
  131CHL1    C515888   0.642   7.403  10.058  0.6347  0.2568  0.5714
  131CHL1    C615889   0.665   7.299  10.144  0.4973 -0.1446  0.7228
  131CHL1    H615890   0.713   7.205  10.114  0.3088 -0.5667  1.7035
  131CHL1    C715891   0.639   7.299  10.294  0.1217  0.2703 -0.0877
  131CHL1   H7A15892   0.593   7.202  10.323  1.6433 -1.2955 -2.6103
  131CHL1   H7B15893   0.739   7.310  10.342 -0.7062  0.0615  1.7764
  131CHL1    C815894   0.539   7.408  10.328 -0.6929 -0.1175  0.6773
  131CHL1    H815895   0.439   7.373  10.293 -0.6315  0.0501  0.3313
  131CHL1   C1415896   0.528   7.424  10.478  0.3649 -0.0832  0.3769
  131CHL1   H1415897   0.622   7.469  10.518  0.3033  0.6603 -0.2798
  131CHL1   C1515898   0.499   7.302  10.563  0.5069  0.2128  0.1031
  131CHL1  H15A15899   0.409   7.255  10.518 -0.0840  0.7824  0.6611
  131CHL1  H15B15900   0.586   7.233  10.571  0.3837  0.0528  0.0615
  131CHL1   C1615901   0.456   7.362  10.697  0.3450  0.4366 -0.3873
  131CHL1  H16A15902   0.365   7.306  10.727  0.5966  1.7210  3.1688
  131CHL1  H16B15903   0.534   7.342  10.774 -1.1826  1.0646  1.3778
  131CHL1   C1715904   0.435   7.516  10.673  0.2996  0.5043  0.1632
  131CHL1   H1715905   0.539   7.551  10.692  0.4478  0.1263  0.0535
  131CHL1   C1315906   0.420   7.524  10.521  0.0773 -0.0971 -0.2656
  131CHL1   C1815907   0.269   7.489  10.486  0.3241  0.0701  0.4676
  131CHL1  H18A15908   0.252   7.507  10.378 -0.2034 -0.5483  0.4429
  131CHL1  H18B15909   0.238   7.385  10.511 -0.3833 -0.0202 -0.7288
  131CHL1  H18C15910   0.203   7.567  10.529  0.7763  1.0632 -0.5819
  131CHL1   C1215911   0.465   7.657  10.461 -0.0365 -0.7723  0.2074
  131CHL1  H12A15912   0.401   7.741  10.496 -0.0533 -0.0244 -1.5169
  131CHL1  H12B15913   0.561   7.691  10.505 -0.9954  2.4525  0.0764
  131CHL1   C1115914   0.482   7.666  10.309  0.0301  0.0262 -0.3704
  131CHL1  H11A15915   0.380   7.649  10.268  0.4093  0.4631 -1.5548
  131CHL1  H11B15916   0.516   7.767  10.276 -1.2222  0.6675  0.2474
  131CHL1    C915917   0.569   7.545  10.261  0.7064  0.6124 -0.3252
  131CHL1    H915918   0.666   7.568  10.310 -0.4093  0.3196  2.2106
  131CHL1   C1015919   0.586   7.535  10.108 -0.1703 -0.7715 -0.5925
  131CHL1   C1915920   0.446   7.564  10.040  0.6725 -0.3248  1.0050
  131CHL1  H19A15921   0.449   7.555   9.930 -0.1525  1.4269  0.8084
  131CHL1  H19B15922   0.372   7.486  10.068 -0.2576 -0.3900 -1.4649
  131CHL1  H19C15923   0.406   7.667  10.053  0.7551  0.0735 -1.5475
  131CHL1    C115924   0.686   7.649  10.064  0.6993  0.1266  0.0844
  131CHL1   H1A15925   0.628   7.744  10.072  0.3290 -0.1650  0.9103
  131CHL1   H1B15926   0.779   7.654  10.124 -1.2263  0.2771  3.2747
  131CHL1    C215927   0.731   7.640   9.910  0.1227 -0.5362 -0.1303
  131CHL1   H2A15928   0.791   7.730   9.885  1.1914 -1.2741 -0.2656
  131CHL1   H2B15929   0.640   7.651   9.847  1.2725  0.5947 -1.6544
  131CHL1   C2015930   0.346   7.600  10.764 -0.6319 -0.5961  0.7790
  131CHL1   H2015931   0.320   7.692  10.707 -2.0029 -0.7667  1.0819
  131CHL1   C2115932   0.438   7.652  10.872 -0.4094 -0.7574 -0.0205
  131CHL1  H21A15933   0.394   7.723  10.946  0.9925 -2.5091  2.6738
  131CHL1  H21B15934   0.517   7.707  10.817 -0.5719 -1.9458 -1.4880
  131CHL1  H21C15935   0.480   7.568  10.932 -1.6695  0.3833  2.6685
  131CHL1   C2215936   0.213   7.545  10.808  0.4932  0.2819 -0.4636
  131CHL1  H22A15937   0.141   7.522  10.727  1.5338 -3.1998 -0.5782
  131CHL1  H22B15938   0.231   7.442  10.846 -1.3456  0.1889  0.2949
  131CHL1   C2315939   0.134   7.631  10.904  0.1818  0.1663  0.2624
  131CHL1  H23A15940   0.193   7.665  10.992  1.5094 -1.9044  0.2505
  131CHL1  H23B15941   0.106   7.721  10.845  0.1418  0.5063  0.7991
  131CHL1   C2415942   0.001   7.573  10.946 -0.0893 -0.1485 -0.8125
  131CHL1  H24A15943  -0.051   7.562  10.848  0.2757  1.0369 -1.1555
  131CHL1  H24B15944   0.017   7.471  10.988  0.3655  0.4555  0.5140
  131CHL1   C2515945  -0.083   7.653  11.054 -0.0899 -0.1114  1.0445
  131CHL1   H2515946  -0.175   7.593  11.071 -0.1969  0.3036  1.9812
  131CHL1   C2615947  -0.004   7.661  11.181 -0.3194 -0.2043 -0.2002
  131CHL1  H26A15948   0.087   7.722  11.162 -0.5136  0.3489  0.5934
  131CHL1  H26B15949  -0.060   7.725  11.253  2.0260  1.0514  0.6395
  131CHL1  H26C15950   0.025   7.565  11.229 -0.9863 -1.2307 -1.7971
  131CHL1   C2715951  -0.128   7.790  10.999  0.6887 -0.6385  0.1500
  131CHL1  H27A15952  -0.148   7.787  10.890 -2.5826 -0.4901  0.6531
  131CHL1  H27B15953  -0.210   7.827  11.064  0.7601 -4.1197  2.4604
  131CHL1  H27C15954  -0.051   7.868  11.018  0.2716 -0.7230  2.6379
  132CHL1    C315955   2.792   0.846  10.040  0.0307  0.1533 -1.2258
  132CHL1    H315956   2.873   0.782  10.081  0.3649  2.3998  2.0170
  132CHL1    O315957   2.825   0.897   9.918 -0.4568  0.5515  0.3039
  132CHL1   H3'15958   2.743   0.934   9.883  1.0871  1.7586 -2.3966
  132CHL1    C415959   2.671   0.748  10.017 -0.3633  0.6103  0.0545
  132CHL1   H4A15960   2.592   0.810   9.972 -1.7378 -1.1809 -0.1193
  132CHL1   H4B15961   2.705   0.666   9.950 -2.0711 -1.8803  2.0271
  132CHL1    C515962   2.621   0.691  10.151  0.0213  0.5830 -0.0031
  132CHL1    C615963   2.617   0.556  10.172  0.2845  0.0085  0.6497
  132CHL1    H615964   2.646   0.491  10.088  3.2594  1.2337  0.6141
  132CHL1    C715965   2.552   0.492  10.291 -0.5703 -0.1203 -0.1429
  132CHL1   H7A15966   2.486   0.404  10.275  2.5227 -2.4056 -1.6004
  132CHL1   H7B15967   2.634   0.460  10.359 -1.0247 -0.7585  0.1162
  132CHL1    C815968   2.476   0.602  10.370  0.2159  0.2403 -0.4160
  132CHL1    H815969   2.383   0.619  10.313 -0.9287 -0.3063  1.2135
  132CHL1   C1415970   2.435   0.553  10.506  0.4172  0.7606  0.5581
  132CHL1   H1415971   2.528   0.518  10.555 -0.3272  0.0947  1.5696
  132CHL1   C1515972   2.343   0.421  10.508  0.9005 -0.1552  0.3445
  132CHL1  H15A15973   2.266   0.408  10.429 -0.8322 -0.8011  2.0686
  132CHL1  H15B15974   2.423   0.347  10.486  1.1876  0.1104  0.4752
  132CHL1   C1615975   2.290   0.411  10.653 -0.4836  0.3074  0.4008
  132CHL1  H16A15976   2.180   0.401  10.641 -0.3267 -0.3576 -0.5612
  132CHL1  H16B15977   2.328   0.322  10.709 -2.5967 -0.6642  0.4011
  132CHL1   C1715978   2.348   0.536  10.727 -0.0266 -0.0782 -0.3214
  132CHL1   H1715979   2.448   0.515  10.769 -0.0123 -0.7514 -0.6706
  132CHL1   C1315980   2.374   0.642  10.615  0.7377 -0.8250  0.1088
  132CHL1   C1815981   2.236   0.704  10.569  0.1225  0.5654  0.1889
  132CHL1  H18A15982   2.158   0.626  10.574 -0.0657  0.7663  4.8914
  132CHL1  H18B15983   2.211   0.784  10.641  2.2443 -0.1375  1.8293
  132CHL1  H18C15984   2.240   0.758  10.472  1.1781  0.2337  0.0329
  132CHL1   C1215985   2.479   0.754  10.647  0.7160 -0.2250 -0.2740
  132CHL1  H12A15986   2.436   0.838  10.705 -0.4287  0.0817 -1.5212
  132CHL1  H12B15987   2.572   0.715  10.694 -1.3900 -2.8199  2.0636
  132CHL1   C1115988   2.521   0.819  10.513  0.1663 -0.8937  0.0062
  132CHL1  H11A15989   2.434   0.883  10.485  0.2482 -0.2746  1.1050
  132CHL1  H11B15990   2.608   0.883  10.539 -1.4345  1.9828 -1.2610
  132CHL1    C915991   2.565   0.721  10.395 -0.0080  0.7980 -0.1492
  132CHL1    H915992   2.660   0.673  10.427  0.2173 -0.2694 -2.2486
  132CHL1   C1015993   2.582   0.791  10.266 -0.1962  0.2953  0.6892
  132CHL1   C1915994   2.450   0.868  10.228  0.1462 -0.3406  0.1787
  132CHL1  H19A15995   2.445   0.874  10.117 -0.7901  1.7427  0.2862
  132CHL1  H19B15996   2.355   0.810  10.232  0.4639 -1.1743 -2.4588
  132CHL1  H19C15997   2.441   0.969  10.272 -3.3141 -1.1533  1.6872
  132CHL1    C115998   2.695   0.897  10.280 -0.0575  0.1753 -0.3818
  132CHL1   H1A15999   2.662   0.975  10.352 -2.9844 -1.6519  0.4089
  132CHL1   H1B16000   2.772   0.836  10.332  0.6788  0.0396 -1.5790
  132CHL1    C216001   2.743   0.951  10.142  0.4798 -0.0048  0.6202
  132CHL1   H2A16002   2.839   1.004  10.161  0.8260 -0.5293  0.3475
  132CHL1   H2B16003   2.664   1.012  10.093 -0.8739  0.2611  2.9685
  132CHL1   C2016004   2.267   0.588  10.850  0.6827  0.2348  0.0658
  132CHL1   H2016005   2.276   0.698  10.858  0.6955  0.2020  0.5196
  132CHL1   C2116006   2.322   0.515  10.974 -0.7471  0.3835 -0.1150
  132CHL1  H21A16007   2.285   0.411  10.986  1.4417 -0.3155  1.2769
  132CHL1  H21B16008   2.305   0.572  11.069  0.2418 -0.8085  0.8058
  132CHL1  H21C16009   2.432   0.503  10.970 -0.6757  1.0780 -0.3713
  132CHL1   C2216010   2.111   0.548  10.857  0.4605 -0.3265  0.2290
  132CHL1  H22A16011   2.056   0.594  10.772 -2.0498 -3.5385 -0.0459
  132CHL1  H22B16012   2.098   0.439  10.846 -1.8393 -0.0896  0.2121
  132CHL1   C2316013   2.036   0.583  10.985 -0.4873 -0.2773 -0.4737
  132CHL1  H23A16014   2.090   0.542  11.072 -0.9138  0.6778  0.2631
  132CHL1  H23B16015   2.025   0.694  10.991 -1.0748 -0.2587 -1.5454
  132CHL1   C2416016   1.892   0.548  10.982 -0.0824  0.0352  0.4394
  132CHL1  H24A16017   1.849   0.587  10.888 -1.0012  1.5642  1.4508
  132CHL1  H24B16018   1.879   0.438  10.992  2.9185 -0.2544  2.7013
  132CHL1   C2516019   1.814   0.602  11.110 -0.1302  0.6829 -0.3133
  132CHL1   H2516020   1.814   0.713  11.111 -2.9974  0.7709  1.1774
  132CHL1   C2616021   1.669   0.565  11.097  1.1076 -0.3145 -0.0956
  132CHL1  H26A16022   1.625   0.587  10.998 -1.2847 -0.3983  0.8693
  132CHL1  H26B16023   1.658   0.455  11.111 -2.3083 -0.1507 -0.5114
  132CHL1  H26C16024   1.610   0.617  11.176 -2.8261  0.8731 -3.4819
  132CHL1   C2716025   1.864   0.542  11.245  0.1801 -0.4823  0.2483
  132CHL1  H27A16026   1.968   0.575  11.265 -0.3225  0.0155  2.2483
  132CHL1  H27B16027   1.795   0.563  11.329 -1.3199 -2.2815 -0.4664
  132CHL1  H27C16028   1.873   0.432  11.234  0.4240 -0.3702 -0.7623
  133CHL1    C316029   7.376   3.147  10.302  0.2140  0.3732  0.7240
  133CHL1    H316030   7.322   3.053  10.327  0.7765  0.0616  0.7828
  133CHL1    O316031   7.390   3.161  10.163  0.3509 -0.0230  0.6078
  133CHL1   H3'16032   7.474   3.203  10.144 -0.0086  0.5958  0.3716
  133CHL1    C416033   7.292   3.269  10.349 -0.0317  0.4884 -0.8712
  133CHL1   H4A16034   7.341   3.357  10.302 -0.4771  2.2853  1.8524
  133CHL1   H4B16035   7.190   3.245  10.312 -0.2008 -1.3640  0.6258
  133CHL1    C516036   7.290   3.273  10.504 -0.2812  0.1385  0.0729
  133CHL1    C616037   7.173   3.267  10.563  0.1034  0.1366 -0.2237
  133CHL1    H616038   7.082   3.266  10.501 -0.8369  1.2443  1.0822
  133CHL1    C716039   7.162   3.288  10.710  0.2178  0.2113 -0.2883
  133CHL1   H7A16040   7.103   3.381  10.728  0.2540  0.2527 -0.3805
  133CHL1   H7B16041   7.113   3.200  10.756 -1.9492  2.2295  1.5750
  133CHL1    C816042   7.295   3.321  10.786  0.4172  0.3296  0.2945
  133CHL1    H816043   7.306   3.431  10.791  2.7649  0.0775  2.4389
  133CHL1   C1416044   7.284   3.285  10.934  1.2291 -0.4905 -0.6190
  133CHL1   H1416045   7.278   3.174  10.932 -1.3241 -0.4007 -0.3959
  133CHL1   C1516046   7.163   3.332  11.021  0.0028 -0.2146  0.3411
  133CHL1  H15A16047   7.170   3.442  11.008 -0.9860 -0.3091 -1.2319
  133CHL1  H15B16048   7.067   3.285  10.989 -0.9042  0.9177  1.2813
  133CHL1   C1616049   7.207   3.302  11.160 -0.2739 -0.0778 -0.5743
  133CHL1  H16A16050   7.204   3.393  11.222  0.8600 -0.4189 -0.0037
  133CHL1  H16B16051   7.147   3.220  11.207  0.8116 -1.5725 -1.6821
  133CHL1   C1716052   7.363   3.257  11.163 -0.0558 -1.1124  0.4076
  133CHL1   H1716053   7.370   3.146  11.165 -0.6507 -1.1533  0.4470
  133CHL1   C1316054   7.409   3.312  11.017 -0.4391 -0.0661 -0.3733
  133CHL1   C1816055   7.434   3.466  11.031  0.2579  0.3356 -0.0124
  133CHL1  H18A16056   7.360   3.530  11.082  0.6389  0.1583  0.7814
  133CHL1  H18B16057   7.529   3.481  11.087 -0.3182 -1.2554  1.4775
  133CHL1  H18C16058   7.442   3.508  10.929 -0.0659 -1.3171 -0.7553
  133CHL1   C1216059   7.538   3.244  10.949  0.0163 -0.1952  0.1695
  133CHL1  H12A16060   7.631   3.262  11.008  1.4605  1.4562 -2.4132
  133CHL1  H12B16061   7.514   3.137  10.961 -0.5978  0.2197  4.3707
  133CHL1   C1116062   7.549   3.296  10.802  0.8235  0.6851 -0.5895
  133CHL1  H11A16063   7.564   3.406  10.800 -2.1784  1.2092  0.6617
  133CHL1  H11B16064   7.628   3.231  10.758 -0.5248 -1.5165  0.0590
  133CHL1    C916065   7.423   3.257  10.724  0.0198  0.1720  0.0779
  133CHL1    H916066   7.398   3.152  10.749 -3.2192  1.1234  1.2781
  133CHL1   C1016067   7.429   3.266  10.568  0.6202  0.1864 -0.5972
  133CHL1   C1916068   7.496   3.402  10.531  0.4978 -0.0231 -0.2006
  133CHL1  H19A16069   7.487   3.432  10.424 -0.8708 -1.6369 -0.5834
  133CHL1  H19B16070   7.460   3.483  10.598  2.8820  0.7966  0.1816
  133CHL1  H19C16071   7.605   3.392  10.549  0.7818  0.2758 -1.6416
  133CHL1    C116072   7.518   3.146  10.511 -0.2300  0.7128  0.8482
  133CHL1   H1A16073   7.623   3.163  10.542 -0.9265  1.9942  2.6308
  133CHL1   H1B16074   7.485   3.048  10.550  0.5657 -0.3031 -0.8988
  133CHL1    C216075   7.520   3.140  10.360  0.8115  0.5491  0.4994
  133CHL1   H2A16076   7.581   3.049  10.339  0.1071 -0.4088  2.3764
  133CHL1   H2B16077   7.580   3.226  10.323  1.5303  0.9801  2.5577
  133CHL1   C2016078   7.441   3.312  11.287  0.5426  0.2276  0.7894
  133CHL1   H2016079   7.446   3.423  11.285 -0.8202  0.3089 -0.5246
  133CHL1   C2116080   7.585   3.261  11.291 -0.3078 -0.2631 -0.0600
  133CHL1  H21A16081   7.634   3.308  11.203  0.6655  0.7700  0.9879
  133CHL1  H21B16082   7.584   3.151  11.279 -0.5199 -0.2642 -0.0432
  133CHL1  H21C16083   7.631   3.299  11.385  1.4689 -0.0590 -0.9847
  133CHL1   C2216084   7.366   3.275  11.413  0.4406 -0.1041 -0.4756
  133CHL1  H22A16085   7.285   3.352  11.420  2.3315  1.8848  0.9232
  133CHL1  H22B16086   7.327   3.173  11.391  2.3287 -0.6676 -1.3695
  133CHL1   C2316087   7.434   3.268  11.552  0.6249  0.0781  0.3562
  133CHL1  H23A16088   7.488   3.171  11.542 -0.9013 -0.7745 -0.0686
  133CHL1  H23B16089   7.501   3.355  11.564  0.2220  0.4117  0.2166
  133CHL1   C2416090   7.334   3.251  11.666  0.1983  0.1056  0.1954
  133CHL1  H24A16091   7.255   3.329  11.665 -2.3085 -2.2494  1.4342
  133CHL1  H24B16092   7.281   3.155  11.653 -0.7176  0.3208  2.0049
  133CHL1   C2516093   7.405   3.244  11.804  0.8134 -0.4465 -0.2906
  133CHL1   H2516094   7.491   3.175  11.793  0.9802 -0.6093  1.6246
  133CHL1   C2616095   7.460   3.383  11.843  0.5660 -0.5871 -0.5384
  133CHL1  H26A16096   7.516   3.379  11.939 -0.4353 -4.1609  0.0830
  133CHL1  H26B16097   7.518   3.417  11.755  0.2130 -1.4703 -1.1206
  133CHL1  H26C16098   7.372   3.448  11.863  0.0074 -1.7754  1.1415
  133CHL1   C2716099   7.316   3.183  11.922 -0.3166 -0.7236 -0.3265
  133CHL1  H27A16100   7.238   3.253  11.958  1.4397  0.7848  0.7870
  133CHL1  H27B16101   7.272   3.089  11.884 -1.0988  0.0505 -1.3813
  133CHL1  H27C16102   7.381   3.171  12.012 -0.9176  0.9028  0.3651
  134CHL1    C316103   5.529   5.100  10.760  0.1200 -0.6898  0.6442
  134CHL1    H316104   5.547   5.003  10.810  0.9126 -0.0954  1.5490
  134CHL1    O316105   5.605   5.102  10.638  0.1815  0.2329 -0.2874
  134CHL1   H3'16106   5.697   5.113  10.663  0.1652 -1.4883  0.6613
  134CHL1    C416107   5.384   5.117  10.716 -0.6333  0.2692 -0.0163
  134CHL1   H4A16108   5.370   5.199  10.643 -2.4190  1.2567  1.3319
  134CHL1   H4B16109   5.351   5.030  10.656  2.7581 -1.7683  0.8078
  134CHL1    C516110   5.287   5.135  10.837 -0.3781  0.3176  0.0796
  134CHL1    C616111   5.177   5.056  10.854  0.2898 -0.6536  0.5209
  134CHL1    H616112   5.151   4.973  10.787 -1.4608  1.1992 -1.2563
  134CHL1    C716113   5.077   5.065  10.972 -0.4412  0.3870  0.3883
  134CHL1   H7A16114   4.976   5.065  10.927  0.4109  1.2327 -1.6482
  134CHL1   H7B16115   5.076   4.978  11.041 -3.3878 -1.9129 -2.2679
  134CHL1    C816116   5.097   5.190  11.056  0.2817 -0.1903  0.6116
  134CHL1    H816117   5.061   5.276  10.994  0.1915  1.6437  3.0252
  134CHL1   C1416118   5.013   5.187  11.185  1.3888  0.9170  0.8218
  134CHL1   H1416119   5.051   5.104  11.247  0.1316 -0.9817 -0.8332
  134CHL1   C1516120   4.863   5.175  11.170  0.2943 -0.1977 -0.2071
  134CHL1  H15A16121   4.827   5.229  11.079  1.5787 -3.1389 -2.6436
  134CHL1  H15B16122   4.826   5.071  11.165 -0.1051 -0.0166 -1.2034
  134CHL1   C1616123   4.810   5.236  11.305  0.3354 -0.7481  0.0634
  134CHL1  H16A16124   4.759   5.330  11.274 -0.1476 -1.6244 -2.0292
  134CHL1  H16B16125   4.737   5.171  11.359 -2.7913  4.1103  2.3709
  134CHL1   C1716126   4.931   5.274  11.383  0.1962  0.2560  0.5794
  134CHL1   H1716127   4.957   5.191  11.452  1.5212  2.1523  2.5379
  134CHL1   C1316128   5.038   5.307  11.279  0.3173 -0.0333  0.5113
  134CHL1   C1816129   5.009   5.445  11.207  0.4851  0.6004  0.3425
  134CHL1  H18A16130   5.080   5.465  11.124 -0.0695 -1.8658 -0.8243
  134CHL1  H18B16131   4.912   5.435  11.155  0.8006 -1.8737  0.1040
  134CHL1  H18C16132   5.008   5.532  11.276  2.8169  0.1182  1.0715
  134CHL1   C1216133   5.189   5.293  11.315 -0.2424 -0.4613  0.3305
  134CHL1  H12A16134   5.220   5.385  11.369  0.6749 -1.1938  1.0801
  134CHL1  H12B16135   5.194   5.209  11.388 -0.0682  0.8982  1.9415
  134CHL1   C1116136   5.287   5.304  11.198 -0.6527 -0.4094 -0.2414
  134CHL1  H11A16137   5.286   5.408  11.160 -0.8600 -0.1936  0.3323
  134CHL1  H11B16138   5.384   5.282  11.248 -0.9750  0.5429  0.8484
  134CHL1    C916139   5.248   5.206  11.085  0.5301 -0.4872 -0.0616
  134CHL1    H916140   5.275   5.108  11.129 -0.3095 -0.4191  0.6113
  134CHL1   C1016141   5.331   5.227  10.956 -0.1379 -0.1742 -0.1544
  134CHL1   C1916142   5.307   5.368  10.895  0.0969 -0.1859  0.2890
  134CHL1  H19A16143   5.354   5.387  10.796 -2.3172 -0.0299 -0.8992
  134CHL1  H19B16144   5.197   5.385  10.887 -0.4606 -2.5087  1.8640
  134CHL1  H19C16145   5.354   5.452  10.950 -0.3025  1.2589 -1.4750
  134CHL1    C116146   5.482   5.206  10.984  0.3555  0.2701 -0.5039
  134CHL1   H1A16147   5.515   5.283  11.057 -2.2774  1.3878 -0.3840
  134CHL1   H1B16148   5.501   5.110  11.036 -0.8113  0.4362  0.2699
  134CHL1    C216149   5.575   5.214  10.854 -0.3091  0.2571 -0.4054
  134CHL1   H2A16150   5.676   5.190  10.894 -0.9863  2.4379  3.0705
  134CHL1   H2B16151   5.586   5.318  10.817  2.9362 -0.3694 -1.5328
  134CHL1   C2016152   4.894   5.383  11.484 -0.1657  0.6245 -0.1595
  134CHL1   H2016153   4.877   5.479  11.430 -1.0304  0.3473 -0.3839
  134CHL1   C2116154   5.018   5.410  11.574  0.0971  0.3808 -0.5937
  134CHL1  H21A16155   5.113   5.424  11.518  1.3695 -2.4888  0.6246
  134CHL1  H21B16156   5.039   5.322  11.638 -1.0444  0.7395  0.3193
  134CHL1  H21C16157   4.998   5.497  11.639 -0.5729  0.3646 -0.7603
  134CHL1   C2216158   4.774   5.349  11.579  0.6043 -0.2374 -0.5675
  134CHL1  H22A16159   4.758   5.442  11.637 -0.4285  0.2583 -1.6033
  134CHL1  H22B16160   4.686   5.332  11.513  0.4880  2.4005 -1.1917
  134CHL1   C2316161   4.783   5.223  11.673 -0.2241  0.3162  0.9600
  134CHL1  H23A16162   4.812   5.136  11.611  1.1088  0.1054  1.8507
  134CHL1  H23B16163   4.866   5.246  11.743  0.8588  0.1238 -0.2127
  134CHL1   C2416164   4.644   5.198  11.735 -0.6846 -0.8521 -0.0881
  134CHL1  H24A16165   4.568   5.182  11.655 -2.7561  0.7067  1.4312
  134CHL1  H24B16166   4.643   5.103  11.792 -1.5734 -0.3769  0.7304
  134CHL1   C2516167   4.583   5.299  11.836 -0.3143  0.0079  0.8912
  134CHL1   H2516168   4.569   5.396  11.784 -1.2486  0.1719  1.4252
  134CHL1   C2616169   4.439   5.265  11.882 -0.1096  0.1025  0.3428
  134CHL1  H26A16170   4.434   5.173  11.945  2.0928 -0.9487 -0.8907
  134CHL1  H26B16171   4.399   5.348  11.944  1.5346 -0.7386  2.7083
  134CHL1  H26C16172   4.367   5.248  11.799 -0.2652  1.4431  0.1824
  134CHL1   C2716173   4.669   5.318  11.961  0.1211 -0.7603  0.9424
  134CHL1  H27A16174   4.618   5.360  12.050 -1.5657 -4.1808  1.7422
  134CHL1  H27B16175   4.695   5.218  12.002 -1.6577 -0.2814  3.4403
  134CHL1  H27C16176   4.758   5.382  11.940  1.9305 -3.2056  0.6975
  135CHL1    C316177   3.815   5.292  10.161  0.3105 -0.4248  0.6516
  135CHL1    H316178   3.705   5.296  10.177  0.1531  1.2183 -0.5190
  135CHL1    O316179   3.838   5.200  10.059  0.1616  0.3422  0.1351
  135CHL1   H3'16180   3.923   5.234  10.031  1.4765 -0.8435  2.3691
  135CHL1    C416181   3.861   5.433  10.122 -0.9558  0.4102 -0.4608
  135CHL1   H4A16182   3.971   5.419  10.108 -1.0193  0.7326 -1.3613
  135CHL1   H4B16183   3.815   5.456  10.023 -0.8438 -0.9708 -0.8481
  135CHL1    C516184   3.828   5.537  10.217  1.0948  0.0827 -0.2647
  135CHL1    C616185   3.752   5.642  10.191  0.5741 -0.0536  0.5024
  135CHL1    H616186   3.699   5.652  10.095 -1.3077  1.3237  1.6043
  135CHL1    C716187   3.709   5.746  10.281 -0.6467 -0.3770 -0.3186
  135CHL1   H7A16188   3.732   5.843  10.233  1.5699 -1.2577 -1.1438
  135CHL1   H7B16189   3.605   5.730  10.317  0.1302 -0.7554  1.9554
  135CHL1    C816190   3.795   5.747  10.410  0.1173  0.3973  0.2837
  135CHL1    H816191   3.895   5.789  10.388 -0.2306  0.4556 -1.3321
  135CHL1   C1416192   3.722   5.826  10.512  0.5363  0.8064 -0.4482
  135CHL1   H1416193   3.627   5.770  10.530  1.3081 -0.4487 -0.1601
  135CHL1   C1516194   3.679   5.963  10.479 -0.2989 -0.2730 -0.5837
  135CHL1  H15A16195   3.765   6.019  10.435  0.6051  1.0960  2.6108
  135CHL1  H15B16196   3.594   5.966  10.407 -0.9477 -0.5117  0.1559
  135CHL1   C1616197   3.651   6.034  10.611  1.1457 -0.5129  0.0823
  135CHL1  H16A16198   3.713   6.126  10.618  0.1957  0.1471  0.0295
  135CHL1  H16B16199   3.541   6.052  10.619  1.2293  0.7554 -1.2394
  135CHL1   C1716200   3.678   5.928  10.719 -0.2476  0.6299 -0.6781
  135CHL1   H1716201   3.589   5.864  10.732 -0.2854  1.0083  1.3876
  135CHL1   C1316202   3.785   5.837  10.655  0.7265  0.7283 -0.1915
  135CHL1   C1816203   3.916   5.911  10.637  0.5683  0.2391  0.2076
  135CHL1  H18A16204   3.900   6.013  10.597 -2.7819 -0.8723 -1.6975
  135CHL1  H18B16205   3.972   5.919  10.733  1.7855 -0.0226 -0.4596
  135CHL1  H18C16206   3.988   5.872  10.562  0.1088 -1.5145  0.6251
  135CHL1   C1216207   3.797   5.692  10.703  0.6545  0.2750 -1.0188
  135CHL1  H12A16208   3.855   5.695  10.798  0.6033 -0.1818 -0.9680
  135CHL1  H12B16209   3.695   5.650  10.715  0.9244 -0.4054 -1.0677
  135CHL1   C1116210   3.883   5.611  10.602 -0.8917  0.4209  0.0347
  135CHL1  H11A16211   3.983   5.658  10.601 -2.2073  3.5018  1.3062
  135CHL1  H11B16212   3.895   5.506  10.639  0.3312  0.3904 -0.4105
  135CHL1    C916213   3.810   5.606  10.462 -0.2937  0.6053 -0.1222
  135CHL1    H916214   3.706   5.573  10.483 -0.4797  0.7738 -0.7372
  135CHL1   C1016215   3.870   5.507  10.358 -0.5314  0.5287 -0.3390
  135CHL1   C1916216   4.028   5.534  10.348  0.6542 -0.3001  0.0442
  135CHL1  H19A16217   4.038   5.643  10.327 -1.0695  0.5641  3.1072
  135CHL1  H19B16218   4.076   5.507  10.445 -2.9776 -1.8966  1.5687
  135CHL1  H19C16219   4.086   5.474  10.274  0.0890  0.5062 -1.0740
  135CHL1    C116220   3.844   5.359  10.399  0.2925  0.4235  0.1382
  135CHL1   H1A16221   3.889   5.334  10.497  0.7605 -0.4056 -0.2809
  135CHL1   H1B16222   3.733   5.355  10.411  0.1497  1.6828 -0.6051
  135CHL1    C216223   3.885   5.262  10.291  0.3565 -0.0273 -0.0532
  135CHL1   H2A16224   3.858   5.160  10.324 -0.8170 -0.0172 -0.9006
  135CHL1   H2B16225   3.995   5.264  10.278  0.4417 -0.2906  0.5914
  135CHL1   C2016226   3.705   5.994  10.857 -0.3748  0.6942 -0.1625
  135CHL1   H2016227   3.794   6.060  10.857 -0.4140  0.8079  1.7707
  135CHL1   C2116228   3.712   5.880  10.966  0.0382  0.0905  0.1027
  135CHL1  H21A16229   3.796   5.811  10.942  0.1626  0.3955 -0.3613
  135CHL1  H21B16230   3.612   5.832  10.962  0.0700  0.1350 -2.0823
  135CHL1  H21C16231   3.725   5.934  11.063  2.0235  0.1738 -0.1553
  135CHL1   C2216232   3.595   6.100  10.891 -0.7981 -0.0571  0.1607
  135CHL1  H22A16233   3.597   6.180  10.815 -1.0375  0.2641  0.4890
  135CHL1  H22B16234   3.495   6.051  10.890 -1.1601  0.6650 -0.9772
  135CHL1   C2316235   3.612   6.156  11.035 -0.0730  0.4180 -0.3731
  135CHL1  H23A16236   3.599   6.069  11.102 -2.7554 -0.9639 -2.4590
  135CHL1  H23B16237   3.713   6.201  11.047 -0.3646  1.2001 -0.7072
  135CHL1   C2416238   3.497   6.258  11.070 -0.5976 -0.2698 -0.0276
  135CHL1  H24A16239   3.533   6.339  11.003  0.6805 -2.8370 -2.6983
  135CHL1  H24B16240   3.394   6.227  11.042 -0.7293 -0.7596  0.9507
  135CHL1   C2516241   3.496   6.298  11.222  0.2018  0.5756 -0.6285
  135CHL1   H2516242   3.473   6.205  11.278 -1.0347 -0.5184 -2.7987
  135CHL1   C2616243   3.631   6.349  11.277 -0.4430 -0.0540  0.1129
  135CHL1  H26A16244   3.621   6.358  11.387 -1.4290  1.5555 -0.0768
  135CHL1  H26B16245   3.721   6.286  11.261 -0.8280 -0.9334  1.2489
  135CHL1  H26C16246   3.657   6.449  11.237 -0.2908 -0.0607  0.1958
  135CHL1   C2716247   3.390   6.414  11.242 -0.2189  0.0125  1.2010
  135CHL1  H27A16248   3.432   6.508  11.198  1.8360 -0.2666  2.3941
  135CHL1  H27B16249   3.289   6.404  11.197 -0.1029  0.3827  0.8436
  135CHL1  H27C16250   3.384   6.438  11.350 -0.2016 -2.1089  1.7163
  136CHL1    C316251   4.913   2.515   9.817 -0.0284 -0.3241  0.0501
  136CHL1    H316252   5.022   2.519   9.833  0.2092 -0.6487 -1.3209
  136CHL1    O316253   4.899   2.558   9.686 -0.0618 -0.2324  0.1664
  136CHL1   H3'16254   4.867   2.646   9.707 -1.2669 -0.7509  0.6144
  136CHL1    C416255   4.860   2.373   9.814  0.2840  0.0860  0.0425
  136CHL1   H4A16256   4.753   2.371   9.783  0.3315  1.7592 -0.3105
  136CHL1   H4B16257   4.912   2.312   9.737  1.0901  0.5410  0.2206
  136CHL1    C516258   4.880   2.322   9.961 -0.4737  0.7256 -0.2184
  136CHL1    C616259   4.953   2.210   9.985 -0.5971  0.0421 -0.0870
  136CHL1    H616260   5.000   2.151   9.905 -1.2013 -1.6688  0.7703
  136CHL1    C716261   4.969   2.154  10.129  0.6046  0.5942  0.6840
  136CHL1   H7A16262   4.953   2.044  10.121 -0.0577  0.8063 -1.9112
  136CHL1   H7B16263   5.072   2.174  10.167  0.0916  2.0389  1.3880
  136CHL1    C816264   4.862   2.207  10.231 -0.1769  0.3364  0.2950
  136CHL1    H816265   4.771   2.146  10.212 -1.3441  2.0512  0.1546
  136CHL1   C1416266   4.914   2.186  10.370  0.1774 -0.1635  0.1499
  136CHL1   H1416267   5.005   2.250  10.370 -0.0085  0.1257  1.2293
  136CHL1   C1516268   4.969   2.052  10.415 -0.0462  0.2412  0.2266
  136CHL1  H15A16269   4.912   1.959  10.389  3.1594 -2.2196  1.4025
  136CHL1  H15B16270   5.069   2.050  10.368 -0.6001  1.7907 -1.0982
  136CHL1   C1616271   4.981   2.069  10.566 -0.1538  0.1149 -0.8010
  136CHL1  H16A16272   4.930   1.995  10.631  0.9753  2.2398  2.7456
  136CHL1  H16B16273   5.088   2.067  10.597 -0.6068  1.5779  0.9780
  136CHL1   C1716274   4.912   2.200  10.608  0.1845  0.1871  0.0779
  136CHL1   H1716275   4.993   2.275  10.598 -0.2152  0.3899 -2.2886
  136CHL1   C1316276   4.826   2.232  10.486  0.4072  0.3930  0.8413
  136CHL1   C1816277   4.699   2.145  10.491  0.8639 -0.1331 -0.7309
  136CHL1  H18A16278   4.646   2.157  10.394 -0.4726 -0.2908 -0.0504
  136CHL1  H18B16279   4.729   2.039  10.504 -0.7140 -0.6102 -0.7460
  136CHL1  H18C16280   4.630   2.172  10.574 -2.1989 -1.0755 -2.7955
  136CHL1   C1216281   4.807   2.383  10.461 -0.1632 -0.6351 -0.5154
  136CHL1  H12A16282   4.742   2.418  10.544  0.2118 -1.4515  0.1371
  136CHL1  H12B16283   4.905   2.434  10.476 -0.9675  0.0993  3.3483
  136CHL1   C1116284   4.750   2.418  10.324  0.0320  0.3701  0.6442
  136CHL1  H11A16285   4.647   2.381  10.309  0.3122 -0.0777 -0.3011
  136CHL1  H11B16286   4.754   2.528  10.310  2.2986  0.3337  0.6269
  136CHL1    C916287   4.840   2.363  10.213  0.5382 -0.1539  0.9212
  136CHL1    H916288   4.940   2.406  10.233  1.6959 -0.3062 -3.6400
  136CHL1   C1016289   4.803   2.402  10.067  0.1491 -0.0965  0.0298
  136CHL1   C1916290   4.653   2.368  10.054  0.3621 -0.5569  0.2481
  136CHL1  H19A16291   4.631   2.268  10.097 -0.2039 -1.0373 -1.0967
  136CHL1  H19B16292   4.584   2.438  10.105  0.4407 -0.1828 -0.1472
  136CHL1  H19C16293   4.623   2.369   9.947  0.8270  2.4854  0.0713
  136CHL1    C116294   4.818   2.549  10.045 -0.5506 -0.0076  0.5294
  136CHL1   H1A16295   4.738   2.608  10.095 -0.0996  1.7877 -0.7540
  136CHL1   H1B16296   4.911   2.577  10.098  0.1977 -0.6209 -0.4322
  136CHL1    C216297   4.830   2.606   9.906  0.2339 -0.2289  0.3292
  136CHL1   H2A16298   4.874   2.708   9.910 -1.0311  0.5218 -2.2157
  136CHL1   H2B16299   4.728   2.620   9.863 -0.2780 -3.2659  0.3928
  136CHL1   C2016300   4.864   2.211  10.751  0.1875  0.4720  0.3571
  136CHL1   H2016301   4.787   2.132  10.760 -1.0152  1.0476 -3.3654
  136CHL1   C2116302   4.809   2.353  10.787 -1.0093  0.2269 -0.4281
  136CHL1  H21A16303   4.707   2.368  10.746 -1.4575  1.3226  1.0004
  136CHL1  H21B16304   4.886   2.429  10.762  1.2674 -1.9698 -0.5661
  136CHL1  H21C16305   4.785   2.356  10.896 -1.3586 -1.6691 -0.4226
  136CHL1   C2216306   4.967   2.163  10.862  0.3578  0.0285 -0.3622
  136CHL1  H22A16307   4.995   2.063  10.824 -0.6589 -0.9459  1.3242
  136CHL1  H22B16308   5.060   2.224  10.859 -0.0314  0.7909  1.6649
  136CHL1   C2316309   4.912   2.148  11.006  0.0348  0.3459  0.4020
  136CHL1  H23A16310   4.874   2.241  11.052 -0.5617  0.0072  0.6134
  136CHL1  H23B16311   4.820   2.085  11.008  0.0683  0.2554 -0.4685
  136CHL1   C2416312   5.024   2.084  11.094  0.1272  0.1419 -0.3104
  136CHL1  H24A16313   5.060   1.990  11.045  1.0753  0.4552 -0.2474
  136CHL1  H24B16314   5.099   2.163  11.115 -0.0112  0.3579 -0.6184
  136CHL1   C2516315   4.982   2.037  11.239  0.6111 -0.5495 -0.1421
  136CHL1   H2516316   4.905   2.115  11.258 -1.0634 -1.8260 -1.3485
  136CHL1   C2616317   4.915   1.904  11.236 -0.0478 -0.0880 -0.3666
  136CHL1  H26A16318   5.000   1.835  11.253  0.1337  0.1717 -0.1995
  136CHL1  H26B16319   4.854   1.881  11.326 -0.7374 -2.3514 -1.3342
  136CHL1  H26C16320   4.844   1.878  11.155 -2.3150 -2.4511  2.1561
  136CHL1   C2716321   5.093   2.044  11.351 -0.0847  1.0956 -0.4193
  136CHL1  H27A16322   5.181   1.978  11.339 -0.4915  0.3166  0.7129
  136CHL1  H27B16323   5.126   2.150  11.349  2.2350  0.4325 -2.7500
  136CHL1  H27C16324   5.054   2.014  11.451  0.0292 -1.2380 -1.0323
  137CHL1    C316325   6.681   3.479  10.246 -0.0897 -0.0741 -0.9996
  137CHL1    H316326   6.648   3.373  10.247 -0.0633 -0.0928  0.4311
  137CHL1    O316327   6.709   3.530  10.120 -0.2162 -0.0930  0.4115
  137CHL1   H3'16328   6.649   3.605  10.110 -0.9880 -0.7438  0.0436
  137CHL1    C416329   6.579   3.578  10.309  0.3500  0.5540  0.3093
  137CHL1   H4A16330   6.630   3.677  10.309  2.2754 -0.3869 -0.1882
  137CHL1   H4B16331   6.487   3.586  10.248  1.7020 -0.9477 -2.0957
  137CHL1    C516332   6.553   3.535  10.453 -0.3336  0.4980  0.0183
  137CHL1    C616333   6.433   3.522  10.506 -0.1231  0.4516  0.6260
  137CHL1    H616334   6.343   3.537  10.446  0.5862  1.9700 -0.1124
  137CHL1    C716335   6.410   3.480  10.644  0.2561  0.7227 -0.1848
  137CHL1   H7A16336   6.311   3.509  10.685  0.1130  0.9581 -0.6819
  137CHL1   H7B16337   6.388   3.371  10.645 -0.2675  0.8341  0.5965
  137CHL1    C816338   6.527   3.496  10.744  0.3913  0.3492 -0.9820
  137CHL1    H816339   6.543   3.601  10.776  0.3736 -0.1426  0.7218
  137CHL1   C1416340   6.511   3.413  10.875  0.7002  0.3154  0.4050
  137CHL1   H1416341   6.517   3.305  10.848 -0.0178 -0.5614  3.4035
  137CHL1   C1516342   6.376   3.426  10.960  0.4934 -0.1148 -0.0393
  137CHL1  H15A16343   6.357   3.535  10.973  1.9459  0.1318  0.3001
  137CHL1  H15B16344   6.288   3.386  10.905  0.0246  0.4217  0.3109
  137CHL1   C1616345   6.411   3.356  11.088 -0.2306  0.0929 -0.5067
  137CHL1  H16A16346   6.382   3.415  11.177 -0.0421 -1.3301  0.5448
  137CHL1  H16B16347   6.361   3.260  11.112 -0.7702  0.7453  1.1188
  137CHL1   C1716348   6.565   3.328  11.085  0.0115  0.7072 -0.4767
  137CHL1   H1716349   6.573   3.222  11.052  1.6045 -0.4163  3.0168
  137CHL1   C1316350   6.622   3.418  10.974  0.7890  0.2552 -0.2626
  137CHL1   C1816351   6.632   3.562  11.027  0.2792 -0.8846 -0.8334
  137CHL1  H18A16352   6.547   3.603  11.086  0.8576  1.2981 -1.4179
  137CHL1  H18B16353   6.713   3.561  11.103 -0.3546 -0.4376 -0.1440
  137CHL1  H18C16354   6.659   3.637  10.949 -1.9157  1.0185  0.1317
  137CHL1   C1216355   6.752   3.377  10.898 -0.4071  0.6105 -0.6248
  137CHL1  H12A16356   6.830   3.401  10.974 -0.6107  0.1363 -0.2615
  137CHL1  H12B16357   6.747   3.267  10.887 -0.2718  0.7939 -2.8002
  137CHL1   C1116358   6.776   3.453  10.764 -0.1662 -0.2819 -0.2094
  137CHL1  H11A16359   6.811   3.554  10.796  2.3667 -0.8767 -0.8584
  137CHL1  H11B16360   6.867   3.405  10.721 -1.0476 -1.5093 -0.7567
  137CHL1    C916361   6.658   3.455  10.671  0.6563  0.2835  0.4032
  137CHL1    H916362   6.635   3.349  10.646 -1.5518  0.9418 -0.5491
  137CHL1   C1016363   6.690   3.531  10.543  0.3471 -0.2173 -0.2012
  137CHL1   C1916364   6.741   3.684  10.564 -0.3409 -0.3543 -0.5225
  137CHL1  H19A16365   6.653   3.728  10.615  0.2919  0.2317  0.1020
  137CHL1  H19B16366   6.833   3.689  10.627 -0.2591 -0.6006 -0.6209
  137CHL1  H19C16367   6.749   3.743  10.471 -1.3323  1.7444  0.6634
  137CHL1    C116368   6.801   3.454  10.470  0.3959 -0.1492 -0.1502
  137CHL1   H1A16369   6.896   3.474  10.523 -0.2915  0.7371  0.7837
  137CHL1   H1B16370   6.777   3.345  10.474 -0.8479 -0.0739 -3.1049
  137CHL1    C216371   6.816   3.489  10.327  0.5675  0.7212 -0.4215
  137CHL1   H2A16372   6.884   3.414  10.282  2.7896  2.5214 -0.1973
  137CHL1   H2B16373   6.865   3.587  10.310  0.4704  0.9641  0.6468
  137CHL1   C2016374   6.626   3.318  11.229 -0.5185 -0.3119  0.0163
  137CHL1   H2016375   6.605   3.416  11.277  3.7310  0.7707  0.0282
  137CHL1   C2116376   6.784   3.305  11.234  0.2290 -0.1414 -0.2648
  137CHL1  H21A16377   6.845   3.384  11.185 -1.9115  1.6760 -0.1721
  137CHL1  H21B16378   6.813   3.218  11.172  0.7972  0.3377 -0.6888
  137CHL1  H21C16379   6.819   3.282  11.337 -1.8272  0.2366  0.5759
  137CHL1   C2216380   6.561   3.204  11.308  0.0321 -0.0913 -0.5129
  137CHL1  H22A16381   6.451   3.215  11.301 -0.4214 -1.6091  2.6771
  137CHL1  H22B16382   6.580   3.105  11.261  0.2338 -1.3866  2.1448
  137CHL1   C2316383   6.580   3.198  11.468  0.0625 -0.3569  0.7094
  137CHL1  H23A16384   6.685   3.200  11.504  0.0782  1.0810  0.6545
  137CHL1  H23B16385   6.529   3.291  11.500 -0.8332 -0.2371 -0.9582
  137CHL1   C2416386   6.499   3.093  11.537 -0.2086 -0.0325 -0.0748
  137CHL1  H24A16387   6.392   3.079  11.510  0.3313 -0.7035 -1.9711
  137CHL1  H24B16388   6.549   2.997  11.513  2.2307  0.8429  1.1393
  137CHL1   C2516389   6.500   3.109  11.694 -0.6343  0.3101 -0.2765
  137CHL1   H2516390   6.422   3.184  11.718 -0.4465  0.0310  1.3532
  137CHL1   C2616391   6.457   2.978  11.763  0.1991  0.1534 -0.0390
  137CHL1  H26A16392   6.539   2.905  11.747  0.7158  0.7324 -0.0958
  137CHL1  H26B16393   6.447   2.983  11.874 -0.7631  1.7037 -0.1703
  137CHL1  H26C16394   6.358   2.940  11.732  0.3357  0.2885 -0.6457
  137CHL1   C2716395   6.640   3.161  11.750 -0.5193 -0.0582 -0.2129
  137CHL1  H27A16396   6.622   3.170  11.859 -0.0410 -1.7955  0.0441
  137CHL1  H27B16397   6.728   3.094  11.738  1.2660  2.2127 -0.5570
  137CHL1  H27C16398   6.671   3.260  11.709 -1.0505 -0.0287 -0.5482
  138CHL1    C316399   5.443   1.708   9.828 -0.1429 -0.1203 -0.5982
  138CHL1    H316400   5.346   1.677   9.874  0.0132 -2.5516 -1.7500
  138CHL1    O316401   5.439   1.674   9.691  0.0144  0.0034  0.0370
  138CHL1   H3'16402   5.420   1.581   9.678  1.7327 -0.6080  1.5725
  138CHL1    C416403   5.458   1.864   9.842 -0.4465  0.1827  0.2520
  138CHL1   H4A16404   5.557   1.890   9.799  0.0801 -0.8405  0.8004
  138CHL1   H4B16405   5.389   1.912   9.769 -0.4831  0.0698  0.2104
  138CHL1    C516406   5.443   1.906   9.982  0.1284 -0.6575 -1.3451
  138CHL1    C616407   5.345   1.987  10.023 -0.5400  0.4715  0.2974
  138CHL1    H616408   5.274   2.023   9.947  1.0620  2.7360 -0.2369
  138CHL1    C716409   5.346   2.040  10.168  0.4909  0.0188 -0.1228
  138CHL1   H7A16410   5.317   2.147  10.171 -0.5626 -0.1818 -1.8036
  138CHL1   H7B16411   5.266   1.989  10.225 -0.3882  1.3460 -0.1255
  138CHL1    C816412   5.466   2.015  10.255  0.7989 -0.7341  0.4661
  138CHL1    H816413   5.551   2.079  10.227 -0.2241  0.8882  0.9419
  138CHL1   C1416414   5.434   2.030  10.399  0.4131  0.6438 -0.6441
  138CHL1   H1416415   5.360   1.949  10.419  3.2522 -1.6732  1.3234
  138CHL1   C1516416   5.373   2.165  10.447  0.2170  0.0300  0.1839
  138CHL1  H15A16417   5.421   2.258  10.409  2.3343 -0.6780  0.9824
  138CHL1  H15B16418   5.264   2.161  10.429 -0.0983  0.5594  1.8103
  138CHL1   C1616419   5.401   2.161  10.603 -0.4626 -0.0955 -0.5281
  138CHL1  H16A16420   5.462   2.252  10.624 -0.6957 -0.0115 -0.2037
  138CHL1  H16B16421   5.307   2.165  10.662  1.1606  0.8861  2.1677
  138CHL1   C1716422   5.474   2.021  10.636 -0.0977 -0.0419  0.2686
  138CHL1   H1716423   5.396   1.941  10.637 -1.9305  1.6200 -1.0499
  138CHL1   C1316424   5.550   1.989  10.498  0.0014 -0.0252 -0.3125
  138CHL1   C1816425   5.669   2.085  10.485  0.3807  0.0710 -1.0187
  138CHL1  H18A16426   5.719   2.079  10.386 -2.2073  0.0342 -2.4266
  138CHL1  H18B16427   5.638   2.188  10.513 -0.6898 -0.5489  0.1926
  138CHL1  H18C16428   5.754   2.060  10.551  1.3413  2.2127 -1.3550
  138CHL1   C1216429   5.587   1.842  10.476 -0.4713  0.0800 -0.5827
  138CHL1  H12A16430   5.668   1.821  10.549 -2.0152  2.2578  1.8853
  138CHL1  H12B16431   5.501   1.784  10.515 -0.2505 -0.1934 -0.4941
  138CHL1   C1116432   5.623   1.815  10.331 -0.3972  0.1310  0.0948
  138CHL1  H11A16433   5.720   1.866  10.318 -1.1476  1.9238  1.1301
  138CHL1  H11B16434   5.635   1.706  10.312 -0.0821  0.2910 -0.6415
  138CHL1    C916435   5.518   1.871  10.231  0.8950 -0.4511 -0.1955
  138CHL1    H916436   5.428   1.807  10.246 -0.7123  0.8368 -3.3824
  138CHL1   C1016437   5.558   1.851  10.076  0.1946  0.8386 -0.2654
  138CHL1   C1916438   5.694   1.912  10.040 -0.1209  0.4192 -0.2112
  138CHL1  H19A16439   5.682   2.018  10.072  1.9098 -0.0266  2.3761
  138CHL1  H19B16440   5.788   1.880  10.091  0.2725  0.5513 -0.8469
  138CHL1  H19C16441   5.711   1.905   9.931 -0.4221  1.4710 -0.3361
  138CHL1    C116442   5.555   1.695  10.058 -0.7734 -0.1882 -0.3866
  138CHL1   H1A16443   5.653   1.656  10.094 -1.2680 -0.4323  0.7331
  138CHL1   H1B16444   5.475   1.631  10.101  0.8332 -2.4003 -0.4875
  138CHL1    C216445   5.553   1.639   9.909 -0.1782  0.3556 -0.0762
  138CHL1   H2A16446   5.539   1.529   9.901 -1.8694  0.6075 -1.0518
  138CHL1   H2B16447   5.654   1.650   9.863 -0.4725 -0.9881 -1.1271
  138CHL1   C2016448   5.540   2.025  10.772  0.4627  0.0004  1.0046
  138CHL1   H2016449   5.610   1.940  10.785 -0.3151 -0.7410  0.4676
  138CHL1   C2116450   5.434   2.002  10.876  0.1789  0.4889 -0.3609
  138CHL1  H21A16451   5.362   2.085  10.891 -1.2103 -0.6976 -0.2174
  138CHL1  H21B16452   5.488   1.969  10.967 -0.5649 -1.7138 -0.6405
  138CHL1  H21C16453   5.366   1.919  10.849  1.2419  0.0116 -1.7305
  138CHL1   C2216454   5.608   2.159  10.815  0.0615  0.7002  0.1486
  138CHL1  H22A16455   5.667   2.198  10.729  1.0954  2.2603  1.5085
  138CHL1  H22B16456   5.547   2.245  10.849  1.3431  1.1639  1.3662
  138CHL1   C2316457   5.701   2.143  10.933  0.0178 -0.4550 -0.2281
  138CHL1  H23A16458   5.742   2.243  10.959  0.1091 -0.6662  0.4436
  138CHL1  H23B16459   5.646   2.111  11.024  0.7827  0.9826  0.7831
  138CHL1   C2416460   5.818   2.038  10.907 -0.1108 -0.6504 -0.8927
  138CHL1  H24A16461   5.772   1.938  10.920  0.4138 -0.7715  0.1322
  138CHL1  H24B16462   5.871   2.040  10.809  1.1028  1.1442 -0.2403
  138CHL1   C2516463   5.935   2.054  11.004  0.1387  0.2900  0.0303
  138CHL1   H2516464   5.978   2.155  10.993 -0.5484  0.7321  1.2274
  138CHL1   C2616465   5.893   2.045  11.152  1.1944  0.4984 -0.4238
  138CHL1  H26A16466   5.901   1.940  11.185  0.3951  0.5587 -0.0007
  138CHL1  H26B16467   5.957   2.101  11.223 -0.4937 -1.8751  3.2984
  138CHL1  H26C16468   5.791   2.085  11.171  1.2860  0.3701  0.3475
  138CHL1   C2716469   6.042   1.948  10.981  0.3044 -0.0637  0.6156
  138CHL1  H27A16470   6.069   1.936  10.874 -3.0903 -1.7003 -0.1980
  138CHL1  H27B16471   6.127   1.966  11.049 -1.2936  0.5463  2.5593
  138CHL1  H27C16472   5.993   1.854  11.016 -0.7218  0.9728  2.1315
  139CHL1    C316473   6.720   0.855  10.462 -0.3345  0.5245 -0.1481
  139CHL1    H316474   6.817   0.909  10.452  0.7678 -1.3451 -0.0142
  139CHL1    O316475   6.706   0.792  10.335  0.2402  0.0666  0.0993
  139CHL1   H3'16476   6.641   0.843  10.286 -0.1254  0.3102  0.8082
  139CHL1    C416477   6.715   0.739  10.571  0.0424 -0.5586  0.0132
  139CHL1   H4A16478   6.615   0.692  10.553 -0.0210  0.4544 -2.8268
  139CHL1   H4B16479   6.791   0.661  10.548  0.1882 -0.1244 -1.0392
  139CHL1    C516480   6.727   0.798  10.708  0.1467 -0.0503 -0.0349
  139CHL1    C616481   6.835   0.758  10.787  0.0685  0.9780  0.7490
  139CHL1    H616482   6.896   0.678  10.743 -0.6859  1.5940 -1.5406
  139CHL1    C716483   6.864   0.815  10.919  0.4980  0.3274 -0.0966
  139CHL1   H7A16484   6.880   0.728  10.986 -2.6115 -0.8114 -0.6552
  139CHL1   H7B16485   6.956   0.875  10.901  0.4700 -0.0691 -1.7376
  139CHL1    C816486   6.747   0.901  10.981 -0.7081  0.7008  0.1244
  139CHL1    H816487   6.675   0.831  11.029 -0.0293 -1.0727 -1.3413
  139CHL1   C1416488   6.804   0.991  11.077 -0.0477 -0.0714 -1.0121
  139CHL1   H1416489   6.857   1.073  11.024 -0.4135  0.9055  0.0766
  139CHL1   C1516490   6.914   0.935  11.180  0.9550  0.3474  0.3023
  139CHL1  H15A16491   6.894   0.826  11.193 -1.8570  0.7695  0.2365
  139CHL1  H15B16492   7.018   0.945  11.143  0.8065 -0.8941 -0.5279
  139CHL1   C1616493   6.897   1.025  11.304 -0.0457 -0.3255 -0.7071
  139CHL1  H16A16494   6.868   0.969  11.396  2.6484  0.3177  0.6473
  139CHL1  H16B16495   6.999   1.059  11.332  1.0782 -2.5015 -1.9840
  139CHL1   C1716496   6.794   1.135  11.255 -0.2964  0.1445  0.7736
  139CHL1   H1716497   6.843   1.212  11.191 -2.3522  0.9706  0.1154
  139CHL1   C1316498   6.704   1.072  11.158  0.3692  0.0893  0.5468
  139CHL1   C1816499   6.602   0.985  11.234 -0.1898  0.0505  0.5552
  139CHL1  H18A16500   6.531   1.053  11.285 -0.0343  1.9037 -1.5186
  139CHL1  H18B16501   6.536   0.922  11.170 -3.1642  1.3509  2.1698
  139CHL1  H18C16502   6.651   0.916  11.306  1.4586  0.1471 -0.3983
  139CHL1   C1216503   6.630   1.167  11.056  0.1205 -0.2032  0.2756
  139CHL1  H12A16504   6.543   1.212  11.108  0.9446  1.0000  0.6475
  139CHL1  H12B16505   6.702   1.246  11.024  1.3374 -1.1902  0.4823
  139CHL1   C1116506   6.573   1.087  10.935  0.1983 -0.7283 -0.3440
  139CHL1  H11A16507   6.485   1.028  10.971 -0.5777  0.0453 -0.9321
  139CHL1  H11B16508   6.540   1.164  10.863 -0.4401  2.2555  2.8772
  139CHL1    C916509   6.676   0.988  10.870  0.5468 -0.6620  0.1268
  139CHL1    H916510   6.757   1.052  10.830  1.2183  0.2804  2.8131
  139CHL1   C1016511   6.628   0.913  10.741 -0.1558 -0.5160  0.3526
  139CHL1   C1916512   6.489   0.852  10.771 -0.0838 -0.3875 -0.7349
  139CHL1  H19A16513   6.469   0.789  10.682 -0.2819 -0.0032 -0.9607
  139CHL1  H19B16514   6.498   0.779  10.855 -0.2970 -0.0593 -0.4245
  139CHL1  H19C16515   6.410   0.928  10.788  1.0996  0.4481  1.5022
  139CHL1    C116516   6.624   1.018  10.624 -0.8785  0.1173  0.1516
  139CHL1   H1A16517   6.544   1.089  10.653 -0.5670  0.8608 -0.7737
  139CHL1   H1B16518   6.724   1.065  10.632 -0.1861 -1.3890  0.6470
  139CHL1    C216519   6.617   0.960  10.482  0.5177 -0.0543  0.1382
  139CHL1   H2A16520   6.622   1.045  10.410 -0.2381  0.7052  0.9434
  139CHL1   H2B16521   6.516   0.923  10.452 -0.4293  2.0007  0.5986
  139CHL1   C2016522   6.734   1.217  11.363 -0.0983 -0.3872  0.4343
  139CHL1   H2016523   6.650   1.273  11.316 -0.3631 -0.7003  0.5320
  139CHL1   C2116524   6.845   1.327  11.387  0.6704 -0.6291 -0.6481
  139CHL1  H21A16525   6.849   1.389  11.296  0.0977  1.7445  0.8719
  139CHL1  H21B16526   6.947   1.298  11.421  0.8344  0.6192 -0.0498
  139CHL1  H21C16527   6.809   1.397  11.465 -2.8905 -0.5161 -2.1849
  139CHL1   C2216528   6.676   1.155  11.491 -0.0386 -0.2213 -0.9208
  139CHL1  H22A16529   6.580   1.103  11.469 -0.4380  0.9838 -2.1265
  139CHL1  H22B16530   6.743   1.075  11.529  1.0561  0.7615 -0.7273
  139CHL1   C2316531   6.643   1.255  11.602 -0.5906 -0.8006 -0.2014
  139CHL1  H23A16532   6.735   1.303  11.643 -0.9698 -1.2737  1.2666
  139CHL1  H23B16533   6.576   1.330  11.554 -1.7442  0.7066  3.4627
  139CHL1   C2416534   6.550   1.194  11.705  0.0786 -0.8824  0.2305
  139CHL1  H24A16535   6.475   1.275  11.721  0.8693  0.6701 -2.9198
  139CHL1  H24B16536   6.494   1.124  11.640 -0.4639 -1.0784  0.8997
  139CHL1   C2516537   6.616   1.119  11.819 -0.1912  0.8501 -0.2612
  139CHL1   H2516538   6.701   1.058  11.783 -1.0438 -1.5300  1.5153
  139CHL1   C2616539   6.672   1.220  11.922  0.0907  0.0660  0.1433
  139CHL1  H26A16540   6.719   1.307  11.871  5.1316  0.1357  4.0858
  139CHL1  H26B16541   6.592   1.264  11.984  0.1195  0.4235 -0.0701
  139CHL1  H26C16542   6.743   1.167  11.989 -0.3410 -2.4028 -1.2147
  139CHL1   C2716543   6.521   1.020  11.883 -0.1757 -0.2548  0.0475
  139CHL1  H27A16544   6.486   0.948  11.805  2.1033 -0.6242 -0.7385
  139CHL1  H27B16545   6.573   0.976  11.971  0.3561  2.9003  1.4366
  139CHL1  H27C16546   6.432   1.071  11.924 -1.2737  0.2528 -2.7232
  140CHL1    C316547   6.377   2.119   9.850 -0.3246  0.0893  0.5567
  140CHL1    H316548   6.295   2.194   9.852  0.7254  1.2554  2.2414
  140CHL1    O316549   6.361   2.032   9.734  0.0265  0.1810  0.4877
  140CHL1   H3'16550   6.265   2.023   9.733 -0.0484  0.9661  0.3562
  140CHL1    C416551   6.517   2.191   9.840  0.0805  0.1424  0.3498
  140CHL1   H4A16552   6.587   2.108   9.816 -1.9447 -1.5688  0.0908
  140CHL1   H4B16553   6.515   2.251   9.746 -1.7947 -1.4947 -0.7373
  140CHL1    C516554   6.569   2.262   9.961 -0.3453 -0.0580  0.1060
  140CHL1    C616555   6.609   2.391   9.960  0.0498 -0.2031  0.0469
  140CHL1    H616556   6.607   2.440   9.862 -1.1393 -0.2782  0.0160
  140CHL1    C716557   6.654   2.464  10.086  0.3722 -0.1633  0.1138
  140CHL1   H7A16558   6.756   2.506  10.072 -0.1574  1.1350  0.0753
  140CHL1   H7B16559   6.588   2.550  10.106  1.6197  1.2288 -1.4628
  140CHL1    C816560   6.673   2.375  10.215  0.3115  0.2903  0.2200
  140CHL1    H816561   6.775   2.331  10.203  1.4647  2.4730  1.4160
  140CHL1   C1416562   6.659   2.457  10.341 -0.6723 -0.0272 -0.5814
  140CHL1   H1416563   6.558   2.504  10.335  0.4492  2.8535  1.1928
  140CHL1   C1516564   6.759   2.579  10.356  0.4845  0.4266 -0.4732
  140CHL1  H15A16565   6.861   2.561  10.317  1.4272  1.7974  1.1993
  140CHL1  H15B16566   6.709   2.658  10.296 -0.8802 -1.5830 -2.1184
  140CHL1   C1616567   6.762   2.596  10.511  0.0841  0.8554 -0.1591
  140CHL1  H16A16568   6.866   2.570  10.539 -0.0266  0.4617 -0.1015
  140CHL1  H16B16569   6.744   2.702  10.539  0.9479  1.0107 -0.1802
  140CHL1   C1716570   6.664   2.493  10.570  0.0154 -0.0577 -0.6691
  140CHL1   H1716571   6.568   2.547  10.556 -0.4337 -1.0701 -1.7011
  140CHL1   C1316572   6.662   2.377  10.468 -0.5877 -0.0058 -0.6622
  140CHL1   C1816573   6.796   2.292  10.464 -0.3668  0.0490  0.4392
  140CHL1  H18A16574   6.794   2.209  10.391  0.7841  2.7118 -2.8793
  140CHL1  H18B16575   6.883   2.355  10.436 -1.2924  0.7884 -0.8638
  140CHL1  H18C16576   6.819   2.247  10.563 -0.5068 -0.2159  0.3525
  140CHL1   C1216577   6.552   2.273  10.475  0.4172  0.0772 -0.0514
  140CHL1  H12A16578   6.550   2.209  10.565  1.8563 -1.0004 -0.7542
  140CHL1  H12B16579   6.448   2.312  10.480  0.2812 -0.4103  1.4266
  140CHL1   C1116580   6.548   2.180  10.350 -0.3023 -0.5457  0.6277
  140CHL1  H11A16581   6.615   2.092  10.361  1.2301  0.3568 -1.0323
  140CHL1  H11B16582   6.446   2.137  10.351 -1.1140  1.2811 -0.3218
  140CHL1    C916583   6.564   2.265  10.213 -0.3987 -0.2969 -0.1499
  140CHL1    H916584   6.464   2.312  10.217 -0.7949 -1.0548 -0.7217
  140CHL1   C1016585   6.556   2.181  10.086 -0.1949  0.7703 -0.7933
  140CHL1   C1916586   6.671   2.082  10.086 -0.1544  0.4650  0.4051
  140CHL1  H19A16587   6.666   2.015   9.998 -2.0322  1.1037 -0.0402
  140CHL1  H19B16588   6.765   2.140  10.079  0.2346 -0.0855  0.9508
  140CHL1  H19C16589   6.669   2.018  10.177 -0.7578 -0.0522  0.0416
  140CHL1    C116590   6.418   2.101  10.090 -0.1742  0.2929 -0.3082
  140CHL1   H1A16591   6.430   2.032  10.176 -0.2425  0.3114 -0.2837
  140CHL1   H1B16592   6.334   2.168  10.118 -0.5715  0.1080 -1.0401
  140CHL1    C216593   6.381   2.028   9.968 -0.2120 -0.4344 -0.7375
  140CHL1   H2A16594   6.289   1.967   9.979 -0.1541 -0.3149  0.6514
  140CHL1   H2B16595   6.458   1.949   9.955  0.6774  0.6943 -2.7745
  140CHL1   C2016596   6.678   2.465  10.716 -0.3051 -0.3186 -0.3921
  140CHL1   H2016597   6.660   2.565  10.760  2.5030  0.2538 -0.3945
  140CHL1   C2116598   6.823   2.445  10.777  0.1276 -0.1781 -0.3002
  140CHL1  H21A16599   6.812   2.406  10.880  0.6536  3.5666  1.3651
  140CHL1  H21B16600   6.873   2.544  10.781  0.7007 -0.4996  0.5655
  140CHL1  H21C16601   6.896   2.378  10.727  1.9206  1.8779 -0.6237
  140CHL1   C2216602   6.592   2.347  10.771  0.0453 -0.4252  0.4735
  140CHL1  H22A16603   6.495   2.366  10.719  1.4151  0.2175 -1.9874
  140CHL1  H22B16604   6.644   2.252  10.746  2.2730  0.4888  1.4344
  140CHL1   C2316605   6.557   2.346  10.920  0.1556 -1.0017 -0.0193
  140CHL1  H23A16606   6.642   2.295  10.971  0.5387  1.5814  2.1482
  140CHL1  H23B16607   6.549   2.451  10.956 -0.5102 -0.1407 -2.4635
  140CHL1   C2416608   6.424   2.282  10.949 -0.2798  0.3383  0.8585
  140CHL1  H24A16609   6.341   2.346  10.912  0.5851  0.8134 -0.3222
  140CHL1  H24B16610   6.425   2.184  10.897  1.1391  0.5205  0.4958
  140CHL1   C2516611   6.399   2.261  11.101  0.1807  0.9158 -0.1995
  140CHL1   H2516612   6.479   2.199  11.146 -0.8196 -0.3682 -0.1584
  140CHL1   C2616613   6.287   2.163  11.112  1.1765 -0.2151  0.5987
  140CHL1  H26A16614   6.253   2.140  11.215  0.2860  1.5575  0.7343
  140CHL1  H26B16615   6.196   2.208  11.065  1.7186 -0.1476 -0.4139
  140CHL1  H26C16616   6.316   2.073  11.053  2.4900  0.7953 -0.3541
  140CHL1   C2716617   6.376   2.385  11.186 -0.0938 -0.0430 -0.6492
  140CHL1  H27A16618   6.469   2.446  11.186 -1.0386  1.4511 -0.9056
  140CHL1  H27B16619   6.299   2.452  11.141 -1.4053 -1.7870 -1.1089
  140CHL1  H27C16620   6.346   2.357  11.290 -2.8657  2.4783 -0.6393
  141DOPC     N16621   3.131   5.208  12.785  0.4765 -0.8584 -0.0013
  141DOPC   C1216622   3.026   5.175  12.883  0.4563 -0.0507  0.2475
  141DOPC  H12A16623   2.938   5.235  12.864  0.5473  0.0267  0.0756
  141DOPC  H12B16624   3.070   5.200  12.979  2.0707  2.0022 -0.9502
  141DOPC   C1316625   3.207   5.329  12.806 -0.3193 -0.1041 -0.2916
  141DOPC  H13A16626   3.280   5.310  12.883 -1.6241 -1.4298  0.6828
  141DOPC  H13B16627   3.272   5.343  12.721 -0.2195 -0.4914 -0.2841
  141DOPC  H13C16628   3.151   5.421  12.810 -1.4515 -0.7760 -0.1777
  141DOPC   C1416629   3.070   5.226  12.646 -0.4233 -0.0330 -0.6206
  141DOPC  H14A16630   3.149   5.261  12.581  1.6281 -2.9027  0.1208
  141DOPC  H14B16631   3.034   5.132  12.605 -0.1328  0.6843 -2.6208
  141DOPC  H14C16632   2.982   5.288  12.648  0.5393  1.3626 -0.7007
  141DOPC   C1516633   3.227   5.087  12.785 -0.4391  0.3719  0.2019
  141DOPC  H15A16634   3.266   5.067  12.884  1.6046  0.6529 -0.5018
  141DOPC  H15B16635   3.311   5.108  12.720 -1.6742 -0.5538 -1.7630
  141DOPC  H15C16636   3.182   4.994  12.753  1.6233 -0.9033  0.7869
  141DOPC   C1116637   2.979   5.025  12.885 -0.0672  0.1329  0.2433
  141DOPC  H11A16638   3.060   4.950  12.900 -0.5359 -0.1400  1.5677
  141DOPC  H11B16639   2.910   5.017  12.971 -1.4185 -0.7956 -0.8793
  141DOPC     P16640   2.768   5.048  12.730 -0.2035 -0.2588  0.1127
  141DOPC   O1316641   2.736   5.159  12.821 -0.1796  0.4040 -0.0523
  141DOPC   O1416642   2.665   4.942  12.730 -0.0056  0.1105  0.3655
  141DOPC   O1216643   2.909   4.981  12.766  0.3033  0.0642  0.0861
  141DOPC   O1116644   2.776   5.100  12.581 -0.3017  0.4292 -0.0429
  141DOPC    C116645   2.836   5.027  12.480 -0.2718  0.7138 -0.0570
  141DOPC    HA16646   2.817   4.917  12.484 -1.1734  0.8468 -0.2981
  141DOPC    HB16647   2.946   5.035  12.481 -0.2931  1.0597 -0.3630
  141DOPC    C216648   2.775   5.074  12.342  0.2068  0.4747  0.3191
  141DOPC    HS16649   2.823   5.014  12.262 -2.3953  1.1105 -1.8807
  141DOPC   O2116650   2.798   5.210  12.315 -0.3266  0.5193 -0.1330
  141DOPC   C2116651   2.914   5.255  12.307 -0.9985 -0.1086  0.5703
  141DOPC   O2216652   3.017   5.191  12.296  0.1576  0.5479 -0.0982
  141DOPC   C2216653   2.923   5.407  12.288  0.8062 -0.3433  0.2458
  141DOPC   H2R16654   2.839   5.453  12.343  0.7163 -1.2057  0.8576
  141DOPC   H2S16655   2.904   5.443  12.184  0.9362  0.0223  0.3499
  141DOPC    C316656   2.619   5.049  12.326 -0.3358  0.3700 -0.1235
  141DOPC    HX16657   2.571   5.100  12.413 -4.4433 -0.5052 -1.6085
  141DOPC    HY16658   2.598   4.941  12.335  2.5407 -0.3039 -0.7809
  141DOPC   O3116659   2.576   5.093  12.197 -0.0158  0.4318 -0.3209
  141DOPC   C3116660   2.508   5.202  12.200 -0.3227  0.2558 -0.4723
  141DOPC   O3216661   2.482   5.263  12.302  0.2555 -0.2605 -0.0162
  141DOPC   C3216662   2.436   5.227  12.063 -0.0740  0.5162 -0.0654
  141DOPC   H2X16663   2.506   5.255  11.982 -2.7763 -0.7754 -3.0846
  141DOPC   H2Y16664   2.390   5.129  12.039 -0.4721  0.5652  0.4740
  141DOPC   C2316665   3.062   5.460  12.323 -0.8540  0.2684 -0.0905
  141DOPC   H3R16666   3.146   5.412  12.268  0.6141  0.8045  1.6161
  141DOPC   H3S16667   3.075   5.456  12.433 -2.5162 -1.8939  0.0788
  141DOPC   C2416668   3.083   5.608  12.274 -0.7284  0.3681 -0.1790
  141DOPC   H4R16669   3.050   5.611  12.168  1.6014 -0.6331 -0.9929
  141DOPC   H4S16670   3.190   5.637  12.275 -0.4230 -0.7297  0.3655
  141DOPC   C2516671   3.002   5.713  12.360 -0.5623  0.4684 -0.1408
  141DOPC   H5R16672   3.041   5.719  12.464  0.3318 -2.2743 -0.2396
  141DOPC   H5S16673   2.895   5.683  12.359 -0.6942  0.9218 -1.6925
  141DOPC   C2616674   2.995   5.853  12.291  0.3913 -0.4795  0.4128
  141DOPC   H6R16675   2.974   5.851  12.182 -0.9405 -2.1669  0.6639
  141DOPC   H6S16676   3.092   5.907  12.299  0.4960 -0.7267  0.8388
  141DOPC   C2716677   2.897   5.951  12.357  0.0097 -0.0557  0.3012
  141DOPC   H7R16678   2.932   5.971  12.461  2.4291 -0.5415 -0.3446
  141DOPC   H7S16679   2.804   5.893  12.369 -1.1320  1.5561 -0.3434
  141DOPC   C2816680   2.856   6.078  12.282 -0.3139  0.3438 -0.9079
  141DOPC   H8R16681   2.848   6.058  12.173 -1.9903  1.8853 -1.1148
  141DOPC   H8S16682   2.939   6.150  12.303 -1.3894  1.1525  0.7840
  141DOPC   C2916683   2.736   6.141  12.337  1.3590 -0.4851  0.4993
  141DOPC   H9R16684   2.697   6.102  12.432  1.9336 -1.2298  0.4408
  141DOPC  C21016685   2.642   6.219  12.275 -0.2802 -0.8455 -1.0997
  141DOPC  H10R16686   2.548   6.244  12.327 -0.3839  0.0491 -1.6961
  141DOPC  C21116687   2.658   6.266  12.132  0.3266 -0.3546  0.1463
  141DOPC  H11R16688   2.766   6.279  12.110  0.5787 -0.5155  1.2391
  141DOPC  H11S16689   2.622   6.371  12.123  2.0104  0.1570 -1.1254
  141DOPC  C21216690   2.588   6.168  12.034  0.6288  0.3300 -0.1652
  141DOPC  H12R16691   2.503   6.117  12.085  0.6762 -1.8440 -2.1178
  141DOPC  H12S16692   2.665   6.091  12.011 -1.4610 -2.0268  0.2495
  141DOPC  C21316693   2.532   6.221  11.901  0.1461 -0.2666  0.5761
  141DOPC  H13R16694   2.471   6.313  11.915  0.9147  0.5135 -0.9656
  141DOPC  H13S16695   2.471   6.150  11.841  0.6234  0.8085 -1.2447
  141DOPC  C21416696   2.648   6.263  11.807 -0.3026 -0.3932  0.3523
  141DOPC  H14R16697   2.699   6.174  11.766  0.4664  0.2818 -0.1852
  141DOPC  H14S16698   2.724   6.319  11.866  1.6503 -1.3149 -1.1757
  141DOPC  C21516699   2.623   6.357  11.681 -0.0612  0.2302 -0.5713
  141DOPC  H15R16700   2.721   6.396  11.647 -0.5635  0.5736 -1.6922
  141DOPC  H15S16701   2.570   6.438  11.736 -2.0538 -1.4614  0.1616
  141DOPC  C21616702   2.534   6.294  11.569 -0.0984  0.4762  0.1642
  141DOPC  H16R16703   2.449   6.245  11.622  0.9909  1.3365  2.8641
  141DOPC  H16S16704   2.592   6.211  11.524  0.6583  2.7812 -3.5131
  141DOPC  C21716705   2.504   6.391  11.451 -0.1746 -0.1823 -0.2901
  141DOPC  H17R16706   2.598   6.440  11.418  1.4986 -1.8344  1.7711
  141DOPC  H17S16707   2.427   6.462  11.490 -0.1718 -0.8220  0.9057
  141DOPC  C21816708   2.443   6.335  11.310 -0.3639 -0.4881 -0.3160
  141DOPC  H18R16709   2.341   6.294  11.325  0.1349 -1.0540  1.7660
  141DOPC  H18S16710   2.507   6.249  11.279  0.1383  0.1255 -1.0163
  141DOPC  H18T16711   2.435   6.420  11.238 -0.6731 -0.9315 -0.8179
  141DOPC   C3316712   2.337   5.351  12.052  0.2961  0.7417  0.1451
  141DOPC   H3X16713   2.402   5.432  12.091 -0.1877  0.9962  0.4270
  141DOPC   H3Y16714   2.248   5.330  12.116 -0.5924  0.6650 -1.0803
  141DOPC   C3416715   2.277   5.374  11.908 -0.1642  0.8699  0.2759
  141DOPC   H4X16716   2.259   5.273  11.866  1.0267  1.2049 -1.1301
  141DOPC   H4Y16717   2.360   5.422  11.850  0.2541  2.9585  2.4522
  141DOPC   C3516718   2.161   5.465  11.904  0.0549  0.1251  0.0621
  141DOPC   H5X16719   2.172   5.542  11.984 -0.5112  1.4965 -1.1391
  141DOPC   H5Y16720   2.064   5.418  11.930 -0.2723  1.1381  0.7466
  141DOPC   C3616721   2.149   5.536  11.763  0.3954 -0.2394 -0.4520
  141DOPC   H6X16722   2.070   5.614  11.780 -0.6151 -0.9820 -1.6097
  141DOPC   H6Y16723   2.240   5.599  11.761  1.9233 -2.3579 -0.5902
  141DOPC   C3716724   2.128   5.453  11.647  0.0257  0.1455 -0.1979
  141DOPC   H7X16725   2.206   5.374  11.655  0.0778  0.3353  1.4983
  141DOPC   H7Y16726   2.032   5.397  11.642 -0.5873  0.8722  2.1547
  141DOPC   C3816727   2.156   5.534  11.520 -0.0476  0.5772 -0.2411
  141DOPC   H8X16728   2.247   5.591  11.549  0.5654 -0.9568  1.0179
  141DOPC   H8Y16729   2.067   5.600  11.514 -0.0045  0.5894 -0.7425
  141DOPC   C3916730   2.181   5.440  11.403  0.2982 -1.0006 -0.1119
  141DOPC   H9X16731   2.101   5.366  11.392 -0.4985 -0.3240  0.9479
  141DOPC  C31016732   2.295   5.416  11.342  0.3666  0.3776 -0.2298
  141DOPC  H10X16733   2.307   5.339  11.265  0.0844 -0.4461  0.5283
  141DOPC  C31116734   2.425   5.487  11.370  0.2128  0.0076 -0.1319
  141DOPC  H11X16735   2.412   5.597  11.378 -0.5618  0.0558 -1.7472
  141DOPC  H11Y16736   2.505   5.459  11.298  0.0708 -1.4656  0.2457
  141DOPC  C31216737   2.492   5.453  11.502 -0.2905 -0.6402 -0.1036
  141DOPC  H12X16738   2.440   5.506  11.585 -0.2394 -1.1143  0.2406
  141DOPC  H12Y16739   2.598   5.481  11.490 -0.8249  0.4758 -2.9159
  141DOPC  C31316740   2.488   5.305  11.534  0.3428  0.4504 -0.1257
  141DOPC  H13X16741   2.539   5.271  11.626  0.2883  1.4479  0.2804
  141DOPC  H13Y16742   2.380   5.282  11.546  0.0132  1.8109 -0.2988
  141DOPC  C31416743   2.547   5.222  11.417  0.0515  0.1946  0.2491
  141DOPC  H14X16744   2.498   5.244  11.319  1.8439  1.8706 -0.3388
  141DOPC  H14Y16745   2.655   5.240  11.400 -0.1360  5.2901  2.6640
  141DOPC  C31516746   2.510   5.070  11.437  0.2483 -0.6833  0.6388
  141DOPC  H15X16747   2.401   5.054  11.428 -0.0475  0.5898  1.7313
  141DOPC  H15Y16748   2.546   5.049  11.540  1.1778 -1.4504  0.1723
  141DOPC  C31616749   2.584   4.982  11.339  0.2886 -0.3634 -0.2174
  141DOPC  H16X16750   2.543   5.004  11.239  2.2530  0.8877 -0.8118
  141DOPC  H16Y16751   2.695   4.984  11.340  0.2988  0.0285  1.6767
  141DOPC  C31716752   2.544   4.832  11.367 -0.9779  0.3556  0.5322
  141DOPC  H17X16753   2.613   4.773  11.303  1.5177 -1.0900  4.1792
  141DOPC  H17Y16754   2.579   4.816  11.471 -0.7074  2.0597  0.7255
  141DOPC  C31816755   2.399   4.793  11.340 -0.6742  0.3092  0.1236
  141DOPC  H18X16756   2.390   4.685  11.316  0.5000 -1.2906  5.5247
  141DOPC  H18Y16757   2.336   4.815  11.430  2.2949  3.0273  1.7521
  141DOPC  H18Z16758   2.354   4.853  11.258  0.3486  0.3758 -0.3981
  142DOPC     N16759   4.032   5.289  13.239 -0.2698  0.5526  0.5293
  142DOPC   C1216760   4.115   5.219  13.132  0.0382  0.1941 -0.7392
  142DOPC  H12A16761   4.111   5.116  13.161  0.3604  0.8666  1.9087
  142DOPC  H12B16762   4.219   5.247  13.142  0.1126 -0.1460 -0.5602
  142DOPC   C1316763   4.105   5.255  13.370  0.1271 -0.4780  0.1321
  142DOPC  H13A16764   4.212   5.268  13.359 -0.2213  1.8932 -1.0475
  142DOPC  H13B16765   4.070   5.325  13.445 -1.3372  0.4143 -1.3084
  142DOPC  H13C16766   4.095   5.151  13.395  1.3209 -0.6999 -0.2120
  142DOPC   C1416767   3.889   5.248  13.256  0.0130 -0.3853  0.0982
  142DOPC  H14A16768   3.878   5.147  13.291  0.0252 -1.9077 -3.7144
  142DOPC  H14B16769   3.829   5.319  13.311 -2.4642 -1.4824 -1.0292
  142DOPC  H14C16770   3.843   5.261  13.159 -1.9441  0.1303  1.0412
  142DOPC   C1516771   4.045   5.435  13.224  0.0233 -0.4116  0.1023
  142DOPC  H15A16772   4.014   5.463  13.125 -0.4793 -0.1927  0.3169
  142DOPC  H15B16773   4.148   5.461  13.244  0.3063 -2.8317  2.5580
  142DOPC  H15C16774   3.988   5.485  13.301  1.0028 -1.0256  1.2674
  142DOPC   C1116775   4.085   5.237  12.986  0.0444  0.2323  0.2723
  142DOPC  H11A16776   4.095   5.346  12.967  0.2218  0.4632  1.5812
  142DOPC  H11B16777   4.168   5.200  12.922  1.6841  0.2010  2.3284
  142DOPC     P16778   3.967   5.015  12.941  0.2502  0.4002 -0.1958
  142DOPC   O1316779   3.834   4.961  12.974  0.2111  1.0462  0.0199
  142DOPC   O1416780   4.077   4.960  13.022 -0.5133 -0.1928 -0.3953
  142DOPC   O1216781   3.952   5.178  12.962 -1.0881 -0.0141 -0.0101
  142DOPC   O1116782   3.984   4.988  12.784  0.4944  0.1471 -0.3025
  142DOPC    C116783   4.009   5.077  12.685  0.2815  0.1259 -0.1126
  142DOPC    HA16784   4.090   5.028  12.626 -1.1647 -3.1563  0.4427
  142DOPC    HB16785   4.050   5.172  12.728  0.7036 -0.3972  0.6718
  142DOPC    C216786   3.885   5.110  12.592  0.0574  0.0499 -0.1948
  142DOPC    HS16787   3.802   5.144  12.658 -2.7703  0.3650 -3.6433
  142DOPC   O2116788   3.853   4.996  12.511  0.0420 -0.2333 -0.1837
  142DOPC   C2116789   3.736   4.947  12.525  0.3270 -0.8185  0.1752
  142DOPC   O2216790   3.644   4.981  12.602 -0.1964 -0.2864  0.6392
  142DOPC   C2216791   3.726   4.824  12.439  0.3801 -0.0843 -0.2720
  142DOPC   H2R16792   3.741   4.746  12.517 -1.2017 -0.8151 -0.6588
  142DOPC   H2S16793   3.815   4.816  12.372 -0.3245  1.9368 -1.5343
  142DOPC    C316794   3.911   5.241  12.502  0.2822  0.3420 -0.5193
  142DOPC    HX16795   4.001   5.211  12.444  0.5031 -2.3915  1.0617
  142DOPC    HY16796   3.934   5.329  12.565  0.6591  0.1365 -0.3695
  142DOPC   O3116797   3.808   5.258  12.407  0.2808  0.0427 -0.0600
  142DOPC   C3116798   3.705   5.332  12.452 -1.2823 -0.4148 -0.0723
  142DOPC   O3216799   3.699   5.400  12.550  0.3642 -0.2053 -0.0764
  142DOPC   C3216800   3.611   5.346  12.342 -0.1604  0.1495 -0.5409
  142DOPC   H2X16801   3.516   5.314  12.389  1.0867 -1.9655  0.6839
  142DOPC   H2Y16802   3.602   5.448  12.298 -1.6522  1.4166  2.3909
  142DOPC   C2316803   3.588   4.813  12.380 -0.0672 -0.2829  0.1133
  142DOPC   H3R16804   3.575   4.895  12.307 -1.6483 -1.0161 -0.4742
  142DOPC   H3S16805   3.512   4.820  12.461 -0.2386 -1.9663  0.1362
  142DOPC   C2416806   3.559   4.684  12.305  0.3390 -0.0212  0.6550
  142DOPC   H4R16807   3.451   4.680  12.278  0.0407 -0.9942  1.9040
  142DOPC   H4S16808   3.581   4.593  12.364 -0.8508 -1.0365 -0.3923
  142DOPC   C2516809   3.638   4.673  12.176  0.2212 -0.0518  0.4749
  142DOPC   H5R16810   3.748   4.686  12.186  0.2153 -0.6816  1.5822
  142DOPC   H5S16811   3.611   4.753  12.104  1.2596  0.6047  0.7828
  142DOPC   C2616812   3.615   4.537  12.112  0.5267  0.2532  0.7735
  142DOPC   H6R16813   3.508   4.506  12.104  0.7874 -0.2811 -1.0434
  142DOPC   H6S16814   3.660   4.462  12.180 -1.7869 -2.5788 -0.6093
  142DOPC   C2716815   3.664   4.510  11.965  0.0502 -0.3069 -0.2693
  142DOPC   H7R16816   3.772   4.524  11.945  0.1445 -1.4456 -0.6213
  142DOPC   H7S16817   3.616   4.590  11.906 -0.1867 -0.6861 -0.5917
  142DOPC   C2816818   3.633   4.370  11.914  0.4378 -0.0509  0.0474
  142DOPC   H8R16819   3.523   4.359  11.908  0.3395  1.4015 -1.2763
  142DOPC   H8S16820   3.682   4.302  11.987  2.1593  1.0040 -0.0547
  142DOPC   C2916821   3.692   4.343  11.780  0.3556  0.3005  0.6840
  142DOPC   H9R16822   3.659   4.415  11.704 -0.8223  0.7700  1.6056
  142DOPC  C21016823   3.781   4.248  11.753 -0.2019 -0.2680  0.1638
  142DOPC  H10R16824   3.805   4.236  11.646  0.2081  1.2254  0.0694
  142DOPC  C21116825   3.834   4.144  11.853  0.2424  0.1925  0.2683
  142DOPC  H11R16826   3.821   4.166  11.961  2.1223  0.1706  0.5222
  142DOPC  H11S16827   3.942   4.125  11.836  0.5574  2.1224 -0.1192
  142DOPC  C21216828   3.758   4.016  11.816  0.0388 -0.6573  0.1807
  142DOPC  H12R16829   3.799   3.933  11.878  3.5619  0.4758 -0.3822
  142DOPC  H12S16830   3.768   3.984  11.711  0.4376  0.8304 -0.2567
  142DOPC  C21316831   3.611   4.023  11.862 -0.4429 -0.3040  0.0547
  142DOPC  H13R16832   3.541   4.060  11.785 -1.6489  0.6677  1.5470
  142DOPC  H13S16833   3.604   4.084  11.955 -0.0821  0.2537 -0.2739
  142DOPC  C21416834   3.564   3.880  11.893  0.6419  0.3799  0.0240
  142DOPC  H14R16835   3.467   3.878  11.947  2.3500 -0.7405  3.3223
  142DOPC  H14S16836   3.630   3.822  11.961  0.3990  0.2801  0.1790
  142DOPC  C21516837   3.559   3.789  11.768 -0.3543  0.2201  0.4637
  142DOPC  H15R16838   3.650   3.794  11.705  1.0912 -1.0634  2.3111
  142DOPC  H15S16839   3.470   3.822  11.710 -1.7257 -1.4437  1.5297
  142DOPC  C21616840   3.535   3.638  11.807 -0.7789 -0.1833 -0.3735
  142DOPC  H16R16841   3.430   3.633  11.843  0.1153 -1.7103  2.3605
  142DOPC  H16S16842   3.609   3.620  11.888 -2.0969  3.4766  1.9492
  142DOPC  C21716843   3.557   3.535  11.695 -0.1317 -0.2620  0.7191
  142DOPC  H17R16844   3.664   3.548  11.669 -0.5268 -1.4192 -1.7759
  142DOPC  H17S16845   3.495   3.567  11.608 -1.6253 -0.1972  1.7726
  142DOPC  C21816846   3.530   3.398  11.745 -0.2542 -0.1881  0.1493
  142DOPC  H18R16847   3.547   3.329  11.659 -2.9814  0.6094 -1.1607
  142DOPC  H18S16848   3.424   3.383  11.776 -0.4223 -0.3345 -0.4719
  142DOPC  H18T16849   3.604   3.380  11.826  0.4600 -0.3793 -0.5296
  142DOPC   C3316850   3.633   5.249  12.222  0.0897  0.3157 -0.0980
  142DOPC   H3X16851   3.631   5.143  12.255 -1.9150  1.0013  2.2655
  142DOPC   H3Y16852   3.732   5.261  12.173 -0.4653 -0.1669 -1.4006
  142DOPC   C3416853   3.528   5.252  12.108  0.6049  0.9207 -0.1626
  142DOPC   H4X16854   3.424   5.248  12.146  0.6897 -1.8419 -0.0868
  142DOPC   H4Y16855   3.527   5.157  12.051 -1.0099  1.9581 -1.9700
  142DOPC   C3516856   3.561   5.364  12.008  0.1908 -1.1392  0.3897
  142DOPC   H5X16857   3.645   5.348  11.936 -0.3515 -0.1140 -0.5112
  142DOPC   H5Y16858   3.595   5.450  12.070  1.4497  0.0932 -1.8671
  142DOPC   C3616859   3.443   5.411  11.922 -0.4237 -0.6677  0.5357
  142DOPC   H6X16860   3.460   5.474  11.832 -1.1052 -2.2941 -0.7818
  142DOPC   H6Y16861   3.394   5.320  11.883  0.9748 -0.4640 -1.9087
  142DOPC   C3716862   3.333   5.490  11.997  0.2628  0.1288 -0.2278
  142DOPC   H7X16863   3.268   5.421  12.055 -0.2893 -0.8980 -2.0001
  142DOPC   H7Y16864   3.363   5.566  12.071 -1.7548 -0.1634  0.9669
  142DOPC   C3816865   3.231   5.576  11.902  0.1611 -1.0502 -0.3093
  142DOPC   H8X16866   3.286   5.658  11.852  0.9466 -0.6752  1.1095
  142DOPC   H8Y16867   3.150   5.623  11.962  0.5444 -2.4263  1.3730
  142DOPC   C3916868   3.175   5.497  11.789  0.1194 -0.0261  0.6134
  142DOPC   H9X16869   3.201   5.529  11.687  0.7027 -1.1365  0.4016
  142DOPC  C31016870   3.077   5.404  11.796  0.2494  0.3058 -0.1350
  142DOPC  H10X16871   3.068   5.341  11.707  1.2247  1.1597 -0.8573
  142DOPC  C31116872   3.005   5.358  11.921 -0.5135 -0.9436  0.4105
  142DOPC  H11X16873   3.065   5.387  12.010  0.8201  0.6102 -0.9420
  142DOPC  H11Y16874   3.013   5.248  11.908 -1.5900 -0.8488 -1.3502
  142DOPC  C31216875   2.848   5.384  11.932  0.0479 -0.8586  0.1794
  142DOPC  H12X16876   2.818   5.338  12.029  1.9239  0.7339  1.6168
  142DOPC  H12Y16877   2.808   5.324  11.847  0.1914 -1.2227  0.3668
  142DOPC  C31316878   2.807   5.534  11.939 -0.5398 -0.1318  0.6258
  142DOPC  H13X16879   2.852   5.595  12.021 -0.3877 -0.7337  0.9941
  142DOPC  H13Y16880   2.842   5.576  11.843 -1.5034 -1.7792 -0.4834
  142DOPC  C31416881   2.658   5.558  11.949 -0.2914 -0.4050  0.0590
  142DOPC  H14X16882   2.615   5.511  11.859  2.7864 -0.8626 -1.3173
  142DOPC  H14Y16883   2.636   5.501  12.042 -0.1212  2.0116  1.6839
  142DOPC  C31516884   2.615   5.705  11.968 -0.4620 -0.1460  0.1404
  142DOPC  H15X16885   2.648   5.771  11.885 -0.4694  0.8082  0.8713
  142DOPC  H15Y16886   2.665   5.739  12.061 -0.0822 -2.9955  1.0633
  142DOPC  C31616887   2.461   5.711  11.960 -0.0352 -0.7671 -0.6617
  142DOPC  H16X16888   2.418   5.660  11.871 -0.2233 -0.2734 -0.8582
  142DOPC  H16Y16889   2.425   5.653  12.048  1.1520 -1.4029 -0.5769
  142DOPC  C31716890   2.402   5.855  11.942  1.0878  0.2236 -0.3493
  142DOPC  H17X16891   2.433   5.908  12.034  2.5925 -4.0343  1.8805
  142DOPC  H17Y16892   2.458   5.901  11.858 -0.9608  1.6332 -1.0433
  142DOPC  C31816893   2.253   5.850  11.912  0.2828 -0.2318 -0.1492
  142DOPC  H18X16894   2.240   5.839  11.803  0.8285 -1.4196 -0.1127
  142DOPC  H18Y16895   2.191   5.779  11.972  0.9868  0.9910  2.1309
  142DOPC  H18Z16896   2.210   5.952  11.925  0.4680 -0.0521 -0.9063
  143DOPC     N16897   1.841   7.582  13.262 -0.3603 -0.5361  0.2902
  143DOPC   C1216898   1.814   7.717  13.194 -0.1559  0.0252 -1.0831
  143DOPC  H12A16899   1.905   7.740  13.141  0.6595 -2.6122 -0.9732
  143DOPC  H12B16900   1.796   7.790  13.271 -2.0441  0.1408 -1.5834
  143DOPC   C1316901   1.731   7.555  13.367 -0.8278 -0.4453  0.5624
  143DOPC  H13A16902   1.735   7.617  13.456  2.7218 -1.7416  1.4635
  143DOPC  H13B16903   1.633   7.570  13.324 -0.6948 -0.2649  0.3211
  143DOPC  H13C16904   1.733   7.455  13.407 -0.6293 -1.4756 -1.8668
  143DOPC   C1416905   1.979   7.577  13.314 -0.7440  0.3974  0.4147
  143DOPC  H14A16906   1.990   7.480  13.359  1.6977  1.0633  1.4071
  143DOPC  H14B16907   2.043   7.580  13.227  1.2828 -3.6673  1.5185
  143DOPC  H14C16908   2.000   7.660  13.381 -0.6075 -0.2178  1.1390
  143DOPC   C1516909   1.819   7.467  13.164  0.0756 -0.7546 -0.0444
  143DOPC  H15A16910   1.888   7.462  13.081 -0.4042  1.8079 -0.6776
  143DOPC  H15B16911   1.724   7.493  13.120  0.2057  1.3099  0.7844
  143DOPC  H15C16912   1.810   7.379  13.227 -2.4686  0.8459  2.0161
  143DOPC   C1116913   1.696   7.719  13.099 -0.2854  0.9974 -0.4922
  143DOPC  H11A16914   1.693   7.814  13.041 -0.9258  2.2607  1.5139
  143DOPC  H11B16915   1.704   7.637  13.024 -0.9308  0.6710 -0.2153
  143DOPC     P16916   1.451   7.618  13.154  0.1117  0.2195  0.1447
  143DOPC   O1316917   1.348   7.655  13.253 -0.4123  0.2802 -0.0894
  143DOPC   O1416918   1.502   7.482  13.176 -0.2264 -0.1568 -0.4699
  143DOPC   O1216919   1.574   7.724  13.171  0.9378 -0.1976 -0.1516
  143DOPC   O1116920   1.399   7.634  13.002  0.1858 -0.3209  0.1301
  143DOPC    C116921   1.367   7.767  12.951 -0.1485 -0.3688  0.6880
  143DOPC    HA16922   1.425   7.786  12.858  0.5741 -2.1645  0.7471
  143DOPC    HB16923   1.401   7.851  13.015  0.7031  0.5423 -0.9017
  143DOPC    C216924   1.212   7.786  12.927 -0.0446  0.4324 -0.0303
  143DOPC    HS16925   1.164   7.773  13.026 -1.3064 -4.2114 -0.9783
  143DOPC   O2116926   1.179   7.667  12.852  0.5996  0.3160 -0.1188
  143DOPC   C2116927   1.062   7.617  12.872  0.2113 -0.8024  0.3174
  143DOPC   O2216928   0.978   7.660  12.947  0.3024 -0.4482 -0.3085
  143DOPC   C2216929   1.040   7.500  12.784 -0.5550 -0.0679  0.7148
  143DOPC   H2R16930   1.077   7.410  12.837  0.9795  1.3327  2.1166
  143DOPC   H2S16931   1.102   7.509  12.692  0.6690 -3.2640  1.1014
  143DOPC    C316932   1.179   7.918  12.852 -0.5747 -0.0524  0.3833
  143DOPC    HX16933   1.209   8.007  12.912  0.6252  0.0551 -0.3541
  143DOPC    HY16934   1.071   7.913  12.824 -0.6700  0.7231  0.5754
  143DOPC   O3116935   1.249   7.931  12.727 -0.4273 -0.3944 -0.4678
  143DOPC   C3116936   1.360   7.999  12.733  0.1122 -0.2641 -1.0880
  143DOPC   O3216937   1.408   8.060  12.831 -0.1796  0.2441  0.2737
  143DOPC   C3216938   1.422   7.988  12.600  0.3854 -0.0194  0.9496
  143DOPC   H2X16939   1.457   7.883  12.585  1.0136  0.2313  0.6388
  143DOPC   H2Y16940   1.351   8.029  12.525  2.9003  2.1737 -0.3731
  143DOPC   C2316941   0.888   7.491  12.746 -0.1217  0.3317 -0.1520
  143DOPC   H3R16942   0.853   7.589  12.706 -1.3517  1.3447  3.0782
  143DOPC   H3S16943   0.838   7.455  12.838 -0.5048  0.4676 -0.3064
  143DOPC   C2416944   0.851   7.393  12.637 -0.0922  0.2608 -0.1504
  143DOPC   H4R16945   0.873   7.297  12.688 -0.8807  1.3168  2.3314
  143DOPC   H4S16946   0.915   7.413  12.548 -1.1332 -2.2251 -1.5659
  143DOPC   C2516947   0.702   7.386  12.604 -0.2463 -0.3820 -0.6353
  143DOPC   H5R16948   0.673   7.485  12.565  0.6158 -0.3597 -1.2694
  143DOPC   H5S16949   0.645   7.372  12.698 -1.7732 -1.3965 -1.6651
  143DOPC   C2616950   0.672   7.270  12.505 -0.1660 -0.0719  0.2851
  143DOPC   H6R16951   0.695   7.178  12.562 -1.8258  0.8485  2.5901
  143DOPC   H6S16952   0.736   7.271  12.414 -0.5169  2.0038  0.0142
  143DOPC   C2716953   0.523   7.281  12.462  0.1701  0.0523  0.3929
  143DOPC   H7R16954   0.520   7.382  12.415  0.4510 -0.9864 -1.9861
  143DOPC   H7S16955   0.446   7.275  12.542  0.7593 -0.9255  0.9100
  143DOPC   C2816956   0.487   7.158  12.373  0.2700 -0.0301 -0.0759
  143DOPC   H8R16957   0.562   7.137  12.294  2.0223 -0.7846  1.7012
  143DOPC   H8S16958   0.389   7.182  12.325  1.2708 -0.2741 -2.3828
  143DOPC   C2916959   0.484   7.039  12.464 -0.0040 -0.5183 -0.2477
  143DOPC   H9R16960   0.578   7.021  12.518  0.2552 -2.3360 -1.2304
  143DOPC  C21016961   0.378   6.963  12.486 -0.4799  0.5839 -0.1935
  143DOPC  H10R16962   0.390   6.887  12.565 -0.0767  0.3703 -0.4608
  143DOPC  C21116963   0.240   6.961  12.425 -0.2927 -0.2106 -0.1804
  143DOPC  H11R16964   0.205   7.060  12.389  1.6579  0.6913  0.2903
  143DOPC  H11S16965   0.173   6.921  12.503 -0.3915  0.5820  0.1548
  143DOPC  C21216966   0.245   6.872  12.299 -0.1277 -0.2338  0.0361
  143DOPC  H12R16967   0.139   6.842  12.288  1.0084 -4.4190 -1.3131
  143DOPC  H12S16968   0.295   6.773  12.311 -0.0108  0.0770  2.6063
  143DOPC  C21316969   0.305   6.938  12.178  0.2249 -0.0487  0.0641
  143DOPC  H13R16970   0.416   6.945  12.178  0.3326 -1.4336  0.7395
  143DOPC  H13S16971   0.256   7.034  12.151  0.8787 -0.4471 -2.8005
  143DOPC  C21416972   0.273   6.849  12.049  0.2655 -0.0903 -0.1874
  143DOPC  H14R16973   0.165   6.844  12.026 -0.1035 -0.7105  1.5250
  143DOPC  H14S16974   0.311   6.748  12.074  0.1539 -0.2105 -0.5074
  143DOPC  C21516975   0.353   6.896  11.919  0.3562  0.1967 -0.4242
  143DOPC  H15R16976   0.460   6.904  11.951 -0.2153  0.7070  1.5458
  143DOPC  H15S16977   0.320   7.000  11.900 -1.2475  0.5551  3.3395
  143DOPC  C21616978   0.332   6.804  11.795  0.1361 -0.7421 -0.7216
  143DOPC  H16R16979   0.339   6.702  11.838 -0.6969 -0.4139  0.2079
  143DOPC  H16S16980   0.405   6.825  11.714  1.8632  1.2545  1.2157
  143DOPC  C21716981   0.183   6.815  11.743 -0.1095  0.7694 -0.0816
  143DOPC  H17R16982   0.111   6.821  11.827 -0.6466 -1.0088 -0.3761
  143DOPC  H17S16983   0.154   6.717  11.698 -1.7737  1.7153 -1.1906
  143DOPC  C21816984   0.150   6.931  11.652 -0.0548 -0.3845 -0.0964
  143DOPC  H18R16985   0.223   6.944  11.570  0.1134 -0.0986  0.0998
  143DOPC  H18S16986   0.159   7.024  11.713  0.8827 -0.3908 -0.2134
  143DOPC  H18T16987   0.052   6.938  11.599  0.1609  2.0541 -0.3032
  143DOPC   C3316988   1.557   8.065  12.590 -0.2449 -0.3349  0.2796
  143DOPC   H3X16989   1.625   8.060  12.677 -0.2901 -0.0622  0.3321
  143DOPC   H3Y16990   1.521   8.170  12.591 -2.9394 -1.1588  1.6603
  143DOPC   C3416991   1.633   8.035  12.457 -0.3763  0.7575  0.2898
  143DOPC   H4X16992   1.623   7.925  12.440 -2.6340  0.8396  0.7867
  143DOPC   H4Y16993   1.738   8.068  12.470 -0.8199  3.0652 -1.4022
  143DOPC   C3516994   1.580   8.109  12.335 -0.2667 -0.1156 -0.2795
  143DOPC   H5X16995   1.572   8.215  12.367  0.0783 -0.2309  0.2069
  143DOPC   H5Y16996   1.485   8.061  12.303  0.5395 -1.2680 -1.0047
  143DOPC   C3616997   1.681   8.098  12.223 -0.5039 -0.2992 -0.1021
  143DOPC   H6X16998   1.749   8.186  12.224 -0.0501 -0.6129 -1.2689
  143DOPC   H6Y16999   1.758   8.020  12.244  0.1042  0.3568  0.1340
  143DOPC   C3717000   1.618   8.057  12.093 -0.2725 -0.2285  1.0331
  143DOPC   H7X17001   1.693   8.038  12.014 -1.0405  0.3759  0.1407
  143DOPC   H7Y17002   1.563   7.964  12.116  0.8437 -1.0012  0.6743
  143DOPC   C3817003   1.514   8.154  12.028  0.2759 -0.2593 -0.9794
  143DOPC   H8X17004   1.429   8.174  12.096  0.4612  0.8754 -1.0569
  143DOPC   H8Y17005   1.467   8.087  11.953  2.7081 -3.2410 -0.0655
  143DOPC   C3917006   1.570   8.281  11.975 -0.3012  0.3274  0.1450
  143DOPC   H9X17007   1.579   8.361  12.049  1.2276 -0.5381  0.9290
  143DOPC  C31017008   1.603   8.300  11.845 -0.1135 -0.1494  0.1023
  143DOPC  H10X17009   1.646   8.399  11.825 -0.0801 -0.2800 -0.5012
  143DOPC  C31117010   1.593   8.211  11.723  0.2746  0.1125  0.3576
  143DOPC  H11X17011   1.530   8.123  11.746 -0.2955 -0.0667 -1.6464
  143DOPC  H11Y17012   1.688   8.190  11.668 -0.1227  0.0937 -0.3305
  143DOPC  C31217013   1.498   8.285  11.622 -0.1632 -0.1426  0.2804
  143DOPC  H12X17014   1.559   8.361  11.569 -1.6935  0.9439 -0.0275
  143DOPC  H12Y17015   1.410   8.325  11.678 -1.4077 -0.6668 -1.2221
  143DOPC  C31317016   1.438   8.192  11.515 -0.0401  0.4191 -0.0309
  143DOPC  H13X17017   1.519   8.171  11.442 -0.1745 -1.1831  0.2467
  143DOPC  H13Y17018   1.404   8.100  11.566  1.8754 -0.7582 -0.7803
  143DOPC  C31417019   1.321   8.250  11.438  0.1195 -0.2724 -0.4023
  143DOPC  H14X17020   1.236   8.277  11.504 -0.0354 -0.6118 -0.4579
  143DOPC  H14Y17021   1.363   8.342  11.392 -0.0870  1.1980  2.1465
  143DOPC  C31517022   1.267   8.165  11.321 -0.1126  0.2921 -0.2721
  143DOPC  H15X17023   1.215   8.078  11.367 -0.8641  0.5201 -0.6787
  143DOPC  H15Y17024   1.352   8.122  11.264  1.4693  1.4521  1.1208
  143DOPC  C31617025   1.179   8.242  11.221  0.1413  0.2056 -1.2300
  143DOPC  H16X17026   1.147   8.177  11.137 -0.3367  1.8949 -2.4114
  143DOPC  H16Y17027   1.086   8.286  11.263 -0.0517  0.2106 -1.6590
  143DOPC  C31717028   1.254   8.351  11.150  0.6504  0.3481  0.3874
  143DOPC  H17X17029   1.259   8.441  11.215 -1.2400  0.5431  0.3106
  143DOPC  H17Y17030   1.356   8.321  11.120  0.3217 -1.0156  0.6018
  143DOPC  C31817031   1.197   8.388  11.015 -0.5200  0.2694  0.5009
  143DOPC  H18X17032   1.179   8.297  10.953 -3.2185  1.6683 -0.9650
  143DOPC  H18Y17033   1.093   8.423  11.035 -1.3468 -0.6202 -1.8605
  143DOPC  H18Z17034   1.251   8.459  10.949 -0.2360  1.2689  1.7762
  144DOPC     N17035   1.957   4.425  12.617  0.1771  0.1797  0.5277
  144DOPC   C1217036   1.839   4.506  12.656 -0.3993 -0.6063  0.8973
  144DOPC  H12A17037   1.834   4.582  12.579 -0.3844 -1.2087  0.2958
  144DOPC  H12B17038   1.862   4.555  12.750 -0.8243  1.4644 -0.0189
  144DOPC   C1317039   2.078   4.516  12.617 -1.1088 -0.8684  0.4664
  144DOPC  H13A17040   2.166   4.454  12.604 -2.7611 -3.0718 -1.0199
  144DOPC  H13B17041   2.084   4.591  12.541 -0.4591  0.5549  1.8683
  144DOPC  H13C17042   2.087   4.562  12.714  1.0286 -2.9030  1.3417
  144DOPC   C1417043   1.942   4.357  12.483 -0.6715 -0.5711  0.4598
  144DOPC  H14A17044   1.935   4.429  12.403 -1.2494 -0.3388  0.7112
  144DOPC  H14B17045   2.029   4.300  12.456 -0.3754  0.4862 -0.9540
  144DOPC  H14C17046   1.859   4.288  12.491  0.6487 -2.1631  0.9793
  144DOPC   C1517047   1.972   4.322  12.717  0.1868  0.7521  0.6653
  144DOPC  H15A17048   1.891   4.255  12.738  1.0421 -0.2354  0.8682
  144DOPC  H15B17049   1.990   4.361  12.817 -1.1299 -0.5997  1.4690
  144DOPC  H15C17050   2.062   4.269  12.691 -1.4686 -2.0387  0.2173
  144DOPC   C1117051   1.706   4.449  12.663 -0.2754 -0.4421  0.3773
  144DOPC  H11A17052   1.637   4.536  12.672  1.5444  0.9728  1.3627
  144DOPC  H11B17053   1.681   4.406  12.564  0.8405  1.1386 -0.6505
  144DOPC     P17054   1.637   4.220  12.780 -0.1925 -0.4319 -0.3002
  144DOPC   O1317055   1.496   4.212  12.819  0.3782  0.0047 -0.1226
  144DOPC   O1417056   1.733   4.148  12.869  0.1525 -0.4141  0.2370
  144DOPC   O1217057   1.678   4.373  12.780 -1.0206  0.0390  0.4665
  144DOPC   O1117058   1.658   4.175  12.625 -0.0013 -0.1376  0.2768
  144DOPC    C117059   1.680   4.038  12.607 -0.0113  0.3194  1.0655
  144DOPC    HA17060   1.591   3.976  12.632 -0.5167  1.5169  2.3620
  144DOPC    HB17061   1.757   3.996  12.674  0.9925  1.1707  0.4761
  144DOPC    C217062   1.726   4.017  12.461 -0.2345 -0.2279  0.4283
  144DOPC    HS17063   1.829   4.057  12.454 -0.0919 -0.3283  1.6578
  144DOPC   O2117064   1.631   4.069  12.368  0.0779 -0.7384  0.4344
  144DOPC   C2117065   1.683   4.139  12.267 -0.7463 -0.2618 -1.1777
  144DOPC   O2217066   1.804   4.156  12.247 -0.3890 -0.4402 -0.0312
  144DOPC   C2217067   1.569   4.180  12.173 -0.2683  0.6839 -0.0401
  144DOPC   H2R17068   1.498   4.225  12.246  1.4155  2.3959  0.6190
  144DOPC   H2S17069   1.521   4.090  12.128  0.2376  0.3434  0.0897
  144DOPC    C317070   1.723   3.863  12.435  0.1713  0.7424  0.0312
  144DOPC    HX17071   1.623   3.816  12.427  1.6103 -2.3659 -2.1593
  144DOPC    HY17072   1.771   3.810  12.520 -1.8443 -0.8778  0.2409
  144DOPC   O3117073   1.784   3.825  12.311 -0.3615 -0.0117 -0.1039
  144DOPC   C3117074   1.904   3.764  12.306 -0.0700 -0.8038  0.5855
  144DOPC   O3217075   1.972   3.736  12.401  0.4451 -0.2524  0.7418
  144DOPC   C3217076   1.935   3.734  12.164 -0.3103 -0.3032 -0.2754
  144DOPC   H2X17077   1.899   3.631  12.144  1.9657 -0.7821 -2.3172
  144DOPC   H2Y17078   1.880   3.802  12.096 -0.2521 -1.4841 -1.5306
  144DOPC   C2317079   1.607   4.291  12.070  0.3180 -0.8503 -0.4715
  144DOPC   H3R17080   1.676   4.248  11.995  0.6532  1.7413 -1.7882
  144DOPC   H3S17081   1.661   4.374  12.121 -1.5087 -0.3359  0.7338
  144DOPC   C2417082   1.480   4.342  11.989  0.2276  0.2505 -0.0151
  144DOPC   H4R17083   1.510   4.436  11.938 -1.0878  1.2893  1.0548
  144DOPC   H4S17084   1.410   4.375  12.068  0.3092 -0.9879  0.6082
  144DOPC   C2517085   1.424   4.242  11.884  0.4399 -0.3906  0.5416
  144DOPC   H5R17086   1.389   4.144  11.924  1.4280 -1.2034 -0.5093
  144DOPC   H5S17087   1.501   4.220  11.807 -1.3587 -0.0897 -1.4225
  144DOPC   C2617088   1.325   4.312  11.790  0.1474  0.2018 -0.0748
  144DOPC   H6R17089   1.369   4.402  11.742  2.1426  0.0922  1.4273
  144DOPC   H6S17090   1.233   4.352  11.838 -0.4785 -1.9626  0.6893
  144DOPC   C2717091   1.276   4.216  11.673  0.4128 -0.0363 -0.4609
  144DOPC   H7R17092   1.214   4.132  11.712 -0.5011 -0.1531 -2.0690
  144DOPC   H7S17093   1.371   4.178  11.631  1.1597  0.5202  0.6716
  144DOPC   C2817094   1.207   4.297  11.564  0.3787 -0.1204  0.2837
  144DOPC   H8R17095   1.263   4.393  11.553  0.4547  0.0494  1.9084
  144DOPC   H8S17096   1.103   4.320  11.595  0.8405 -1.0212  2.7526
  144DOPC   C2917097   1.195   4.209  11.438 -0.5008 -0.5892 -0.0390
  144DOPC   H9R17098   1.142   4.114  11.456  0.2361 -0.8368  0.8785
  144DOPC  C21017099   1.252   4.229  11.313  0.2411  0.5815 -0.1857
  144DOPC  H10R17100   1.222   4.156  11.236 -1.7132  1.3620 -0.2144
  144DOPC  C21117101   1.325   4.348  11.265  0.2658 -0.2834 -0.4062
  144DOPC  H11R17102   1.431   4.322  11.248  0.2695 -1.5122  1.2804
  144DOPC  H11S17103   1.314   4.431  11.339  1.9598  1.1655 -1.7250
  144DOPC  C21217104   1.274   4.410  11.133 -0.0480  0.0717 -0.6457
  144DOPC  H12R17105   1.335   4.496  11.099 -1.7738  1.0400 -1.4662
  144DOPC  H12S17106   1.169   4.443  11.151 -1.1084 -3.8677  1.5770
  144DOPC  C21317107   1.257   4.321  11.011  0.2951 -0.0392 -0.0490
  144DOPC  H13R17108   1.180   4.245  11.033  1.4541 -1.0226  0.6779
  144DOPC  H13S17109   1.357   4.274  11.002  0.2607 -0.3105  0.9058
  144DOPC  C21417110   1.199   4.390  10.883 -0.6312 -0.1132  0.2188
  144DOPC  H14R17111   1.257   4.484  10.870 -2.3909  0.9523 -0.3045
  144DOPC  H14S17112   1.093   4.421  10.899 -0.9291 -1.1618  0.3731
  144DOPC  C21517113   1.213   4.286  10.763  0.4894  0.2704  0.3827
  144DOPC  H15R17114   1.174   4.190  10.804  1.2982 -0.4216 -0.4087
  144DOPC  H15S17115   1.321   4.279  10.737  0.0386 -0.6478 -1.4030
  144DOPC  C21617116   1.135   4.329  10.641 -0.1538 -0.1130  0.7230
  144DOPC  H16R17117   1.206   4.393  10.583 -1.7304  0.6522 -0.4455
  144DOPC  H16S17118   1.050   4.397  10.664  1.8212  1.9820  2.1920
  144DOPC  C21717119   1.099   4.206  10.550 -0.3020 -0.6033  0.1638
  144DOPC  H17R17120   1.024   4.145  10.603  1.0661 -1.8934  0.6749
  144DOPC  H17S17121   1.185   4.136  10.551 -0.1595 -0.4323  1.7612
  144DOPC  C21817122   1.050   4.238  10.402  0.6033  0.2912 -0.2166
  144DOPC  H18R17123   0.946   4.276  10.390 -0.2548 -1.1757  1.8189
  144DOPC  H18S17124   1.054   4.147  10.339 -0.6709  1.8384 -2.6754
  144DOPC  H18T17125   1.122   4.305  10.352 -0.8792  1.3400 -1.0278
  144DOPC   C3317126   2.087   3.728  12.141 -0.0595 -0.2555 -0.7457
  144DOPC   H3X17127   2.105   3.625  12.178 -1.0258 -0.9881 -2.1865
  144DOPC   H3Y17128   2.142   3.785  12.219  2.9688 -1.7907 -1.5871
  144DOPC   C3417129   2.136   3.746  11.997 -0.3721 -0.3759 -0.0973
  144DOPC   H4X17130   2.141   3.853  11.968 -1.9055 -0.8960 -2.5442
  144DOPC   H4Y17131   2.068   3.706  11.919  0.3399  1.5559 -1.8015
  144DOPC   C3517132   2.273   3.678  11.977  0.2205 -0.2073 -0.3997
  144DOPC   H5X17133   2.259   3.571  12.001 -0.2604 -0.8141 -3.0539
  144DOPC   H5Y17134   2.349   3.716  12.047 -2.4320  0.1565  2.5019
  144DOPC   C3617135   2.324   3.703  11.836 -0.0448  0.6026 -0.0432
  144DOPC   H6X17136   2.252   3.661  11.763 -1.0339  1.4341  0.4176
  144DOPC   H6Y17137   2.324   3.814  11.824 -0.7773  0.3371 -3.2761
  144DOPC   C3717138   2.471   3.663  11.810 -0.0423 -0.2398 -0.6668
  144DOPC   H7X17139   2.546   3.732  11.854 -0.6340 -1.3719  2.2859
  144DOPC   H7Y17140   2.480   3.564  11.858  2.5572 -0.8964 -2.3220
  144DOPC   C3817141   2.496   3.654  11.663  0.0813  0.5043 -0.6430
  144DOPC   H8X17142   2.494   3.756  11.619  0.3356  0.8178  0.0544
  144DOPC   H8Y17143   2.410   3.599  11.620 -1.6725  1.0905  1.9185
  144DOPC   C3917144   2.616   3.579  11.633  0.0373 -1.0939 -0.1976
  144DOPC   H9X17145   2.629   3.486  11.690 -1.0411 -0.5991  0.9208
  144DOPC  C31017146   2.717   3.628  11.562  0.5158 -0.6121 -0.3487
  144DOPC  H10X17147   2.807   3.565  11.555  0.7848 -0.2687 -0.0164
  144DOPC  C31117148   2.727   3.761  11.479  0.4220 -0.5458 -0.1148
  144DOPC  H11X17149   2.623   3.795  11.458  1.2528  1.8031 -0.7259
  144DOPC  H11Y17150   2.781   3.748  11.382  1.5676  0.4849  0.3629
  144DOPC  C31217151   2.787   3.878  11.559 -0.7949  0.4185  0.1835
  144DOPC  H12X17152   2.897   3.869  11.572 -0.8533  0.5995  0.8708
  144DOPC  H12Y17153   2.744   3.887  11.661 -3.6630 -1.6876 -0.7412
  144DOPC  C31317154   2.758   4.013  11.489  0.0707 -0.0315 -0.0036
  144DOPC  H13X17155   2.801   4.009  11.386 -0.7203  1.4074 -0.4080
  144DOPC  H13Y17156   2.650   4.023  11.467 -0.1905  2.3588  1.9529
  144DOPC  C31417157   2.812   4.144  11.558  0.4262 -0.1942  0.1658
  144DOPC  H14X17158   2.763   4.144  11.657 -1.3902 -0.8466 -0.6784
  144DOPC  H14Y17159   2.922   4.133  11.562  0.4347 -1.0568 -1.4258
  144DOPC  C31517160   2.752   4.260  11.481 -0.0618  0.3193  0.1573
  144DOPC  H15X17161   2.643   4.249  11.503 -0.0402  0.3510  0.2810
  144DOPC  H15Y17162   2.764   4.241  11.372 -0.8102  1.6580 -0.1820
  144DOPC  C31617163   2.786   4.396  11.545 -0.5168 -0.2332 -0.4047
  144DOPC  H16X17164   2.698   4.434  11.601 -0.6443  0.6936 -1.2106
  144DOPC  H16Y17165   2.865   4.371  11.619 -2.6883 -1.7993  1.5450
  144DOPC  C31717166   2.823   4.497  11.448  1.0165 -0.4695  0.2263
  144DOPC  H17X17167   2.905   4.465  11.381  0.7625 -1.2532  0.2811
  144DOPC  H17Y17168   2.745   4.485  11.369  4.0551 -0.3839 -3.0190
  144DOPC  C31817169   2.841   4.637  11.508  0.3165 -0.3649 -0.4777
  144DOPC  H18X17170   2.864   4.714  11.431 -2.8203  0.2000 -0.9777
  144DOPC  H18Y17171   2.750   4.671  11.562 -0.1884  2.6151 -2.9530
  144DOPC  H18Z17172   2.927   4.632  11.579 -0.6590 -1.3794  0.6818
  145DOPC     N17173   2.330   6.822  13.281 -0.1747 -0.3655  0.0333
  145DOPC   C1217174   2.467   6.784  13.338 -0.6808  0.2896  0.6147
  145DOPC  H12A17175   2.450   6.771  13.444 -2.1291  0.9910  0.4879
  145DOPC  H12B17176   2.524   6.876  13.334 -2.3218  1.3954  1.6035
  145DOPC   C1317177   2.268   6.941  13.343 -0.0138  0.0682  0.1287
  145DOPC  H13A17178   2.179   6.976  13.293  0.7149  2.9921  0.6673
  145DOPC  H13B17179   2.254   6.931  13.450 -1.8013  1.1858  0.0406
  145DOPC  H13C17180   2.329   7.030  13.340  0.8082 -0.4449  1.0866
  145DOPC   C1417181   2.228   6.710  13.311  0.1473  0.4714 -0.1349
  145DOPC  H14A17182   2.133   6.732  13.265 -1.6403 -1.5736  2.2878
  145DOPC  H14B17183   2.263   6.622  13.260 -0.2324 -0.0345  0.4576
  145DOPC  H14C17184   2.215   6.692  13.417  3.7045 -0.8409  0.2001
  145DOPC   C1517185   2.334   6.844  13.133  0.5198 -0.2876 -0.8311
  145DOPC  H15A17186   2.249   6.906  13.111 -1.0432 -1.7660  0.6772
  145DOPC  H15B17187   2.323   6.751  13.079 -0.1002 -0.1883 -0.8791
  145DOPC  H15C17188   2.423   6.895  13.099  1.5802 -2.2850 -1.2047
  145DOPC   C1117189   2.550   6.668  13.283 -0.4291  0.2889 -0.0876
  145DOPC  H11A17190   2.646   6.655  13.339  0.2286  0.9878 -1.0245
  145DOPC  H11B17191   2.496   6.572  13.300 -1.5255  0.2377 -3.3280
  145DOPC     P17192   2.687   6.797  13.111  0.3504  0.0412  0.1235
  145DOPC   O1317193   2.807   6.728  13.063  0.7315  0.4622 -0.0736
  145DOPC   O1417194   2.703   6.904  13.214  0.4341  0.8413  0.1131
  145DOPC   O1217195   2.573   6.695  13.149  0.7499 -0.5273 -0.5190
  145DOPC   O1117196   2.615   6.875  12.993  0.5051 -0.0163  0.0849
  145DOPC    C117197   2.538   6.811  12.886 -0.1875  0.1606 -0.0531
  145DOPC    HA17198   2.428   6.812  12.903 -0.9267 -3.0285 -3.2754
  145DOPC    HB17199   2.568   6.704  12.888 -0.4494  0.0921  0.6333
  145DOPC    C217200   2.581   6.868  12.748  0.4639  0.0510 -0.8927
  145DOPC    HS17201   2.525   6.819  12.666 -0.8039  0.0764 -0.0838
  145DOPC   O2117202   2.725   6.870  12.734 -0.2553 -0.0483 -0.5423
  145DOPC   C2117203   2.778   6.749  12.716  0.5640  0.0852  0.0882
  145DOPC   O2217204   2.729   6.638  12.722  0.2529 -0.3950  0.5490
  145DOPC   C2217205   2.929   6.768  12.694  0.4326  0.8584  0.5855
  145DOPC   H2R17206   2.960   6.675  12.642  0.0382  1.0119  0.0640
  145DOPC   H2S17207   2.971   6.757  12.796  4.2118  0.4261 -0.8731
  145DOPC    C317208   2.534   7.012  12.747  0.0452  0.1490 -0.6229
  145DOPC    HX17209   2.587   7.065  12.665  1.0941  0.9495  0.5311
  145DOPC    HY17210   2.560   7.069  12.839 -1.8839 -0.2027  0.1818
  145DOPC   O3117211   2.390   7.007  12.720  0.0443  0.3110  0.5383
  145DOPC   C3117212   2.314   7.076  12.802  0.6605 -0.2405  0.4196
  145DOPC   O3217213   2.346   7.110  12.913  0.2159  0.0368 -0.5194
  145DOPC   C3217214   2.182   7.116  12.733 -0.0955 -0.2198 -0.2032
  145DOPC   H2X17215   2.148   7.041  12.659  1.7699 -0.3891 -0.9461
  145DOPC   H2Y17216   2.106   7.114  12.813  0.6155 -2.2612  0.4803
  145DOPC   C2317217   2.975   6.902  12.632 -0.8560  0.0638  0.0189
  145DOPC   H3R17218   2.935   6.986  12.693  0.7330  0.9914 -0.1534
  145DOPC   H3S17219   2.926   6.925  12.535 -3.5162 -0.7452  1.0797
  145DOPC   C2417220   3.119   6.908  12.602 -0.0064  0.5767  0.0637
  145DOPC   H4R17221   3.149   6.840  12.520 -1.9270  0.0920 -0.2763
  145DOPC   H4S17222   3.178   6.879  12.692 -0.5676  0.3335  0.3527
  145DOPC   C2517223   3.161   7.043  12.545 -0.4171  0.3042 -0.1666
  145DOPC   H5R17224   3.152   7.124  12.621 -1.9076  1.6700 -1.7167
  145DOPC   H5S17225   3.091   7.067  12.462 -1.3281  2.2091  1.0832
  145DOPC   C2617226   3.310   7.035  12.494  0.4698  0.3758  0.7562
  145DOPC   H6R17227   3.316   6.954  12.417  1.6600  1.9181 -0.8645
  145DOPC   H6S17228   3.370   7.001  12.581  0.2717  0.8824  1.0933
  145DOPC   C2717229   3.333   7.165  12.419 -0.7907 -0.6982  0.3015
  145DOPC   H7R17230   3.312   7.249  12.490 -0.2486  0.7345 -1.1623
  145DOPC   H7S17231   3.257   7.179  12.339 -1.0227 -2.7814  0.1127
  145DOPC   C2817232   3.469   7.178  12.351  0.7044  0.6170  0.8660
  145DOPC   H8R17233   3.550   7.150  12.421  2.2808 -3.2109 -2.1446
  145DOPC   H8S17234   3.482   7.283  12.317  0.0128  0.1002 -1.1427
  145DOPC   C2917235   3.495   7.095  12.223 -0.0446 -0.3220 -0.4731
  145DOPC   H9R17236   3.497   6.987  12.243 -0.2753 -0.6069 -1.8451
  145DOPC  C21017237   3.525   7.140  12.098  0.5925 -0.6873 -0.0505
  145DOPC  H10R17238   3.542   7.064  12.020 -1.3999 -0.9480 -0.2853
  145DOPC  C21117239   3.530   7.285  12.057  0.0619  0.1124  0.3829
  145DOPC  H11R17240   3.577   7.343  12.140  0.3943 -0.6843  0.7583
  145DOPC  H11S17241   3.429   7.331  12.058  1.0536  2.4257  0.4489
  145DOPC  C21217242   3.591   7.309  11.923  0.0647 -0.7517  0.3075
  145DOPC  H12R17243   3.579   7.419  11.905 -0.7375 -0.7979  0.5154
  145DOPC  H12S17244   3.538   7.270  11.833 -1.1610 -0.1376  0.7362
  145DOPC  C21317245   3.739   7.286  11.914  0.3411 -0.0422  0.7428
  145DOPC  H13R17246   3.775   7.181  11.920  1.8008  0.4165  0.3769
  145DOPC  H13S17247   3.781   7.334  12.005 -0.5435 -0.2420  1.2748
  145DOPC  C21417248   3.804   7.351  11.787 -0.1950  0.3554 -0.5431
  145DOPC  H14R17249   3.910   7.317  11.781 -0.0421  1.0684 -2.8868
  145DOPC  H14S17250   3.800   7.462  11.791  0.2861  0.3572 -0.0421
  145DOPC  C21517251   3.749   7.310  11.649  0.7177  0.0818  0.2369
  145DOPC  H15R17252   3.816   7.358  11.574  0.3050  2.5858  1.3737
  145DOPC  H15S17253   3.641   7.334  11.649  0.8231  0.5460  0.4519
  145DOPC  C21617254   3.770   7.159  11.626  0.1796  0.7559 -0.5145
  145DOPC  H16R17255   3.680   7.112  11.670  1.4243  0.1593  1.5274
  145DOPC  H16S17256   3.856   7.109  11.676 -1.8738 -2.0602  0.4789
  145DOPC  C21717257   3.765   7.123  11.479 -0.8112 -0.6309 -0.5450
  145DOPC  H17R17258   3.775   7.012  11.480 -1.7710 -0.7867  2.7790
  145DOPC  H17S17259   3.846   7.181  11.431  0.0456  0.8437  2.4375
  145DOPC  C21817260   3.638   7.154  11.403  0.1262 -0.2790  0.0005
  145DOPC  H18R17261   3.543   7.115  11.445 -0.0158  0.1707  0.1071
  145DOPC  H18S17262   3.651   7.126  11.296 -0.8212  0.8929 -0.4488
  145DOPC  H18T17263   3.624   7.264  11.411 -0.6550 -0.3459 -0.3506
  145DOPC   C3317264   2.175   7.259  12.675 -0.6038 -0.1595  0.2288
  145DOPC   H3X17265   2.228   7.332  12.740 -0.8252  0.2034  0.0084
  145DOPC   H3Y17266   2.069   7.291  12.665 -0.1720  0.9847 -1.1741
  145DOPC   C3417267   2.224   7.271  12.532 -0.0663 -0.2901 -0.8976
  145DOPC   H4X17268   2.334   7.251  12.530  0.0922  0.5518 -1.0455
  145DOPC   H4Y17269   2.217   7.374  12.493  0.8214 -0.2155 -0.8831
  145DOPC   C3517270   2.181   7.173  12.422 -0.2707  0.1288  0.1261
  145DOPC   H5X17271   2.214   7.073  12.457 -1.8878 -0.5706 -0.2650
  145DOPC   H5Y17272   2.237   7.202  12.331  0.6650  0.0121  0.6429
  145DOPC   C3617273   2.043   7.170  12.370  0.5614  0.3036 -0.1338
  145DOPC   H6X17274   2.036   7.083  12.301 -2.0758  2.4605 -2.8870
  145DOPC   H6Y17275   1.978   7.144  12.456  0.5858  1.6656  0.3202
  145DOPC   C3717276   1.990   7.292  12.295 -0.0608 -0.4421 -1.0544
  145DOPC   H7X17277   1.880   7.281  12.285 -0.3078  1.7076 -1.1557
  145DOPC   H7Y17278   2.013   7.382  12.356 -1.3505 -0.3895 -0.6097
  145DOPC   C3817279   2.048   7.324  12.156 -0.8866 -0.6977  1.3329
  145DOPC   H8X17280   2.159   7.330  12.154 -0.9832  1.6562 -1.1313
  145DOPC   H8Y17281   2.020   7.428  12.129  0.6948  0.1830  2.8820
  145DOPC   C3917282   2.002   7.221  12.057 -0.4389  0.3585 -0.0901
  145DOPC   H9X17283   2.018   7.118  12.092 -0.3787  0.5909  0.5824
  145DOPC  C31017284   1.937   7.254  11.944 -0.8164  0.3816  0.1482
  145DOPC  H10X17285   1.894   7.174  11.883  0.3546 -0.1969  0.0572
  145DOPC  C31117286   1.889   7.381  11.891 -0.3242  0.3151  0.0419
  145DOPC  H11X17287   1.864   7.459  11.966  0.8843  1.0981 -0.3309
  145DOPC  H11Y17288   1.814   7.364  11.811  1.0543  0.0069 -1.2313
  145DOPC  C31217289   1.993   7.459  11.813 -0.4325  0.6524 -0.4432
  145DOPC  H12X17290   2.083   7.467  11.878 -0.3064 -1.3397 -0.3180
  145DOPC  H12Y17291   1.951   7.561  11.794 -1.0876  0.9266  2.1027
  145DOPC  C31317292   2.032   7.388  11.682 -0.5118 -0.1157 -0.2648
  145DOPC  H13X17293   2.037   7.277  11.693 -0.0296  0.0002  0.8015
  145DOPC  H13Y17294   1.940   7.406  11.623 -0.9234  0.2765  0.4873
  145DOPC  C31417295   2.146   7.451  11.611 -0.6459 -0.6370 -0.3868
  145DOPC  H14X17296   2.124   7.553  11.572 -0.7331 -0.0672  1.0997
  145DOPC  H14Y17297   2.231   7.452  11.682 -0.4378  1.5388 -0.5924
  145DOPC  C31517298   2.197   7.377  11.487  0.3680  0.3235  0.2107
  145DOPC  H15X17299   2.122   7.374  11.405 -0.1025 -0.0689  0.6489
  145DOPC  H15Y17300   2.198   7.270  11.517  1.0990  0.5118  0.8792
  145DOPC  C31617301   2.339   7.428  11.429  0.6315 -0.7274 -0.4626
  145DOPC  H16X17302   2.325   7.537  11.410 -2.8187 -1.2773 -1.8603
  145DOPC  H16Y17303   2.419   7.396  11.499  0.6451 -1.4717 -0.8062
  145DOPC  C31717304   2.372   7.361  11.304 -0.7303 -0.2285 -0.3275
  145DOPC  H17X17305   2.381   7.251  11.318  1.6753 -0.0750 -0.1442
  145DOPC  H17Y17306   2.293   7.395  11.235 -0.3713  0.9015 -0.1936
  145DOPC  C31817307   2.512   7.411  11.242 -0.2467  0.0495  0.0103
  145DOPC  H18X17308   2.593   7.354  11.292 -0.4484 -0.1620  0.1050
  145DOPC  H18Y17309   2.530   7.381  11.137 -1.4012  1.6085 -0.6582
  145DOPC  H18Z17310   2.534   7.519  11.254 -0.2288  0.0166  0.2763
  146DOPC     N17311   2.083   3.918  12.839  0.4304 -0.2618 -0.0023
  146DOPC   C1217312   2.234   3.955  12.850  0.4282 -0.2252  1.1327
  146DOPC  H12A17313   2.297   3.912  12.774  1.3365 -0.8718  2.2325
  146DOPC  H12B17314   2.268   3.920  12.947  1.6910 -1.0007  0.4397
  146DOPC   C1317315   1.995   3.998  12.937  0.4562 -0.7366  0.2179
  146DOPC  H13A17316   2.019   3.980  13.041 -0.1446  0.7459  0.6360
  146DOPC  H13B17317   2.001   4.102  12.911 -0.3638  0.1517  3.1160
  146DOPC  H13C17318   1.891   3.971  12.920  0.3318  0.7549 -1.6024
  146DOPC   C1417319   2.065   3.771  12.851 -0.2984 -0.7753 -0.2840
  146DOPC  H14A17320   1.958   3.753  12.856 -0.7573  1.3495 -1.3976
  146DOPC  H14B17321   2.097   3.707  12.770  0.5075 -2.1271  1.0560
  146DOPC  H14C17322   2.100   3.736  12.947  0.7609  0.9831  0.0087
  146DOPC   C1517323   2.039   3.964  12.704  0.4466  0.5765 -0.2877
  146DOPC  H15A17324   2.087   3.908  12.625 -1.7268 -1.4649 -0.2854
  146DOPC  H15B17325   2.057   4.070  12.691 -1.8004  0.8261 -1.9104
  146DOPC  H15C17326   1.933   3.954  12.687  0.6637 -2.2616 -0.4867
  146DOPC   C1117327   2.274   4.103  12.852  0.4586 -0.3952 -0.4001
  146DOPC  H11A17328   2.216   4.148  12.935  0.4420 -1.7878  0.3787
  146DOPC  H11B17329   2.381   4.106  12.879  0.4335 -0.0353 -0.3320
  146DOPC     P17330   2.347   4.256  12.656 -0.0580 -0.3769  0.1032
  146DOPC   O1317331   2.373   4.369  12.744  0.2784 -0.4791 -0.1834
  146DOPC   O1417332   2.309   4.284  12.516  0.0404  0.2185  0.0228
  146DOPC   O1217333   2.240   4.169  12.726  0.1406  0.1878 -0.3497
  146DOPC   O1117334   2.471   4.157  12.665 -0.5204  0.6990  0.2517
  146DOPC    C117335   2.487   4.051  12.564 -0.0667 -0.4492 -0.0974
  146DOPC    HA17336   2.470   4.082  12.459 -0.9059 -0.8955 -0.1024
  146DOPC    HB17337   2.412   3.973  12.592 -3.0213  1.7188 -1.4777
  146DOPC    C217338   2.630   3.987  12.564  0.3258 -0.4486 -0.3595
  146DOPC    HS17339   2.642   3.922  12.654 -0.7855 -0.4264 -0.1876
  146DOPC   O2117340   2.728   4.094  12.537  0.8178  0.1114 -0.3663
  146DOPC   C2117341   2.791   4.141  12.637  0.0724  0.3256  0.9895
  146DOPC   O2217342   2.779   4.116  12.752  0.0594 -0.3194 -0.5476
  146DOPC   C2217343   2.912   4.231  12.594  0.6172 -0.0461  1.2919
  146DOPC   H2R17344   2.928   4.219  12.485 -0.1036  1.1248  1.0361
  146DOPC   H2S17345   3.005   4.206  12.649  1.6659  1.8054  0.4797
  146DOPC    C317346   2.627   3.873  12.452  0.0931 -0.5693  0.4681
  146DOPC    HX17347   2.536   3.811  12.470 -0.4493 -0.3437 -1.3533
  146DOPC    HY17348   2.717   3.809  12.459 -0.9301 -2.3177 -1.2626
  146DOPC   O3117349   2.628   3.937  12.320  0.7865  0.6872 -0.2537
  146DOPC   C3117350   2.524   3.940  12.252  0.7711 -0.6994 -0.0637
  146DOPC   O3217351   2.414   3.899  12.281 -0.0700 -0.5867  0.5190
  146DOPC   C3217352   2.552   4.021  12.134  0.8271  0.4566 -0.4436
  146DOPC   H2X17353   2.559   4.126  12.170  0.4366 -0.1607  1.5549
  146DOPC   H2Y17354   2.651   3.987  12.098  1.0083 -1.4065  1.6535
  146DOPC   C2317355   2.905   4.385  12.635  0.1476  1.0201  0.5798
  146DOPC   H3R17356   2.996   4.431  12.590  0.6392 -1.2320 -0.8935
  146DOPC   H3S17357   2.908   4.402  12.745 -1.6644  2.9193  0.3953
  146DOPC   C2417358   2.780   4.471  12.586 -0.4775  0.4494  0.6433
  146DOPC   H4R17359   2.802   4.577  12.611  0.3934 -0.0021  1.9110
  146DOPC   H4S17360   2.690   4.434  12.640 -1.6117  1.8758 -0.2046
  146DOPC   C2517361   2.762   4.464  12.435  0.6001  0.1133 -0.0099
  146DOPC   H5R17362   2.745   4.360  12.400  1.6911  0.2949 -1.1672
  146DOPC   H5S17363   2.856   4.499  12.387  0.5398  0.8416  0.3877
  146DOPC   C2617364   2.630   4.537  12.402 -0.4536  0.1573  0.9541
  146DOPC   H6R17365   2.634   4.638  12.446  1.2311 -0.1111  1.4773
  146DOPC   H6S17366   2.546   4.475  12.439  0.4746 -0.8892  1.3817
  146DOPC   C2717367   2.609   4.537  12.252 -0.1628 -0.1836  0.7036
  146DOPC   H7R17368   2.607   4.430  12.222  1.0681 -0.0342  0.0268
  146DOPC   H7S17369   2.695   4.592  12.210 -0.4962  0.5435  0.9537
  146DOPC   C2817370   2.482   4.611  12.216  0.5805 -0.2680 -0.3475
  146DOPC   H8R17371   2.479   4.606  12.105  1.5911  1.3193 -0.4703
  146DOPC   H8S17372   2.486   4.718  12.248  0.4975 -0.6644  1.0585
  146DOPC   C2917373   2.349   4.568  12.274  0.0792 -0.2425 -0.0314
  146DOPC   H9R17374   2.357   4.531  12.377  0.2946  0.2795  0.1434
  146DOPC  C21017375   2.231   4.540  12.214 -0.3166  0.4404  0.3512
  146DOPC  H10R17376   2.149   4.538  12.288  1.1322 -1.4663  2.0169
  146DOPC  C21117377   2.190   4.556  12.073  0.3670 -0.6852 -0.2536
  146DOPC  H11R17378   2.194   4.456  12.026  0.2314 -0.5948 -0.4564
  146DOPC  H11S17379   2.255   4.627  12.019 -0.6189 -0.9613 -1.8528
  146DOPC  C21217380   2.041   4.592  12.059 -0.6515  0.1847  0.7738
  146DOPC  H12R17381   2.034   4.695  12.100 -2.0049  0.0221  1.0130
  146DOPC  H12S17382   1.980   4.526  12.124 -1.8713  2.1105  1.6853
  146DOPC  C21317383   1.996   4.593  11.913 -0.1951 -0.3087 -0.0968
  146DOPC  H13R17384   2.022   4.498  11.861 -0.0498 -0.7522  0.7691
  146DOPC  H13S17385   2.047   4.678  11.862  0.6209  0.7243  2.3313
  146DOPC  C21417386   1.853   4.623  11.901  0.4397 -0.1959  0.2693
  146DOPC  H14R17387   1.823   4.700  11.976 -0.8399 -1.2010  0.8434
  146DOPC  H14S17388   1.796   4.530  11.924  0.1551 -0.7788 -2.4885
  146DOPC  C21517389   1.821   4.679  11.758 -0.2682  0.2561  0.3285
  146DOPC  H15R17390   1.860   4.612  11.678 -0.3001 -0.4144  0.8668
  146DOPC  H15S17391   1.866   4.780  11.750 -0.0769  0.4657  2.9893
  146DOPC  C21617392   1.669   4.700  11.734 -0.4220  0.4853 -0.8980
  146DOPC  H16R17393   1.624   4.767  11.810  0.0323  0.2687 -0.4289
  146DOPC  H16S17394   1.624   4.599  11.741  1.9968 -0.5243  2.1116
  146DOPC  C21717395   1.633   4.747  11.594  0.2114  0.1613  0.3680
  146DOPC  H17R17396   1.655   4.668  11.519 -1.6538  0.9897 -1.1460
  146DOPC  H17S17397   1.686   4.839  11.562  1.1653 -0.8778 -1.1963
  146DOPC  C21817398   1.480   4.774  11.566  0.4819 -0.1191  0.9758
  146DOPC  H18R17399   1.444   4.852  11.637  0.6420  1.0131 -0.1502
  146DOPC  H18S17400   1.426   4.678  11.575  0.1762 -0.6391 -3.9201
  146DOPC  H18T17401   1.469   4.807  11.461  1.2271  1.1177  1.2473
  146DOPC   C3317402   2.449   3.998  12.019 -0.0167 -0.2096 -0.0730
  146DOPC   H3X17403   2.346   4.010  12.057  0.9329 -2.8845  3.8864
  146DOPC   H3Y17404   2.456   3.891  11.992 -2.7757 -0.3528 -0.4502
  146DOPC   C3417405   2.475   4.088  11.900  0.5691  0.8819 -0.2839
  146DOPC   H4X17406   2.402   4.055  11.822 -1.9861  1.9384  1.5411
  146DOPC   H4Y17407   2.583   4.084  11.875  1.4957  0.0614  3.3837
  146DOPC   C3517408   2.422   4.232  11.905 -0.5879 -0.1813 -0.1540
  146DOPC   H5X17409   2.479   4.297  11.975 -0.2453  0.6091 -1.1564
  146DOPC   H5Y17410   2.323   4.217  11.952 -0.6942  1.4881  0.2105
  146DOPC   C3617411   2.426   4.297  11.768 -0.1529 -0.0615  0.4956
  146DOPC   H6X17412   2.532   4.318  11.740 -0.4132  0.2800 -0.2419
  146DOPC   H6Y17413   2.384   4.228  11.691  0.4900  0.4531 -0.3322
  146DOPC   C3717414   2.356   4.436  11.757 -0.1688  0.0347 -0.1896
  146DOPC   H7X17415   2.257   4.431  11.806  1.0972 -0.4936  2.5270
  146DOPC   H7Y17416   2.421   4.516  11.798  1.4731 -1.4512  0.2671
  146DOPC   C3817417   2.331   4.469  11.607  0.3609  0.1657  0.9203
  146DOPC   H8X17418   2.295   4.376  11.559  1.8508 -0.4593  0.9503
  146DOPC   H8Y17419   2.425   4.487  11.550  0.0154  1.4368  0.7294
  146DOPC   C3917420   2.245   4.594  11.588  0.8581 -0.0100 -0.3359
  146DOPC   H9X17421   2.295   4.685  11.624  0.6941 -0.3119  0.6823
  146DOPC  C31017422   2.120   4.601  11.538  0.6471 -0.0130 -1.0025
  146DOPC  H10X17423   2.075   4.698  11.515  0.5913  0.1615 -0.1949
  146DOPC  C31117424   2.045   4.477  11.499 -0.2483  0.3387 -0.2307
  146DOPC  H11X17425   1.946   4.477  11.550  0.2781 -0.7814  0.8575
  146DOPC  H11Y17426   2.102   4.386  11.529  1.1669  0.2705 -2.8100
  146DOPC  C31217427   2.030   4.474  11.346 -0.3692  0.2818 -0.7029
  146DOPC  H12X17428   2.059   4.374  11.307 -0.8557  0.6593 -2.1108
  146DOPC  H12Y17429   2.108   4.529  11.289  0.5348  0.1591  0.3838
  146DOPC  C31317430   1.890   4.522  11.298  0.4990 -0.1009 -0.6996
  146DOPC  H13X17431   1.851   4.473  11.206  0.4055  0.0961 -0.7625
  146DOPC  H13Y17432   1.808   4.489  11.366 -0.4101  1.9734 -0.7421
  146DOPC  C31417433   1.880   4.673  11.286  0.4355 -0.3133  0.1130
  146DOPC  H14X17434   1.900   4.718  11.385  1.5775 -0.6958  0.0677
  146DOPC  H14Y17435   1.960   4.724  11.229 -0.3825 -0.0161 -0.7978
  146DOPC  C31517436   1.744   4.731  11.226  0.3413  0.8872  0.3796
  146DOPC  H15X17437   1.663   4.694  11.292  0.9853 -0.6761  0.3354
  146DOPC  H15Y17438   1.744   4.677  11.129  1.5048  2.0045 -0.2767
  146DOPC  C31617439   1.753   4.879  11.201  0.2113  0.2174 -0.5504
  146DOPC  H16X17440   1.799   4.929  11.289  0.7090  0.5245 -0.9780
  146DOPC  H16Y17441   1.813   4.903  11.111  0.3203  0.1115 -0.5070
  146DOPC  C31717442   1.620   4.940  11.166 -0.0377 -0.0031 -0.5048
  146DOPC  H17X17443   1.549   4.891  11.237  3.0664 -3.1339  0.7164
  146DOPC  H17Y17444   1.632   5.050  11.170  0.3199 -0.0821  1.1183
  146DOPC  C31817445   1.571   4.891  11.023 -0.0306  0.2071  0.5803
  146DOPC  H18X17446   1.650   4.923  10.953 -0.9773  0.3911 -0.4337
  146DOPC  H18Y17447   1.550   4.782  11.013 -1.7552  0.5859 -0.3738
  146DOPC  H18Z17448   1.472   4.940  11.009  0.7820  1.7294 -0.0368
  147DOPC     N17449   0.856   6.010  13.635 -0.1696  0.3267  1.4178
  147DOPC   C1217450   0.857   5.923  13.503 -0.5970 -0.3536  0.3664
  147DOPC  H12A17451   0.928   5.845  13.524 -1.9869 -1.7815 -0.0540
  147DOPC  H12B17452   0.908   5.984  13.430  1.0160 -0.4929  1.3356
  147DOPC   C1317453   0.854   5.926  13.749  0.1573  0.6094 -0.4193
  147DOPC  H13A17454   0.947   5.883  13.783 -1.1200 -1.2090  1.0344
  147DOPC  H13B17455   0.811   5.985  13.829 -0.6657 -0.9821  0.3681
  147DOPC  H13C17456   0.786   5.842  13.739  0.7596  0.2908 -2.0441
  147DOPC   C1417457   0.736   6.098  13.628 -0.1612 -0.3725 -0.9007
  147DOPC  H14A17458   0.639   6.049  13.626 -1.9480  2.7666  0.2534
  147DOPC  H14B17459   0.737   6.162  13.715 -0.7908 -3.6469  1.7596
  147DOPC  H14C17460   0.741   6.155  13.537 -1.2227  2.0398  0.4424
  147DOPC   C1517461   0.977   6.096  13.641  0.1657 -0.5523 -0.7653
  147DOPC  H15A17462   0.979   6.165  13.558  1.1776  1.2006  0.6315
  147DOPC  H15B17463   1.063   6.031  13.638 -0.7190 -1.8239  0.1718
  147DOPC  H15C17464   0.972   6.151  13.734  1.3892 -0.9818 -0.4213
  147DOPC   C1117465   0.726   5.856  13.445  0.5230  0.7464  0.2362
  147DOPC  H11A17466   0.755   5.802  13.352 -0.2561  2.0116 -0.7775
  147DOPC  H11B17467   0.673   5.792  13.518 -0.0285  2.3964  1.3352
  147DOPC     P17468   0.512   5.932  13.309  0.4310  0.0080 -0.2631
  147DOPC   O1317469   0.433   6.055  13.301  0.5514  0.0390 -0.4524
  147DOPC   O1417470   0.434   5.819  13.360  0.2696  0.7824 -0.0094
  147DOPC   O1217471   0.638   5.956  13.403  0.1372 -0.6178  0.2749
  147DOPC   O1117472   0.581   5.891  13.170  0.2112  0.2790  0.5963
  147DOPC    C117473   0.630   6.001  13.087 -0.0483 -0.0015  0.4018
  147DOPC    HA17474   0.732   5.973  13.052 -0.6766 -1.8899 -0.0636
  147DOPC    HB17475   0.645   6.092  13.149 -4.5680  0.0460  1.7821
  147DOPC    C217476   0.537   6.028  12.958 -0.3173  0.1409  0.1128
  147DOPC    HS17477   0.439   6.066  12.994 -0.7384 -2.2936  1.7567
  147DOPC   O2117478   0.543   5.908  12.885 -0.3176  0.8917  0.3703
  147DOPC   C2117479   0.432   5.864  12.859  0.1780  0.6534  0.6634
  147DOPC   O2217480   0.326   5.925  12.859  0.0459  0.3577 -0.2702
  147DOPC   C2217481   0.443   5.712  12.818  0.6514 -0.1312 -0.2149
  147DOPC   H2R17482   0.411   5.672  12.916  1.9497 -0.2323  0.1800
  147DOPC   H2S17483   0.547   5.680  12.795  0.0741 -2.0119 -0.3740
  147DOPC    C317484   0.602   6.132  12.868 -0.1884 -0.2013  0.7153
  147DOPC    HX17485   0.711   6.114  12.864  0.0060  0.6564  1.7999
  147DOPC    HY17486   0.592   6.232  12.916 -1.0708 -0.0363  0.2208
  147DOPC   O3117487   0.558   6.143  12.737  0.7549  0.1999  0.0201
  147DOPC   C3117488   0.437   6.189  12.717 -0.2114 -0.4267  0.5940
  147DOPC   O3217489   0.362   6.236  12.806 -0.4574  0.7271  0.7502
  147DOPC   C3217490   0.412   6.175  12.568  0.3372 -0.3568  0.2211
  147DOPC   H2X17491   0.401   6.280  12.534 -0.4700 -0.6920 -0.5790
  147DOPC   H2Y17492   0.489   6.113  12.518  0.4981  0.3136 -0.3774
  147DOPC   C2317493   0.366   5.673  12.692  0.0895 -0.0206 -0.6259
  147DOPC   H3R17494   0.393   5.742  12.610 -0.7714  0.8014 -0.2431
  147DOPC   H3S17495   0.259   5.698  12.712  0.2585  0.6982 -0.5969
  147DOPC   C2417496   0.386   5.528  12.654 -0.3443  0.2146 -0.0113
  147DOPC   H4R17497   0.366   5.479  12.751  0.3381  0.4035  0.2268
  147DOPC   H4S17498   0.492   5.506  12.628 -0.5381  0.0366 -0.6886
  147DOPC   C2517499   0.277   5.494  12.554  0.3697  0.1324  0.3003
  147DOPC   H5R17500   0.177   5.519  12.595 -2.1792 -5.4663 -1.5191
  147DOPC   H5S17501   0.271   5.383  12.554 -0.0087  0.1532  0.0789
  147DOPC   C2617502   0.294   5.549  12.414 -0.3396 -0.2265 -0.1102
  147DOPC   H6R17503   0.402   5.539  12.395 -0.4438 -1.4381 -0.1209
  147DOPC   H6S17504   0.254   5.653  12.406 -1.1466 -0.6655 -2.2940
  147DOPC   C2717505   0.226   5.468  12.305  0.5386 -0.2823 -0.2453
  147DOPC   H7R17506   0.116   5.486  12.303  0.2400 -2.0221 -0.8792
  147DOPC   H7S17507   0.243   5.362  12.331 -1.8846 -0.3076  1.5898
  147DOPC   C2817508   0.289   5.486  12.169  0.4931 -0.1906  0.4165
  147DOPC   H8R17509   0.245   5.418  12.092  0.3930  0.1321  0.1836
  147DOPC   H8S17510   0.396   5.462  12.189  0.0531 -2.3588  0.3482
  147DOPC   C2917511   0.276   5.634  12.123 -0.4132  0.0782  1.2045
  147DOPC   H9R17512   0.231   5.713  12.186  0.9504  1.9839 -0.0876
  147DOPC  C21017513   0.298   5.664  11.991  0.0780  0.2628  0.8587
  147DOPC  H10R17514   0.293   5.771  11.966 -1.3457 -0.1557 -0.9073
  147DOPC  C21117515   0.362   5.569  11.885 -0.4763  0.4618  0.5938
  147DOPC  H11R17516   0.352   5.467  11.926 -3.5724 -0.4993 -2.1118
  147DOPC  H11S17517   0.470   5.594  11.881 -0.5833  0.7967 -1.3873
  147DOPC  C21217518   0.301   5.568  11.746  0.3173  0.2233 -0.5478
  147DOPC  H12R17519   0.330   5.665  11.700  2.1683 -1.1383 -2.4230
  147DOPC  H12S17520   0.191   5.556  11.745  0.3125  0.2876 -0.8098
  147DOPC  C21317521   0.365   5.466  11.645 -0.6717 -0.8976 -0.7122
  147DOPC  H13R17522   0.331   5.481  11.540 -0.1094 -1.3828 -0.9694
  147DOPC  H13S17523   0.312   5.374  11.679  0.4399 -0.8341  1.3424
  147DOPC  C21417524   0.513   5.448  11.658 -1.1660  0.2829  0.3422
  147DOPC  H14R17525   0.539   5.403  11.757  0.2572 -0.6830 -0.4281
  147DOPC  H14S17526   0.556   5.550  11.647  0.2410 -0.2431  0.7440
  147DOPC  C21517527   0.572   5.353  11.557 -0.3720 -0.2558 -0.0143
  147DOPC  H15R17528   0.560   5.393  11.454  1.9897 -1.9591 -1.0264
  147DOPC  H15S17529   0.517   5.258  11.542  0.9283 -1.4885  2.3676
  147DOPC  C21617530   0.722   5.334  11.585 -0.2793  0.4205  0.2747
  147DOPC  H16R17531   0.739   5.294  11.687  2.1971  0.7941  0.0779
  147DOPC  H16S17532   0.780   5.427  11.567  2.0746 -0.7638  1.3129
  147DOPC  C21717533   0.795   5.244  11.485  0.1992  0.2493 -0.2143
  147DOPC  H17R17534   0.767   5.278  11.384  0.4958 -0.1579 -0.4359
  147DOPC  H17S17535   0.743   5.146  11.489  1.1537 -0.2667 -0.0733
  147DOPC  C21817536   0.940   5.214  11.519 -0.1110  0.3423  0.1987
  147DOPC  H18R17537   0.993   5.312  11.521 -1.6880  1.2550 -0.4989
  147DOPC  H18S17538   0.984   5.140  11.449 -2.4601 -1.7877  0.8298
  147DOPC  H18T17539   0.937   5.164  11.618 -2.9543 -0.8142 -0.3914
  147DOPC   C3317540   0.276   6.099  12.534  0.3229  1.1387  1.2398
  147DOPC   H3X17541   0.195   6.140  12.598  1.3590  4.1920  0.7718
  147DOPC   H3Y17542   0.286   5.989  12.545 -1.7379  0.7944  0.1210
  147DOPC   C3417543   0.219   6.138  12.401  0.2740 -0.4938  0.1431
  147DOPC   H4X17544   0.230   6.248  12.389 -2.9331  0.0370  1.0449
  147DOPC   H4Y17545   0.110   6.122  12.414 -0.3810  3.6634  1.2375
  147DOPC   C3517546   0.283   6.068  12.280 -0.3564 -0.8220  0.8676
  147DOPC   H5X17547   0.293   5.957  12.286 -0.3939 -0.9224 -0.5643
  147DOPC   H5Y17548   0.385   6.106  12.259 -0.6177 -0.8372 -0.5463
  147DOPC   C3617549   0.201   6.097  12.145 -0.4351  0.0292 -1.5104
  147DOPC   H6X17550   0.156   6.199  12.144 -2.0900 -0.5182  1.9681
  147DOPC   H6Y17551   0.280   6.105  12.067 -0.3798  0.8845 -1.3725
  147DOPC   C3717552   0.095   5.990  12.111  0.2982  0.7709  0.3451
  147DOPC   H7X17553   0.146   5.891  12.105  1.4390  1.3917 -0.5352
  147DOPC   H7Y17554   0.013   5.979  12.186 -2.2396  1.2109 -2.1790
  147DOPC   C3817555   0.036   6.026  11.975 -0.1522 -0.2351  0.8909
  147DOPC   H8X17556   0.127   6.061  11.920 -0.4086  1.3292  1.3921
  147DOPC   H8Y17557  -0.026   6.118  11.990 -0.4960 -0.0872 -1.1700
  147DOPC   C3917558  -0.033   5.918  11.901  0.2034  0.0097 -0.0005
  147DOPC   H9X17559  -0.130   5.891  11.945 -0.4856 -0.5151 -1.7678
  147DOPC  C31017560   0.007   5.861  11.793  0.4416 -0.3604  0.2795
  147DOPC  H10X17561  -0.063   5.788  11.749 -0.5069 -0.1006  1.3135
  147DOPC  C31117562   0.132   5.901  11.714  0.1425  0.0760  0.2599
  147DOPC  H11X17563   0.157   5.811  11.654 -0.6327  0.1427 -0.1800
  147DOPC  H11Y17564   0.211   5.920  11.789 -0.1086 -0.2556  0.6122
  147DOPC  C31217565   0.100   6.033  11.633 -0.2131 -0.1423 -0.2400
  147DOPC  H12X17566   0.196   6.074  11.596  0.6247 -0.1699  1.8018
  147DOPC  H12Y17567   0.066   6.111  11.704  1.5572 -1.2683  1.9631
  147DOPC  C31317568   0.019   6.014  11.505  0.4769 -0.0070  0.3282
  147DOPC  H13X17569   0.053   5.930  11.441 -0.1210  0.8777 -1.2067
  147DOPC  H13Y17570  -0.086   5.992  11.535  0.6275  2.2438  2.8582
  147DOPC  C31417571   0.022   6.145  11.426 -0.1843 -0.5724  0.4277
  147DOPC  H14X17572   0.018   6.229  11.498 -1.5662  0.4640 -0.7877
  147DOPC  H14Y17573   0.121   6.159  11.378 -0.4181 -0.1989  0.0447
  147DOPC  C31517574  -0.095   6.157  11.321 -0.0064  0.8071  0.2787
  147DOPC  H15X17575  -0.193   6.142  11.373  0.1955  0.2215  0.5019
  147DOPC  H15Y17576  -0.093   6.062  11.265  1.1988  1.5220 -0.9223
  147DOPC  C31617577  -0.090   6.278  11.225  0.0386  0.2137  0.7325
  147DOPC  H16X17578  -0.104   6.370  11.285 -0.8053  0.0381  0.8149
  147DOPC  H16Y17579   0.013   6.275  11.181  0.3102  0.8673  1.3031
  147DOPC  C31717580  -0.185   6.269  11.111 -0.7326 -0.0538 -0.3675
  147DOPC  H17X17581  -0.149   6.334  11.028 -0.8754  0.2178 -0.2186
  147DOPC  H17Y17582  -0.177   6.162  11.083 -0.5528 -0.0836 -0.1988
  147DOPC  C31817583  -0.327   6.294  11.154 -0.0688 -0.1648  0.2640
  147DOPC  H18X17584  -0.354   6.222  11.235 -1.3616  0.5313  0.4679
  147DOPC  H18Y17585  -0.333   6.400  11.186  0.4899 -0.0649  0.0425
  147DOPC  H18Z17586  -0.400   6.279  11.072 -1.7224  2.3489  1.1738
  148DOPC     N17587   6.492   0.896  13.371 -0.1584  0.6272  0.4694
  148DOPC   C1217588   6.572   0.818  13.261 -0.3320 -0.0297 -0.5206
  148DOPC  H12A17589   6.676   0.841  13.276 -0.3418 -1.2097  1.8378
  148DOPC  H12B17590   6.562   0.865  13.165  3.2377  3.6441  0.6270
  148DOPC   C1317591   6.532   0.847  13.506 -0.1460  0.2327 -0.7053
  148DOPC  H13A17592   6.640   0.837  13.512 -0.1051  0.6125 -0.8074
  148DOPC  H13B17593   6.493   0.923  13.572 -1.0141 -0.4376 -0.4391
  148DOPC  H13C17594   6.494   0.748  13.526  0.2710  0.0366 -0.8605
  148DOPC   C1417595   6.345   0.869  13.351  0.3978  0.0026 -0.1289
  148DOPC  H14A17596   6.279   0.911  13.425  1.0923  0.3045  0.3325
  148DOPC  H14B17597   6.309   0.904  13.255  0.7736 -0.0582 -0.2955
  148DOPC  H14C17598   6.336   0.761  13.345  1.6498 -0.0447 -2.2525
  148DOPC   C1517599   6.527   1.040  13.370 -0.2036 -0.0335  0.2692
  148DOPC  H15A17600   6.627   1.059  13.406  0.0396  1.5733 -1.1205
  148DOPC  H15B17601   6.463   1.103  13.430  0.9514 -0.1590  1.6819
  148DOPC  H15C17602   6.529   1.077  13.269  1.7232  0.5011  0.4584
  148DOPC   C1117603   6.555   0.670  13.241  0.1396 -0.3061 -0.4964
  148DOPC  H11A17604   6.647   0.628  13.196  0.6640 -0.0875  0.3320
  148DOPC  H11B17605   6.546   0.630  13.345  2.0111  2.7126  0.9805
  148DOPC     P17606   6.418   0.669  13.024 -0.1677  0.0637 -0.2687
  148DOPC   O1317607   6.419   0.816  13.004 -0.1240  0.6217 -0.0538
  148DOPC   O1417608   6.301   0.594  12.976 -0.2446  0.1469 -1.3226
  148DOPC   O1217609   6.432   0.640  13.172  0.3160  0.2643  0.1139
  148DOPC   O1117610   6.548   0.601  12.962 -0.3361  0.3850  0.3846
  148DOPC    C117611   6.591   0.466  12.966 -0.0102  0.5789 -0.1296
  148DOPC    HA17612   6.531   0.408  12.893  2.9081 -2.7848 -0.1031
  148DOPC    HB17613   6.586   0.419  13.066 -0.1194  0.4238 -0.2096
  148DOPC    C217614   6.744   0.440  12.926  0.5807  0.2915 -0.2985
  148DOPC    HS17615   6.799   0.460  13.021  1.3215  0.2869 -0.7178
  148DOPC   O2117616   6.778   0.527  12.821  0.0398 -0.3783  0.1602
  148DOPC   C2117617   6.861   0.625  12.857 -0.2030 -0.1744 -0.0203
  148DOPC   O2217618   6.878   0.673  12.967  0.0665  0.1171  0.1434
  148DOPC   C2217619   6.931   0.683  12.729 -0.5595  0.4097  0.3127
  148DOPC   H2R17620   6.983   0.778  12.754  0.3700  0.0154 -0.0802
  148DOPC   H2S17621   6.852   0.686  12.652 -2.7753  0.6757  2.4522
  148DOPC    C317622   6.763   0.292  12.881 -0.3867 -0.4074  0.5809
  148DOPC    HX17623   6.686   0.262  12.807 -1.4223  0.3324  1.3346
  148DOPC    HY17624   6.761   0.223  12.968  0.3946 -1.2854 -0.0817
  148DOPC   O3117625   6.894   0.280  12.823 -0.8104  0.0637 -0.0561
  148DOPC   C3117626   6.934   0.151  12.800  0.3092  0.0662 -0.7130
  148DOPC   O3217627   6.866   0.052  12.821  0.0166  0.2254  0.5305
  148DOPC   C3217628   7.081   0.149  12.762 -0.2729  0.4969  0.3988
  148DOPC   H2X17629   7.130   0.240  12.803  0.1979  0.6067 -0.3756
  148DOPC   H2Y17630   7.123   0.059  12.812 -0.8034 -0.5395 -0.9261
  148DOPC   C2317631   7.050   0.588  12.680  0.7475 -0.3861  0.2006
  148DOPC   H3R17632   6.998   0.499  12.638 -0.7544  1.0828 -1.2296
  148DOPC   H3S17633   7.118   0.570  12.765 -0.0968  0.5703  1.1007
  148DOPC   C2417634   7.117   0.653  12.554 -0.0244  0.2045 -0.4877
  148DOPC   H4R17635   7.148   0.755  12.584 -2.7616  1.2927 -1.0065
  148DOPC   H4S17636   7.044   0.654  12.470  3.1117 -0.5598 -3.4096
  148DOPC   C2517637   7.239   0.568  12.503 -0.2466 -0.3765  0.2413
  148DOPC   H5R17638   7.206   0.462  12.495 -0.1260 -0.4500  0.7226
  148DOPC   H5S17639   7.312   0.566  12.587  0.5369 -0.6964 -0.4335
  148DOPC   C2617640   7.293   0.611  12.363  0.1473  0.6058  0.4062
  148DOPC   H6R17641   7.294   0.722  12.361  0.3856  0.5979 -1.1868
  148DOPC   H6S17642   7.220   0.582  12.285  1.2775 -0.9770 -0.1226
  148DOPC   C2717643   7.435   0.563  12.333  0.0072 -0.4271 -0.4880
  148DOPC   H7R17644   7.430   0.452  12.327  2.2324 -0.5976  0.0986
  148DOPC   H7S17645   7.500   0.599  12.415  0.6701  0.9402 -1.5636
  148DOPC   C2817646   7.492   0.630  12.202  0.2582  0.1018 -0.4055
  148DOPC   H8R17647   7.585   0.572  12.179 -0.1825 -0.7931  0.0238
  148DOPC   H8S17648   7.529   0.734  12.212 -1.1779  0.5533  0.4901
  148DOPC   C2917649   7.398   0.628  12.083  0.6822 -0.1052 -0.1292
  148DOPC   H9R17650   7.310   0.692  12.099  0.4548 -0.7278  1.2336
  148DOPC  C21017651   7.396   0.551  11.975 -0.7106  0.3828 -0.0974
  148DOPC  H10R17652   7.306   0.541  11.913 -1.8386  0.1287  1.5342
  148DOPC  C21117653   7.502   0.451  11.943 -0.3274 -0.0798 -0.3701
  148DOPC  H11R17654   7.456   0.350  11.940 -1.1844  0.2810  0.1708
  148DOPC  H11S17655   7.580   0.442  12.021 -0.8822 -1.5606  0.0581
  148DOPC  C21217656   7.573   0.481  11.806  0.1063 -0.2217 -0.3583
  148DOPC  H12R17657   7.673   0.431  11.812 -0.7438 -1.9757 -0.1477
  148DOPC  H12S17658   7.584   0.591  11.802 -1.0024 -0.0389  1.1360
  148DOPC  C21317659   7.502   0.432  11.676  0.0702 -0.2690 -0.3867
  148DOPC  H13R17660   7.398   0.469  11.679 -0.4688 -1.7229 -0.5715
  148DOPC  H13S17661   7.498   0.321  11.672  0.0261 -0.3057  0.5149
  148DOPC  C21417662   7.580   0.477  11.552  0.3475 -0.0416 -1.4010
  148DOPC  H14R17663   7.686   0.443  11.551  0.7950  1.3232 -1.8907
  148DOPC  H14S17664   7.589   0.587  11.554  2.4114 -0.1492  1.6847
  148DOPC  C21517665   7.528   0.415  11.426  0.0620 -0.2456  0.1394
  148DOPC  H15R17666   7.593   0.460  11.348  1.1902 -1.8331  0.1150
  148DOPC  H15S17667   7.424   0.451  11.411  0.7368  1.2494 -1.2407
  148DOPC  C21617668   7.535   0.265  11.406  1.0540  0.1969 -0.1243
  148DOPC  H16R17669   7.625   0.231  11.462 -0.0333 -0.0275  1.5640
  148DOPC  H16S17670   7.545   0.240  11.298 -0.0340  0.3336 -0.2714
  148DOPC  C21717671   7.399   0.198  11.447 -0.1617  0.1469  0.2146
  148DOPC  H17R17672   7.330   0.221  11.362  0.0703 -0.2480 -0.0856
  148DOPC  H17S17673   7.362   0.240  11.542  1.4954  1.2187  0.4053
  148DOPC  C21817674   7.414   0.051  11.462 -1.0428  0.1471  0.5080
  148DOPC  H18R17675   7.475   0.020  11.549 -2.6602 -1.6143  1.0761
  148DOPC  H18S17676   7.466   0.001  11.377  2.5899  2.2685  1.2343
  148DOPC  H18T17677   7.314   0.004  11.463 -1.3813  0.8023 -0.5741
  148DOPC   C3317678   7.103   0.139  12.608  0.0139  0.4667 -0.3781
  148DOPC   H3X17679   7.038   0.212  12.556  2.6696  0.4134 -4.1114
  148DOPC   H3Y17680   7.076   0.038  12.570  1.5249  0.8679 -2.6712
  148DOPC   C3417681   7.246   0.164  12.562 -0.2514  0.2116 -0.0420
  148DOPC   H4X17682   7.253   0.274  12.574  0.0868 -0.0713  2.9387
  148DOPC   H4Y17683   7.264   0.139  12.455  3.5097  0.0422  0.5217
  148DOPC   C3517684   7.355   0.105  12.654  0.8116 -0.6251  0.1788
  148DOPC   H5X17685   7.334  -0.003  12.673  1.1359 -1.5164 -3.7755
  148DOPC   H5Y17686   7.360   0.161  12.751 -0.9243 -1.1648  0.6172
  148DOPC   C3617687   7.496   0.121  12.592  0.3176  0.3198  0.0012
  148DOPC   H6X17688   7.565   0.065  12.658 -1.4181 -0.2953  1.3736
  148DOPC   H6Y17689   7.503   0.065  12.496  1.3878 -0.8642  0.7482
  148DOPC   C3717690   7.540   0.272  12.570  0.6971 -0.5940 -1.0530
  148DOPC   H7X17691   7.455   0.323  12.520 -0.3500 -0.6274  0.6228
  148DOPC   H7Y17692   7.566   0.320  12.667  0.1376  2.1859 -2.1926
  148DOPC   C3817693   7.656   0.278  12.474 -0.3082  0.1678  0.3463
  148DOPC   H8X17694   7.671   0.385  12.448  1.0800 -0.0277  0.2657
  148DOPC   H8Y17695   7.635   0.218  12.384 -0.3915 -0.2413  0.6348
  148DOPC   C3917696   7.789   0.241  12.539 -0.2847 -0.6938  0.6443
  148DOPC   H9X17697   7.827   0.316  12.609 -0.3695 -1.0154  1.0398
  148DOPC  C31017698   7.877   0.149  12.497  0.7269 -0.9910 -0.8787
  148DOPC  H10X17699   7.971   0.136  12.552  1.4456  6.3912  0.7205
  148DOPC  C31117700   7.861   0.048  12.384  0.1758 -0.0158 -1.0909
  148DOPC  H11X17701   7.758   0.053  12.344 -0.0260 -1.0629 -0.7226
  148DOPC  H11Y17702   7.863  -0.050  12.437 -1.5229 -0.2825 -1.4606
  148DOPC  C31217703   7.963   0.066  12.272  0.3942  0.4041 -0.1737
  148DOPC  H12X17704   8.062   0.063  12.322 -0.1076 -1.4048  0.7838
  148DOPC  H12Y17705   7.963   0.162  12.216  4.2139  0.9993  0.5801
  148DOPC  C31317706   7.950  -0.044  12.167  0.2208  0.4424  0.2377
  148DOPC  H13X17707   8.014  -0.014  12.082  0.1578  1.0356  0.3943
  148DOPC  H13Y17708   7.994  -0.140  12.202  2.4949  1.1928 -0.3834
  148DOPC  C31417709   7.794  -0.070  12.121 -0.0809 -0.7316  0.7089
  148DOPC  H14X17710   7.808  -0.148  12.043  1.1509 -0.5360  0.7058
  148DOPC  H14Y17711   7.730  -0.119  12.197 -1.5208 -3.8807 -2.2984
  148DOPC  C31517712   7.733   0.052  12.055  0.3244 -0.0878  0.1369
  148DOPC  H15X17713   7.813   0.096  11.990  1.1440 -1.0820  0.4421
  148DOPC  H15Y17714   7.702   0.136  12.121 -1.1605  0.3414 -1.0543
  148DOPC  C31617715   7.609   0.023  11.963  0.0400  0.0240 -0.2895
  148DOPC  H16X17716   7.578   0.122  11.923 -2.7388 -0.7928 -0.3214
  148DOPC  H16Y17717   7.618  -0.047  11.877  1.0179 -0.8478  0.4912
  148DOPC  C31717718   7.486  -0.020  12.054 -0.2342  0.8879  0.2559
  148DOPC  H17X17719   7.399  -0.037  11.988 -0.2370 -0.8122  0.6685
  148DOPC  H17Y17720   7.519  -0.114  12.103 -1.2249  0.6748  0.5190
  148DOPC  C31817721   7.443   0.089  12.151 -0.2772 -0.0140 -0.6147
  148DOPC  H18X17722   7.350   0.049  12.199 -0.8191 -1.2103 -2.5638
  148DOPC  H18Y17723   7.518   0.106  12.231  0.0554 -0.7865 -0.7499
  148DOPC  H18Z17724   7.422   0.186  12.102  1.2938  0.7796  0.2388
  149DOPC     N17725   1.010   4.535  13.349  0.3015 -0.1801 -0.1444
  149DOPC   C1217726   0.868   4.577  13.385 -0.6168  0.0215 -0.4688
  149DOPC  H12A17727   0.850   4.527  13.479 -1.5373 -0.9695 -1.1426
  149DOPC  H12B17728   0.791   4.542  13.317 -1.8736 -1.0863  1.4341
  149DOPC   C1317729   1.015   4.397  13.314  0.3679  0.1408  0.1161
  149DOPC  H13A17730   1.114   4.359  13.292  1.1169  3.1626 -2.2816
  149DOPC  H13B17731   0.972   4.326  13.384 -3.8930  1.5632 -0.7610
  149DOPC  H13C17732   0.958   4.382  13.224  0.4071 -0.1197  0.1332
  149DOPC   C1417733   1.104   4.549  13.467 -0.0272 -0.4862  0.1140
  149DOPC  H14A17734   1.074   4.501  13.559  3.3413  0.0061  1.6110
  149DOPC  H14B17735   1.197   4.506  13.433 -0.0340  0.9129 -1.8757
  149DOPC  H14C17736   1.119   4.654  13.486 -1.0793 -0.3823  0.4584
  149DOPC   C1517737   1.057   4.611  13.228 -0.0531 -0.2088  0.3990
  149DOPC  H15A17738   0.990   4.589  13.146  1.2639 -2.6526 -0.1008
  149DOPC  H15B17739   1.148   4.569  13.188 -0.0357  0.5157 -0.3612
  149DOPC  H15C17740   1.084   4.714  13.248  2.7479 -0.8730  0.4326
  149DOPC   C1117741   0.832   4.728  13.416 -0.3111 -0.0370  0.6778
  149DOPC  H11A17742   0.737   4.736  13.474  0.2106  1.0600  1.4095
  149DOPC  H11B17743   0.911   4.777  13.476 -0.4263  1.4054 -0.2834
  149DOPC     P17744   0.723   4.798  13.193  0.2663  0.3782  0.2666
  149DOPC   O1317745   0.637   4.918  13.200 -0.1907  0.1992  0.0317
  149DOPC   O1417746   0.659   4.662  13.212 -0.1052  0.3472  0.5580
  149DOPC   O1217747   0.829   4.806  13.295 -0.0763  0.2395 -0.3092
  149DOPC   O1117748   0.808   4.799  13.060 -0.5545 -0.0239  0.4385
  149DOPC    C117749   0.869   4.916  13.009  0.1107 -0.0488  0.3953
  149DOPC    HA17750   0.950   4.887  12.939  0.7686 -0.4540  1.3047
  149DOPC    HB17751   0.905   4.986  13.088  1.8973 -0.8314  0.3137
  149DOPC    C217752   0.773   4.986  12.908  0.4798  0.7754 -0.1429
  149DOPC    HS17753   0.676   4.987  12.962  2.1156 -1.7584  3.2751
  149DOPC   O2117754   0.773   4.906  12.794 -0.1436 -0.2140 -0.1087
  149DOPC   C2117755   0.710   4.800  12.784  0.8267  0.1986  0.1580
  149DOPC   O2217756   0.618   4.768  12.864  1.2497 -0.0136 -0.1436
  149DOPC   C2217757   0.729   4.741  12.649 -0.4410  0.1382 -0.0112
  149DOPC   H2R17758   0.657   4.798  12.586  0.4416  0.1404 -1.0406
  149DOPC   H2S17759   0.706   4.633  12.638 -1.3520  0.1081  1.7780
  149DOPC    C317760   0.827   5.127  12.869  0.1476  0.0068 -0.0567
  149DOPC    HX17761   0.833   5.195  12.956 -1.5126  1.8811 -1.3043
  149DOPC    HY17762   0.746   5.175  12.810 -2.9302 -1.4693  2.6540
  149DOPC   O3117763   0.956   5.111  12.801  0.2881  0.0716 -0.1538
  149DOPC   C3117764   1.066   5.125  12.863  0.1740 -0.3010 -0.1658
  149DOPC   O3217765   1.080   5.157  12.980 -0.4614 -0.1664 -0.2395
  149DOPC   C3217766   1.186   5.081  12.782  0.2288  0.6116 -0.2925
  149DOPC   H2X17767   1.272   5.147  12.802  0.5190 -0.1249  1.0709
  149DOPC   H2Y17768   1.206   4.987  12.839 -3.2820  0.0391  0.2736
  149DOPC   C2317769   0.869   4.757  12.586 -0.4797  0.4665  0.0756
  149DOPC   H3R17770   0.951   4.717  12.649 -0.4251  0.2753 -0.1145
  149DOPC   H3S17771   0.899   4.860  12.558  3.9806 -0.8536 -0.7779
  149DOPC   C2417772   0.884   4.675  12.449  0.2422 -0.9926  0.0462
  149DOPC   H4R17773   0.858   4.568  12.462 -0.5902 -1.5339 -4.3664
  149DOPC   H4S17774   0.987   4.687  12.409 -0.4907  2.0261 -1.2043
  149DOPC   C2517775   0.797   4.746  12.340 -0.5746 -0.2637  0.5490
  149DOPC   H5R17776   0.833   4.847  12.313 -0.0406 -0.8663 -1.0946
  149DOPC   H5S17777   0.691   4.745  12.374 -0.6075 -2.1905  0.5384
  149DOPC   C2617778   0.789   4.665  12.208 -0.5261 -0.0132  0.3166
  149DOPC   H6R17779   0.787   4.556  12.229 -1.2725 -0.5003 -1.9824
  149DOPC   H6S17780   0.887   4.689  12.163  0.3441  0.2311  2.2452
  149DOPC   C2717781   0.673   4.706  12.121 -0.4727 -0.7696  0.2773
  149DOPC   H7R17782   0.694   4.805  12.073 -1.0576 -1.6449 -1.9327
  149DOPC   H7S17783   0.594   4.718  12.198 -1.2648  1.6499 -0.8195
  149DOPC   C2817784   0.640   4.606  12.012 -0.3606 -0.3201 -0.3609
  149DOPC   H8R17785   0.638   4.502  12.053 -0.4108  0.7159  2.4472
  149DOPC   H8S17786   0.725   4.620  11.941  1.5833 -0.6423  1.7825
  149DOPC   C2917787   0.506   4.651  11.961  0.3669  0.4121 -1.0310
  149DOPC   H9R17788   0.427   4.633  12.035 -0.0948  1.7182 -1.1866
  149DOPC  C21017789   0.477   4.714  11.848  0.8769 -0.2454  0.7800
  149DOPC  H10R17790   0.370   4.730  11.830  0.8287 -0.6882  0.6592
  149DOPC  C21117791   0.574   4.734  11.731 -0.6154 -0.4395  0.3561
  149DOPC  H11R17792   0.678   4.713  11.762 -0.5878 -0.8819 -0.0223
  149DOPC  H11S17793   0.558   4.839  11.699 -0.3270 -0.5149 -0.0348
  149DOPC  C21217794   0.530   4.649  11.603  0.2212  0.5063 -0.0782
  149DOPC  H12R17795   0.452   4.690  11.536 -0.6467 -3.8830 -2.0827
  149DOPC  H12S17796   0.489   4.554  11.643  1.5849  0.6067  1.6924
  149DOPC  C21317797   0.658   4.617  11.522 -0.1908 -0.3653 -0.2592
  149DOPC  H13R17798   0.722   4.572  11.601 -0.6597  0.0865  0.3881
  149DOPC  H13S17799   0.706   4.714  11.495 -1.2732  0.3034  0.1698
  149DOPC  C21417800   0.634   4.521  11.404 -0.1691  0.0576  0.1217
  149DOPC  H14R17801   0.588   4.579  11.321 -0.5257 -0.2053  0.1355
  149DOPC  H14S17802   0.559   4.447  11.439  0.6868 -0.1360  1.6274
  149DOPC  C21517803   0.762   4.437  11.366  0.6814 -0.4109 -0.0238
  149DOPC  H15R17804   0.803   4.386  11.455  1.3569 -1.8719 -1.1300
  149DOPC  H15S17805   0.840   4.512  11.338 -1.2350  1.9079  0.4630
  149DOPC  C21617806   0.744   4.342  11.250 -0.4715  0.2821 -0.3954
  149DOPC  H16R17807   0.707   4.391  11.157 -0.6767 -0.8761 -0.9478
  149DOPC  H16S17808   0.671   4.261  11.270  1.1544 -1.2877 -0.5711
  149DOPC  C21717809   0.875   4.259  11.222 -0.0778 -1.2390 -0.2894
  149DOPC  H17R17810   0.885   4.176  11.295  2.2590 -0.7217  0.0493
  149DOPC  H17S17811   0.964   4.320  11.248 -0.7916 -0.8864  1.5063
  149DOPC  C21817812   0.875   4.203  11.075 -0.2358  0.3014 -0.1840
  149DOPC  H18R17813   0.970   4.146  11.067  0.9941  2.3242 -0.9861
  149DOPC  H18S17814   0.874   4.282  10.997  1.5534 -0.5597 -1.1504
  149DOPC  H18T17815   0.794   4.128  11.067  0.8177 -0.8627 -0.1832
  149DOPC   C3317816   1.151   5.046  12.633  0.2706  0.2041 -0.3924
  149DOPC   H3X17817   1.050   5.004  12.613  0.5405 -0.4737 -0.3731
  149DOPC   H3Y17818   1.210   4.955  12.610 -0.2879 -0.0252 -0.9576
  149DOPC   C3417819   1.171   5.171  12.551 -0.3495 -0.3059  0.6245
  149DOPC   H4X17820   1.275   5.206  12.565 -0.9331  2.1715 -0.6166
  149DOPC   H4Y17821   1.095   5.240  12.594 -1.3958 -2.2215  1.9721
  149DOPC   C3517822   1.134   5.154  12.403 -1.1227 -0.1470  0.2563
  149DOPC   H5X17823   1.025   5.132  12.397 -1.1381  0.0771 -0.3311
  149DOPC   H5Y17824   1.192   5.070  12.360 -2.5787 -1.2595  0.3792
  149DOPC   C3617825   1.169   5.279  12.315 -0.2303 -0.2578 -0.0941
  149DOPC   H6X17826   1.098   5.353  12.358 -1.2588 -1.1850 -0.1608
  149DOPC   H6Y17827   1.270   5.318  12.340 -0.2732 -0.9908  1.3316
  149DOPC   C3717828   1.144   5.255  12.171 -0.1470 -0.3012 -0.2213
  149DOPC   H7X17829   1.202   5.166  12.138  1.1180  0.7036 -0.7792
  149DOPC   H7Y17830   1.041   5.218  12.152 -1.1069  2.8603 -1.8446
  149DOPC   C3817831   1.171   5.369  12.070 -0.2345 -0.3309 -1.0120
  149DOPC   H8X17832   1.281   5.382  12.065 -0.2839  0.1463 -0.8653
  149DOPC   H8Y17833   1.146   5.466  12.117 -0.8884 -1.1615  0.4111
  149DOPC   C3917834   1.092   5.363  11.943 -0.7786 -0.6924  0.8838
  149DOPC   H9X17835   1.123   5.281  11.875  0.7373 -0.1681  0.9064
  149DOPC  C31017836   0.986   5.434  11.906  0.5682 -0.1652 -0.0204
  149DOPC  H10X17837   0.938   5.413  11.809 -0.0261 -1.4188  0.5207
  149DOPC  C31117838   0.912   5.544  11.991 -0.2024  0.2029 -0.3134
  149DOPC  H11X17839   0.883   5.628  11.924  1.0582  0.8890 -0.0221
  149DOPC  H11Y17840   0.994   5.587  12.052 -0.9157  0.4242  0.4905
  149DOPC  C31217841   0.796   5.506  12.080 -0.0543  0.6867  0.1094
  149DOPC  H12X17842   0.729   5.459  12.005 -0.1646 -0.1622  0.7278
  149DOPC  H12Y17843   0.744   5.597  12.117 -3.6462 -0.5947 -1.3912
  149DOPC  C31317844   0.829   5.416  12.201 -0.2181 -0.1944  0.6062
  149DOPC  H13X17845   0.864   5.314  12.173 -1.0345 -0.1044 -0.8420
  149DOPC  H13Y17846   0.899   5.469  12.269  0.0620 -0.2486  0.3611
  149DOPC  C31417847   0.701   5.383  12.283 -0.2613 -0.0677  0.3644
  149DOPC  H14X17848   0.653   5.470  12.333 -1.3671 -1.1109  1.1739
  149DOPC  H14Y17849   0.631   5.357  12.200  1.4760  2.1991 -1.9382
  149DOPC  C31517850   0.720   5.265  12.379 -0.3179  0.4366 -0.1404
  149DOPC  H15X17851   0.810   5.286  12.440  0.8369  1.5816 -2.1364
  149DOPC  H15Y17852   0.742   5.175  12.316  0.7516  0.1282  0.6334
  149DOPC  C31617853   0.610   5.241  12.479  0.5468  0.0142  0.3208
  149DOPC  H16X17854   0.624   5.314  12.561  1.4290  1.0009 -0.6707
  149DOPC  H16Y17855   0.514   5.254  12.426  0.3693  0.6932  0.7999
  149DOPC  C31717856   0.600   5.101  12.542  0.3578  0.4671  0.0828
  149DOPC  H17X17857   0.610   5.028  12.458 -1.3060 -1.4694  1.4831
  149DOPC  H17Y17858   0.685   5.085  12.611 -1.9327 -0.5646  2.8821
  149DOPC  C31817859   0.474   5.077  12.630 -0.0154  0.4035  0.5711
  149DOPC  H18X17860   0.482   4.984  12.690  1.0294 -0.6370 -1.0712
  149DOPC  H18Y17861   0.459   5.169  12.691 -1.3662  0.4329  0.2245
  149DOPC  H18Z17862   0.388   5.061  12.562  0.9378 -1.6529 -0.2391
  150DOPC     N17863   5.043   7.963  13.842  0.1309 -0.1418 -0.4796
  150DOPC   C1217864   4.981   7.903  13.721  0.7069  0.2849 -0.2825
  150DOPC  H12A17865   5.033   7.929  13.630 -1.2793  4.3108 -0.5255
  150DOPC  H12B17866   4.887   7.955  13.704  1.6719  2.0589 -0.4815
  150DOPC   C1317867   5.185   7.909  13.870 -0.5301 -0.2005 -0.1216
  150DOPC  H13A17868   5.177   7.803  13.887 -0.9733  0.1247  1.8919
  150DOPC  H13B17869   5.261   7.919  13.794 -0.6256 -0.1167 -0.2063
  150DOPC  H13C17870   5.223   7.949  13.963  2.0870 -1.2518 -0.6504
  150DOPC   C1417871   4.954   7.939  13.960 -0.3452  0.2891  0.5347
  150DOPC  H14A17872   4.998   7.981  14.048 -2.3791  3.1859  0.3048
  150DOPC  H14B17873   4.857   7.984  13.943 -1.9039 -2.9457 -0.0096
  150DOPC  H14C17874   4.942   7.834  13.985  0.1862 -0.0791 -0.6759
  150DOPC   C1517875   5.048   8.109  13.815 -0.5077 -0.3545  0.6120
  150DOPC  H15A17876   5.140   8.133  13.764 -0.5465  1.1837  1.2020
  150DOPC  H15B17877   5.055   8.167  13.906  0.1349  0.7426 -0.1155
  150DOPC  H15C17878   4.963   8.155  13.767 -0.6310 -0.8101  0.3957
  150DOPC   C1117879   4.955   7.752  13.724 -0.2201 -1.0828 -0.4556
  150DOPC  H11A17880   4.877   7.729  13.801 -0.5691 -0.5555 -0.6409
  150DOPC  H11B17881   4.903   7.719  13.632 -0.2860 -0.6308 -0.5821
  150DOPC     P17882   5.168   7.639  13.627  0.0480  0.1500 -0.0155
  150DOPC   O1317883   5.290   7.597  13.692 -0.2105  0.6165 -0.1317
  150DOPC   O1417884   5.174   7.756  13.525 -0.2483  0.6161  0.4670
  150DOPC   O1217885   5.070   7.672  13.748  0.1232  0.3959 -0.1987
  150DOPC   O1117886   5.100   7.525  13.547  0.6815 -0.6812 -0.3097
  150DOPC    C117887   5.005   7.441  13.602  0.0822  0.0003  0.3145
  150DOPC    HA17888   4.945   7.503  13.673 -0.3251  1.4879 -1.2608
  150DOPC    HB17889   5.057   7.359  13.656  0.0889  0.3960  0.9181
  150DOPC    C217890   4.920   7.391  13.484  0.2758 -0.2493 -0.6429
  150DOPC    HS17891   4.979   7.316  13.426  1.2918 -0.1075  0.1692
  150DOPC   O2117892   4.872   7.499  13.404 -0.2970  0.5214  0.1333
  150DOPC   C2117893   4.941   7.530  13.292  0.0009  1.2287 -1.1680
  150DOPC   O2217894   5.048   7.479  13.263 -0.5693 -0.1665 -0.0075
  150DOPC   C2217895   4.868   7.636  13.215 -0.2141  0.2214  0.4346
  150DOPC   H2R17896   4.859   7.719  13.289 -0.0010  0.4454  0.2103
  150DOPC   H2S17897   4.767   7.596  13.192  0.5512 -1.4746 -0.1075
  150DOPC    C317898   4.794   7.315  13.543  0.5436  0.2747  0.6006
  150DOPC    HX17899   4.753   7.397  13.606  1.7704 -0.6378  2.6865
  150DOPC    HY17900   4.824   7.230  13.608  3.5565 -0.4442 -1.4922
  150DOPC   O3117901   4.684   7.278  13.452 -0.0059  0.2747 -0.2509
  150DOPC   C3117902   4.718   7.163  13.396  0.5528 -0.1321  0.0771
  150DOPC   O3217903   4.829   7.108  13.411  0.0384 -0.3159  0.2821
  150DOPC   C3217904   4.603   7.119  13.296  0.4629  0.1148 -0.1978
  150DOPC   H2X17905   4.533   7.055  13.354 -0.4837 -0.6562 -2.1203
  150DOPC   H2Y17906   4.546   7.209  13.265  2.0510  1.3311  0.2623
  150DOPC   C2317907   4.939   7.689  13.083  0.7974  1.2271 -1.2631
  150DOPC   H3R17908   4.943   7.607  13.009 -3.1213 -0.0587 -0.2976
  150DOPC   H3S17909   5.041   7.727  13.103  1.2254 -0.2096 -0.6241
  150DOPC   C2417910   4.855   7.800  13.028  0.1154 -0.2685  0.0181
  150DOPC   H4R17911   4.863   7.886  13.097  1.5141 -0.5988  0.3054
  150DOPC   H4S17912   4.752   7.761  13.014 -0.0195 -0.1226  0.5903
  150DOPC   C2517913   4.905   7.843  12.891  0.7876 -0.4124 -0.7739
  150DOPC   H5R17914   4.896   7.758  12.821 -2.0473 -0.6430 -0.2517
  150DOPC   H5S17915   5.012   7.872  12.893  0.7899 -0.4084  1.0831
  150DOPC   C2617916   4.806   7.945  12.833 -0.1093 -0.4431  0.0428
  150DOPC   H6R17917   4.836   8.031  12.896 -1.1041 -0.7258  0.9300
  150DOPC   H6S17918   4.705   7.916  12.867  0.2342 -1.5529  0.1424
  150DOPC   C2717919   4.813   7.975  12.683 -0.0461 -0.1135 -0.6374
  150DOPC   H7R17920   4.919   7.960  12.655  0.9331  1.7765  1.7281
  150DOPC   H7S17921   4.788   8.082  12.672 -1.8006 -0.2354  1.3786
  150DOPC   C2817922   4.714   7.879  12.606 -0.1260 -0.0801  0.6936
  150DOPC   H8R17923   4.719   7.773  12.636  0.9631 -0.4933 -0.8026
  150DOPC   H8S17924   4.767   7.879  12.508  1.7938 -2.1165  1.6451
  150DOPC   C2917925   4.569   7.925  12.608  0.2283 -0.1015  0.4191
  150DOPC   H9R17926   4.504   7.875  12.682 -0.5702 -1.2671 -1.0084
  150DOPC  C21017927   4.496   8.016  12.531 -0.6897  0.0726 -0.1705
  150DOPC  H10R17928   4.393   8.018  12.568  0.3136  0.1619  2.8738
  150DOPC  C21117929   4.530   8.100  12.413  0.1156  0.2502 -0.0569
  150DOPC  H11R17930   4.639   8.100  12.390  0.3102 -1.2201  0.7352
  150DOPC  H11S17931   4.513   8.207  12.433 -2.2511  0.1997 -1.3909
  150DOPC  C21217932   4.468   8.062  12.278  0.0073  0.2891  0.0755
  150DOPC  H12R17933   4.518   7.971  12.240 -0.3024  1.0171 -2.2326
  150DOPC  H12S17934   4.485   8.140  12.201 -1.0055 -0.4567 -0.9382
  150DOPC  C21317935   4.321   8.020  12.283 -0.0673  0.2367  0.2030
  150DOPC  H13R17936   4.259   8.100  12.327 -1.4362  0.6327 -2.2948
  150DOPC  H13S17937   4.313   7.923  12.337 -0.2218 -1.3317 -2.4417
  150DOPC  C21417938   4.262   7.979  12.143 -0.2478 -0.5879 -0.1056
  150DOPC  H14R17939   4.192   7.895  12.163  0.6153 -1.1061  0.7606
  150DOPC  H14S17940   4.342   7.933  12.081 -1.4034 -2.0488 -0.5861
  150DOPC  C21517941   4.210   8.104  12.070 -0.5750  0.1883  0.7984
  150DOPC  H15R17942   4.296   8.174  12.065 -0.6410  0.2133 -0.4568
  150DOPC  H15S17943   4.138   8.149  12.142 -1.0628 -0.2543  0.5924
  150DOPC  C21617944   4.143   8.082  11.930 -0.1638 -0.2329 -0.2784
  150DOPC  H16R17945   4.097   8.172  11.884 -2.1936 -0.7142  0.7085
  150DOPC  H16S17946   4.059   8.010  11.939 -1.5565  1.1470 -1.5434
  150DOPC  C21717947   4.236   8.044  11.815 -0.7730 -0.6574  0.3638
  150DOPC  H17R17948   4.286   7.948  11.841  2.3603  0.2920 -1.6141
  150DOPC  H17S17949   4.321   8.115  11.807 -0.9765 -0.5287 -0.8701
  150DOPC  C21817950   4.178   8.027  11.671 -0.4553  0.3401  0.1427
  150DOPC  H18R17951   4.124   8.119  11.641  0.0313  0.4662 -0.3583
  150DOPC  H18S17952   4.101   7.947  11.660 -0.1585  0.2762 -1.9012
  150DOPC  H18T17953   4.258   8.015  11.596 -0.6211 -1.1482  0.1707
  150DOPC   C3317954   4.654   7.038  13.175 -0.3825 -0.0231  0.2469
  150DOPC   H3X17955   4.560   6.992  13.139  0.1382 -2.5779  1.8767
  150DOPC   H3Y17956   4.724   6.957  13.206  1.4833  1.8236  1.0816
  150DOPC   C3417957   4.726   7.132  13.077  0.0618  0.2132 -0.0311
  150DOPC   H4X17958   4.795   7.195  13.135 -0.4842  0.1646  0.6831
  150DOPC   H4Y17959   4.656   7.202  13.026 -0.3255  2.4048  3.2420
  150DOPC   C3517960   4.800   7.046  12.975 -0.1817  0.4004 -0.1222
  150DOPC   H5X17961   4.725   6.972  12.939 -0.9445  1.6641 -1.2213
  150DOPC   H5Y17962   4.880   6.999  13.037 -1.9745 -3.4936 -0.4455
  150DOPC   C3617963   4.859   7.131  12.862 -0.1641 -0.0882  0.1711
  150DOPC   H6X17964   4.783   7.187  12.804 -0.8861  1.1981  2.2699
  150DOPC   H6Y17965   4.928   7.207  12.904 -0.0501  0.1584 -0.4629
  150DOPC   C3717966   4.936   7.048  12.754  0.5350  0.3053 -0.2232
  150DOPC   H7X17967   5.030   7.006  12.794 -0.6453 -0.7498  1.5915
  150DOPC   H7Y17968   4.873   6.964  12.718 -0.0518  0.3600  0.6477
  150DOPC   C3817969   4.962   7.132  12.618 -0.1440 -0.1891 -0.4251
  150DOPC   H8X17970   5.012   7.222  12.659  0.8834 -1.0121  0.1807
  150DOPC   H8Y17971   4.863   7.153  12.572  1.0346  0.9453 -2.6039
  150DOPC   C3917972   5.055   7.060  12.522 -0.3246 -0.1453 -0.5440
  150DOPC   H9X17973   5.114   6.978  12.565 -0.7552 -0.5348 -0.6918
  150DOPC  C31017974   5.081   7.099  12.400  0.4946 -0.5662  0.0089
  150DOPC  H10X17975   5.163   7.056  12.340  0.8358  0.8383 -0.5794
  150DOPC  C31117976   5.019   7.224  12.334  0.1258 -0.0317  0.0498
  150DOPC  H11X17977   5.090   7.306  12.311  0.9193  0.3461  3.3793
  150DOPC  H11Y17978   4.943   7.264  12.405 -1.0321 -3.6049  0.9926
  150DOPC  C31217979   4.944   7.194  12.202  0.3442  0.0402  0.1465
  150DOPC  H12X17980   4.866   7.117  12.216 -0.0900 -0.0868 -2.3920
  150DOPC  H12Y17981   5.017   7.164  12.124  0.2376  1.3777 -0.5132
  150DOPC  C31317982   4.871   7.319  12.148  0.1680 -0.0587 -0.8582
  150DOPC  H13X17983   4.946   7.400  12.156  0.6655 -0.6521  1.0784
  150DOPC  H13Y17984   4.839   7.296  12.044 -1.2379  0.7950 -0.6392
  150DOPC  C31417985   4.738   7.359  12.215 -0.0180 -0.1234 -0.0081
  150DOPC  H14X17986   4.667   7.274  12.209  1.8497 -1.7077 -0.7091
  150DOPC  H14Y17987   4.759   7.362  12.325  0.5586 -1.8826 -0.0331
  150DOPC  C31517988   4.677   7.491  12.171  0.1713 -0.0303 -0.0446
  150DOPC  H15X17989   4.637   7.472  12.069  0.7460 -0.0088 -0.2815
  150DOPC  H15Y17990   4.754   7.571  12.175 -0.5084  0.6172  0.3801
  150DOPC  C31617991   4.568   7.532  12.269  0.0610  0.2174  0.5492
  150DOPC  H16X17992   4.489   7.457  12.287 -0.3237 -0.2176 -2.4837
  150DOPC  H16Y17993   4.616   7.547  12.369 -0.7290  2.2841  0.6756
  150DOPC  C31717994   4.500   7.661  12.226 -0.3053  0.1815  0.1916
  150DOPC  H17X17995   4.472   7.723  12.314  2.5058 -1.7731  2.7054
  150DOPC  H17Y17996   4.570   7.724  12.168  0.5626  0.6658  1.7185
  150DOPC  C31817997   4.381   7.631  12.132 -0.7529  0.0069 -0.2293
  150DOPC  H18X17998   4.311   7.567  12.189  0.1756 -0.2082  0.6869
  150DOPC  H18Y17999   4.335   7.729  12.105 -1.0349  0.0315  0.3367
  150DOPC  H18Z18000   4.400   7.589  12.031  1.7500  2.5462 -0.9268
  151DOPC     N18001   7.863   4.660  13.347 -0.1783  0.4892 -0.2937
  151DOPC   C1218002   7.977   4.685  13.255  0.3110 -0.5532  0.3849
  151DOPC  H12A18003   8.021   4.776  13.293 -2.1564  0.9654 -0.1464
  151DOPC  H12B18004   7.948   4.709  13.154  1.7252  1.6840  0.4304
  151DOPC   C1318005   7.748   4.761  13.329  0.2171  0.3103 -0.1091
  151DOPC  H13A18006   7.704   4.749  13.232 -0.3907 -1.6378  0.3573
  151DOPC  H13B18007   7.673   4.753  13.407  1.0000 -0.9081  0.5677
  151DOPC  H13C18008   7.794   4.857  13.346  1.5387 -0.0443 -1.4767
  151DOPC   C1418009   7.901   4.674  13.489  0.4264  0.2343 -0.6454
  151DOPC  H14A18010   7.984   4.607  13.506  1.6046  1.1371 -2.5246
  151DOPC  H14B18011   7.907   4.779  13.511 -0.2028  0.0324  0.5696
  151DOPC  H14C18012   7.821   4.647  13.557  1.4290  0.4630  0.6548
  151DOPC   C1518013   7.807   4.525  13.329 -0.5551  0.2009  0.7063
  151DOPC  H15A18014   7.739   4.497  13.408 -0.4537  2.5040  1.6713
  151DOPC  H15B18015   7.883   4.448  13.335  0.2407  0.9621  0.5420
  151DOPC  H15C18016   7.760   4.518  13.232  0.5513  0.4254  0.1407
  151DOPC   C1118017   8.084   4.576  13.235 -0.4073  0.0337  0.5891
  151DOPC  H11A18018   8.034   4.480  13.210  2.1882 -0.9970 -0.9892
  151DOPC  H11B18019   8.149   4.593  13.146 -3.5885  0.1893 -1.8718
  151DOPC     P18020   8.215   4.427  13.408  0.0972  0.2007  0.1998
  151DOPC   O1318021   8.097   4.338  13.410 -0.2858 -0.1809 -0.1550
  151DOPC   O1418022   8.285   4.442  13.535 -0.0875 -0.2291  0.5237
  151DOPC   O1218023   8.168   4.566  13.355 -0.7323 -0.7188 -0.1252
  151DOPC   O1118024   8.315   4.375  13.297 -0.6450 -0.5137  0.6419
  151DOPC    C118025   8.289   4.254  13.231 -0.0748 -0.6848 -0.4640
  151DOPC    HA18026   8.195   4.231  13.176 -1.8224 -1.4976  2.6294
  151DOPC    HB18027   8.289   4.171  13.305  0.9654 -1.2544 -1.0695
  151DOPC    C218028   8.401   4.225  13.134  0.9892 -0.4201  0.3553
  151DOPC    HS18029   8.495   4.230  13.193 -0.6531  1.7166  2.9776
  151DOPC   O2118030   8.393   4.317  13.025  0.1664 -0.1325 -0.2944
  151DOPC   C2118031   8.506   4.358  12.965 -0.4544 -0.1204  0.4857
  151DOPC   O2218032   8.618   4.321  12.990  0.8696  0.3157 -0.5946
  151DOPC   C2218033   8.467   4.443  12.847  0.0477 -0.8815  0.0112
  151DOPC   H2R18034   8.533   4.532  12.849 -0.6027 -0.3797 -0.4440
  151DOPC   H2S18035   8.362   4.479  12.848  0.5576  0.6869  1.2219
  151DOPC    C318036   8.383   4.080  13.077 -0.2845  0.2147  0.3280
  151DOPC    HX18037   8.282   4.073  13.031  0.0017 -0.6067 -0.1966
  151DOPC    HY18038   8.383   3.996  13.150 -2.1363 -2.5737 -2.6242
  151DOPC   O3118039   8.478   4.047  12.964  0.3668  0.5492  0.1820
  151DOPC   C3118040   8.607   4.043  13.003  0.2152  1.0750 -0.1661
  151DOPC   O3218041   8.645   4.044  13.114 -0.1271  0.1643 -0.0002
  151DOPC   C3218042   8.690   4.021  12.871 -1.1033  0.6702 -0.4058
  151DOPC   H2X18043   8.690   3.912  12.851  1.3788  0.6075 -0.3413
  151DOPC   H2Y18044   8.642   4.072  12.785 -1.6290 -1.4622 -1.4428
  151DOPC   C2318045   8.505   4.360  12.721  0.5355 -0.3796  0.0701
  151DOPC   H3R18046   8.598   4.301  12.738  1.2355  0.6874  0.0503
  151DOPC   H3S18047   8.509   4.429  12.634 -1.8725 -0.4332 -0.1372
  151DOPC   C2418048   8.383   4.267  12.690  0.1663  0.3072  0.4573
  151DOPC   H4R18049   8.282   4.312  12.686 -0.5214 -1.0507  1.6778
  151DOPC   H4S18050   8.385   4.194  12.773  1.3556 -2.5693 -1.9471
  151DOPC   C2518051   8.411   4.188  12.562 -0.2629 -0.3659  0.3557
  151DOPC   H5R18052   8.356   4.092  12.565  1.2933 -1.4211 -1.7321
  151DOPC   H5S18053   8.520   4.167  12.554  0.0728  0.8180  1.4810
  151DOPC   C2618054   8.350   4.261  12.443  0.3447 -0.5383  0.7415
  151DOPC   H6R18055   8.397   4.247  12.343 -0.2580 -1.0962  0.5253
  151DOPC   H6S18056   8.348   4.371  12.458 -1.0115 -0.7072  2.0899
  151DOPC   C2718057   8.206   4.215  12.428 -0.1538 -0.3589 -0.0962
  151DOPC   H7R18058   8.148   4.241  12.519 -1.1130  2.0477 -1.2887
  151DOPC   H7S18059   8.201   4.105  12.416 -0.3212 -0.2611 -1.0126
  151DOPC   C2818060   8.145   4.287  12.306  0.3012 -0.0454  1.2816
  151DOPC   H8R18061   8.217   4.277  12.223  0.2465  2.3018  0.8917
  151DOPC   H8S18062   8.123   4.394  12.320 -0.4255 -0.0455  0.2475
  151DOPC   C2918063   8.017   4.217  12.271 -0.1035  0.2673  0.1915
  151DOPC   H9R18064   8.017   4.108  12.278  0.3466 -0.0423 -2.9871
  151DOPC  C21018065   7.905   4.282  12.225 -0.7848 -0.4006 -0.4926
  151DOPC  H10R18066   7.815   4.220  12.215 -1.3415  0.4404 -0.9043
  151DOPC  C21118067   7.888   4.433  12.199 -0.1095 -0.2489  0.5191
  151DOPC  H11R18068   7.807   4.447  12.124 -1.2703 -0.6641  1.6468
  151DOPC  H11S18069   7.982   4.480  12.164  0.2978  0.7365  2.7873
  151DOPC  C21218070   7.828   4.507  12.316 -0.3517 -0.2454  0.1935
  151DOPC  H12R18071   7.824   4.617  12.299 -1.9211 -0.0755  1.4629
  151DOPC  H12S18072   7.882   4.491  12.411  0.4817 -0.5179 -0.3166
  151DOPC  C21318073   7.691   4.457  12.362 -0.7190  0.1535  0.3719
  151DOPC  H13R18074   7.704   4.351  12.394  0.2631  0.4677  1.0550
  151DOPC  H13S18075   7.631   4.453  12.269  0.2035 -2.1826 -0.1947
  151DOPC  C21418076   7.634   4.545  12.470  0.2902  0.2557 -0.2839
  151DOPC  H14R18077   7.668   4.513  12.571 -0.2356  0.5779 -0.0035
  151DOPC  H14S18078   7.525   4.529  12.465  0.0031  1.7763  0.4220
  151DOPC  C21518079   7.658   4.693  12.448 -0.0422 -0.4113 -1.1115
  151DOPC  H15R18080   7.644   4.720  12.341  2.0875  1.3199 -1.0238
  151DOPC  H15S18081   7.763   4.719  12.474 -0.2396  0.5065 -1.2113
  151DOPC  C21618082   7.568   4.780  12.547 -0.5276 -0.5555 -0.5524
  151DOPC  H16R18083   7.475   4.726  12.575 -1.6866  1.6807  0.1800
  151DOPC  H16S18084   7.533   4.867  12.488  0.0657 -0.5901 -0.9601
  151DOPC  C21718085   7.648   4.824  12.671  0.4040 -0.1704 -0.2874
  151DOPC  H17R18086   7.729   4.895  12.644  0.9962 -1.1907 -1.2742
  151DOPC  H17S18087   7.684   4.730  12.718  0.7546  0.2599  0.3282
  151DOPC  C21818088   7.552   4.888  12.771 -0.5352  0.3889  0.3947
  151DOPC  H18R18089   7.602   4.897  12.870  1.0665  0.0971 -0.3646
  151DOPC  H18S18090   7.454   4.836  12.774 -0.5549  0.2960 -1.0838
  151DOPC  H18T18091   7.541   4.995  12.742 -0.6688 -0.1306 -1.5869
  151DOPC   C3318092   8.842   4.059  12.886  0.3105 -0.0913 -0.4904
  151DOPC   H3X18093   8.903   3.980  12.837 -1.3517  0.2572 -3.3844
  151DOPC   H3Y18094   8.874   4.067  12.992  0.0576  1.0532 -0.4864
  151DOPC   C3418095   8.889   4.189  12.817 -0.8286 -0.2733  0.0522
  151DOPC   H4X18096   8.986   4.217  12.865  0.0842 -0.0086 -1.8625
  151DOPC   H4Y18097   8.820   4.275  12.832  0.5164  0.5959  1.6514
  151DOPC   C3518098   8.919   4.171  12.665  0.3105  0.8851 -0.9815
  151DOPC   H5X18099   8.833   4.142  12.601 -0.7438 -3.6634  2.0026
  151DOPC   H5Y18100   9.001   4.096  12.654  3.3645  3.8947 -0.2785
  151DOPC   C3618101   8.966   4.311  12.615  0.4567  0.9221  0.1983
  151DOPC   H6X18102   9.031   4.353  12.695  0.2856 -2.5177  2.3612
  151DOPC   H6Y18103   9.020   4.311  12.518  1.4886  0.1360  0.7454
  151DOPC   C3718104   8.846   4.398  12.585 -0.0959  0.5960 -0.1248
  151DOPC   H7X18105   8.786   4.355  12.503  1.5751 -1.1868 -0.4728
  151DOPC   H7Y18106   8.777   4.399  12.673 -0.3157 -0.4850 -0.2685
  151DOPC   C3818107   8.886   4.537  12.537 -1.0341 -0.1547  0.5609
  151DOPC   H8X18108   8.930   4.521  12.436  0.8634  1.0144  1.1578
  151DOPC   H8Y18109   8.971   4.578  12.594 -1.2759  3.4524 -1.4015
  151DOPC   C3918110   8.775   4.640  12.555  0.1800  0.7067 -0.5898
  151DOPC   H9X18111   8.701   4.608  12.630 -1.0433 -0.3148 -2.1533
  151DOPC  C31018112   8.728   4.726  12.461 -0.4973 -0.6159 -0.3048
  151DOPC  H10X18113   8.639   4.782  12.491 -1.2930 -1.4073 -1.1493
  151DOPC  C31118114   8.779   4.763  12.329  0.4945  0.4821  0.2767
  151DOPC  H11X18115   8.806   4.664  12.287  1.2346  1.0734 -0.6559
  151DOPC  H11Y18116   8.873   4.821  12.332 -0.6262  2.3458  2.5031
  151DOPC  C31218117   8.675   4.827  12.234 -0.2968  0.2959 -0.3748
  151DOPC  H12X18118   8.573   4.787  12.252 -0.3974  0.8284  0.2828
  151DOPC  H12Y18119   8.705   4.803  12.130  3.1701 -0.8123  0.7401
  151DOPC  C31318120   8.663   4.974  12.260  0.3187  0.4343 -0.4281
  151DOPC  H13X18121   8.580   5.020  12.200 -0.1135  0.5269  0.2332
  151DOPC  H13Y18122   8.635   4.982  12.367  1.7724 -1.6905  0.1639
  151DOPC  C31418123   8.786   5.061  12.233  0.1608  0.0965 -0.2276
  151DOPC  H14X18124   8.767   5.164  12.269  1.1819  0.4677 -0.7261
  151DOPC  H14Y18125   8.868   5.026  12.299  1.2097  2.2371 -0.3040
  151DOPC  C31518126   8.828   5.058  12.084 -0.3316  0.6827  1.1549
  151DOPC  H15X18127   8.743   5.092  12.022 -1.9841  0.6250  3.2845
  151DOPC  H15Y18128   8.851   4.955  12.050  0.1067  1.2246 -0.2811
  151DOPC  C31618129   8.950   5.151  12.061  0.1503  0.2479  0.9084
  151DOPC  H16X18130   8.921   5.255  12.035 -0.9292 -0.5166 -1.2044
  151DOPC  H16Y18131   9.016   5.141  12.150 -0.1065  1.2487  1.2277
  151DOPC  C31718132   9.029   5.093  11.939  0.5844  0.0822 -0.5899
  151DOPC  H17X18133   9.008   4.984  11.942 -1.8760  0.3945 -2.7657
  151DOPC  H17Y18134   8.988   5.129  11.842  0.4816 -0.7293 -0.8575
  151DOPC  C31818135   9.179   5.117  11.941 -0.2040 -0.6481  0.0133
  151DOPC  H18X18136   9.199   5.226  11.937  1.7324 -0.9856 -1.9088
  151DOPC  H18Y18137   9.217   5.064  12.031  2.2484 -0.0342 -0.5665
  151DOPC  H18Z18138   9.219   5.093  11.840 -0.1135 -1.8638  0.3210
  152DOPC     N18139   2.569   1.597  13.034  0.2680  0.5318  0.4099
  152DOPC   C1218140   2.613   1.487  13.123  0.0503 -0.0356  0.2572
  152DOPC  H12A18141   2.709   1.446  13.095 -0.5755 -1.6701  0.4164
  152DOPC  H12B18142   2.536   1.412  13.116  0.1669 -0.3254  1.7023
  152DOPC   C1318143   2.434   1.633  13.056  0.7900  0.1335 -0.8317
  152DOPC  H13A18144   2.369   1.547  13.050  2.6027 -1.2915 -0.8625
  152DOPC  H13B18145   2.404   1.666  13.155  0.1838  0.2756 -1.0566
  152DOPC  H13C18146   2.399   1.706  12.985 -0.0715  0.7293  0.1626
  152DOPC   C1418147   2.583   1.556  12.891  0.5140  0.4996  0.6458
  152DOPC  H14A18148   2.504   1.491  12.857  0.4699  0.4449  0.8524
  152DOPC  H14B18149   2.569   1.636  12.819  0.3070  1.6676  1.9345
  152DOPC  H14C18150   2.679   1.507  12.882  0.4091  0.5500 -1.2101
  152DOPC   C1518151   2.663   1.708  13.054  0.2991  0.0689  0.4682
  152DOPC  H15A18152   2.697   1.723  13.155  2.4707 -1.4257  0.0309
  152DOPC  H15B18153   2.631   1.805  13.020 -0.5363 -0.5476 -0.5611
  152DOPC  H15C18154   2.759   1.681  13.012  0.3422  2.1977 -0.9920
  152DOPC   C1118155   2.617   1.518  13.276  0.2379  0.3462 -0.7667
  152DOPC  H11A18156   2.691   1.450  13.322 -1.0040 -1.0303 -0.7373
  152DOPC  H11B18157   2.658   1.621  13.290  1.9536 -0.2307 -1.3730
  152DOPC     P18158   2.414   1.358  13.330 -0.4926  0.3014 -0.0726
  152DOPC   O1318159   2.297   1.359  13.418  0.2548  0.0447  0.3143
  152DOPC   O1418160   2.510   1.244  13.359 -0.0028  0.0469 -0.7633
  152DOPC   O1218161   2.490   1.501  13.332 -0.1874  0.3118 -0.6977
  152DOPC   O1118162   2.367   1.336  13.174 -0.1269  0.3628 -0.4636
  152DOPC    C118163   2.277   1.220  13.143  0.7755 -0.0545  0.2723
  152DOPC    HA18164   2.173   1.259  13.141  1.7279  2.9013  1.9843
  152DOPC    HB18165   2.282   1.137  13.217  1.7215 -1.1453 -0.9634
  152DOPC    C218166   2.321   1.159  13.012  0.0854 -0.1126  0.5422
  152DOPC    HS18167   2.246   1.085  12.976  1.6546 -1.7219  0.4204
  152DOPC   O2118168   2.454   1.099  13.030 -0.0052 -0.1591 -0.2702
  152DOPC   C2118169   2.476   0.998  12.938  0.2985  0.3061  0.3588
  152DOPC   O2218170   2.398   0.976  12.846  0.6208  0.1723 -0.5192
  152DOPC   C2218171   2.602   0.932  12.967  0.0472  0.6224 -0.0825
  152DOPC   H2R18172   2.606   0.842  12.903 -1.4446  0.0295  0.6293
  152DOPC   H2S18173   2.596   0.905  13.075  0.3427  1.4151  0.1444
  152DOPC    C318174   2.323   1.270  12.899  0.6674 -0.4848 -0.0325
  152DOPC    HX18175   2.352   1.225  12.802  1.1745 -0.5414  0.1400
  152DOPC    HY18176   2.412   1.331  12.924  1.3536 -0.4437 -2.3496
  152DOPC   O3118177   2.198   1.342  12.893 -0.4489 -0.1075 -0.5043
  152DOPC   C3118178   2.176   1.414  12.776 -0.3361  0.0059 -0.5482
  152DOPC   O3218179   2.246   1.403  12.678  0.0642 -0.3676  0.0392
  152DOPC   C3218180   2.063   1.514  12.789 -0.5242 -0.8472  0.0890
  152DOPC   H2X18181   1.980   1.462  12.842 -0.0879 -0.9422  0.6922
  152DOPC   H2Y18182   2.107   1.595  12.850 -0.6054 -1.1135  0.5047
  152DOPC   C2318183   2.729   1.023  12.938  0.8443  0.0079  0.1020
  152DOPC   H3R18184   2.815   0.953  12.955  0.2530 -0.6203  0.5690
  152DOPC   H3S18185   2.734   1.110  13.007  3.0908  1.6478 -1.9568
  152DOPC   C2418186   2.738   1.072  12.795  0.2200  0.2184 -0.4002
  152DOPC   H4R18187   2.662   1.154  12.795 -0.1893 -0.1426 -1.1775
  152DOPC   H4S18188   2.706   0.997  12.719 -1.1260  0.5126 -0.1575
  152DOPC   C2518189   2.870   1.116  12.748 -0.9121 -0.1846  0.6677
  152DOPC   H5R18190   2.940   1.031  12.732 -1.5081 -0.2946 -1.9036
  152DOPC   H5S18191   2.909   1.189  12.821 -0.8939  1.6928 -1.1381
  152DOPC   C2618192   2.845   1.193  12.621 -0.5156 -0.4960 -0.1606
  152DOPC   H6R18193   2.764   1.269  12.627  0.4073  0.4957  0.1412
  152DOPC   H6S18194   2.810   1.126  12.540  0.0515  0.7278 -1.4673
  152DOPC   C2718195   2.968   1.277  12.579  0.1479  0.2908  0.5372
  152DOPC   H7R18196   3.061   1.225  12.609 -1.1433 -1.6601  1.3891
  152DOPC   H7S18197   2.969   1.375  12.632 -0.3162  1.1958 -1.0691
  152DOPC   C2818198   2.961   1.319  12.436 -0.3396 -0.4978  0.2615
  152DOPC   H8R18199   2.865   1.372  12.415  0.1311  1.1667  2.0327
  152DOPC   H8S18200   2.956   1.234  12.365 -0.1134 -1.0836  0.9325
  152DOPC   C2918201   3.081   1.401  12.388 -0.3761  0.4964 -0.7815
  152DOPC   H9R18202   3.175   1.372  12.436 -0.0366  0.0179 -1.7174
  152DOPC  C21018203   3.099   1.477  12.274  0.2722  0.0569 -0.1153
  152DOPC  H10R18204   3.201   1.516  12.262 -0.2505  1.3239 -0.5939
  152DOPC  C21118205   2.993   1.514  12.177  0.9057  0.5098  0.2506
  152DOPC  H11R18206   2.893   1.490  12.217 -0.1728  1.7794 -1.5504
  152DOPC  H11S18207   2.996   1.444  12.090  0.5455  0.9016 -0.0783
  152DOPC  C21218208   2.976   1.660  12.136 -0.1153  0.2757  0.3965
  152DOPC  H12R18209   2.968   1.722  12.228  3.2369 -0.9545  1.6572
  152DOPC  H12S18210   2.882   1.677  12.078  1.3610  1.6211 -1.7476
  152DOPC  C21318211   3.096   1.711  12.058 -0.2625 -0.0543 -0.2845
  152DOPC  H13R18212   3.128   1.636  11.983  1.8732 -1.0265  1.4628
  152DOPC  H13S18213   3.188   1.708  12.122 -0.0637  1.0629 -0.5041
  152DOPC  C21418214   3.079   1.850  12.003  0.7280  0.0736 -0.4010
  152DOPC  H14R18215   3.169   1.907  11.968 -0.7440  1.3587 -2.2973
  152DOPC  H14S18216   3.029   1.912  12.080  0.8109  0.2241 -0.4675
  152DOPC  C21518217   2.976   1.856  11.887 -0.2418 -0.0370  0.1406
  152DOPC  H15R18218   2.878   1.837  11.936 -0.4755 -0.3995 -0.4533
  152DOPC  H15S18219   2.990   1.771  11.817 -0.2647 -0.1153  0.2292
  152DOPC  C21618220   2.989   1.992  11.817  0.1030 -0.4531 -0.2844
  152DOPC  H16R18221   2.973   1.977  11.709  1.0853  1.5558 -0.7605
  152DOPC  H16S18222   3.086   2.044  11.833 -0.4012  1.3151 -2.4980
  152DOPC  C21718223   2.872   2.083  11.859  0.1752  0.6936  0.2963
  152DOPC  H17R18224   2.848   2.072  11.967 -1.1601  0.3950 -0.0174
  152DOPC  H17S18225   2.785   2.061  11.795  1.5252  1.4046 -1.8949
  152DOPC  C21818226   2.908   2.228  11.831 -0.6081  0.0775  0.2502
  152DOPC  H18R18227   2.972   2.225  11.740 -0.8880 -3.4497  0.0443
  152DOPC  H18S18228   2.970   2.270  11.913  0.3062 -0.7174 -0.0112
  152DOPC  H18T18229   2.812   2.283  11.822  0.0797  1.4024  0.7430
  152DOPC   C3318230   2.029   1.565  12.645 -0.6666  0.6857 -0.2776
  152DOPC   H3X18231   2.028   1.475  12.580  2.6337  1.0999 -1.1081
  152DOPC   H3Y18232   2.107   1.624  12.592 -1.2014  0.3390 -1.4791
  152DOPC   C3418233   1.906   1.647  12.636  0.3931  0.6592 -0.0230
  152DOPC   H4X18234   1.899   1.719  12.721  1.4145  0.6362  0.0952
  152DOPC   H4Y18235   1.817   1.581  12.639  0.0565  1.1240  0.8446
  152DOPC   C3518236   1.886   1.698  12.501  0.0150 -0.5390 -0.0753
  152DOPC   H5X18237   1.935   1.637  12.422  1.3831 -1.5928  1.5374
  152DOPC   H5Y18238   1.934   1.799  12.504  0.5366 -0.8129  2.6779
  152DOPC   C3618239   1.732   1.713  12.468  0.1819 -0.6075  0.1661
  152DOPC   H6X18240   1.723   1.759  12.368 -0.7817 -3.5432 -1.1973
  152DOPC   H6Y18241   1.673   1.619  12.467 -2.0091  0.7010 -0.9392
  152DOPC   C3718242   1.661   1.810  12.559 -0.0134  0.1594  0.3642
  152DOPC   H7X18243   1.662   1.763  12.660  2.2737 -1.8032 -0.4786
  152DOPC   H7Y18244   1.725   1.900  12.569  0.9277 -0.5203  0.5985
  152DOPC   C3818245   1.511   1.837  12.515 -0.5043  0.0715 -0.7770
  152DOPC   H8X18246   1.443   1.831  12.602  0.8517  3.9150  0.7665
  152DOPC   H8Y18247   1.481   1.766  12.435  1.5334 -0.6553 -0.9448
  152DOPC   C3918248   1.503   1.971  12.450  0.0699 -1.1529 -0.0170
  152DOPC   H9X18249   1.596   2.017  12.415  0.7420  1.4798  4.4574
  152DOPC  C31018250   1.394   2.031  12.400  0.2698 -0.4956  0.8786
  152DOPC  H10X18251   1.410   2.126  12.346  0.6776 -0.7123  0.6140
  152DOPC  C31118252   1.252   1.976  12.405  0.3236 -0.0614  0.0254
  152DOPC  H11X18253   1.190   2.040  12.471 -1.6053  0.4184 -2.1262
  152DOPC  H11Y18254   1.247   1.876  12.453  1.3388  0.2808  0.8955
  152DOPC  C31218255   1.194   1.982  12.262 -0.6350  0.5187  0.0593
  152DOPC  H12X18256   1.254   1.913  12.199 -0.3541 -1.0744  1.9713
  152DOPC  H12Y18257   1.198   2.085  12.221 -1.9112 -0.3660 -2.5065
  152DOPC  C31318258   1.046   1.941  12.238 -0.7245 -0.1198 -0.0296
  152DOPC  H13X18259   1.041   1.884  12.142  0.3033 -1.1516  0.5006
  152DOPC  H13Y18260   1.011   1.872  12.318  2.3485 -0.1655  1.4138
  152DOPC  C31418261   0.959   2.064  12.218 -0.7498 -0.2395 -0.3129
  152DOPC  H14X18262   0.960   2.128  12.309 -0.1555  0.9656 -1.1327
  152DOPC  H14Y18263   0.998   2.133  12.140  0.8912 -0.1558  0.5379
  152DOPC  C31518264   0.813   2.034  12.199  0.2729 -0.2279  0.0678
  152DOPC  H15X18265   0.798   1.940  12.141  0.3835 -0.5801  0.6037
  152DOPC  H15Y18266   0.775   2.123  12.143  0.7035  0.5479  0.9754
  152DOPC  C31618267   0.726   2.014  12.321  0.4661 -0.0342  0.3901
  152DOPC  H16X18268   0.779   1.939  12.383  4.1767  0.9709 -1.2917
  152DOPC  H16Y18269   0.739   2.109  12.377  1.3908  0.6116 -0.8610
  152DOPC  C31718270   0.577   1.981  12.287 -0.3089  0.1138  0.5736
  152DOPC  H17X18271   0.537   2.054  12.214 -1.2826 -1.0518 -0.0986
  152DOPC  H17Y18272   0.579   1.885  12.231  0.6392 -0.9996  2.4154
  152DOPC  C31818273   0.487   1.975  12.406 -0.1096 -0.0518  0.0182
  152DOPC  H18X18274   0.506   2.066  12.466  0.0672  0.6989 -1.1646
  152DOPC  H18Y18275   0.379   1.968  12.381 -0.6518  1.6179  1.6909
  152DOPC  H18Z18276   0.514   1.888  12.471  0.3946  0.2578  0.2258
  153DOPC     N18277   4.179   1.517  13.089  0.5854  0.3322 -0.1742
  153DOPC   C1218278   4.293   1.594  13.020 -0.1458  0.1101 -0.5846
  153DOPC  H12A18279   4.243   1.676  12.971 -1.7169 -0.6085 -0.2193
  153DOPC  H12B18280   4.338   1.538  12.939 -0.3368 -1.0192  0.0704
  153DOPC   C1318281   4.233   1.386  13.137  0.2155 -0.1933 -0.0970
  153DOPC  H13A18282   4.168   1.344  13.213 -1.0865  0.3923 -0.8501
  153DOPC  H13B18283   4.234   1.314  13.057 -1.3405 -1.7111  1.1511
  153DOPC  H13C18284   4.336   1.395  13.168  0.3581  2.6266 -1.0709
  153DOPC   C1418285   4.072   1.491  12.989  0.3395  0.2106  0.5177
  153DOPC  H14A18286   4.028   1.583  12.955  2.1746  0.4806 -1.3767
  153DOPC  H14B18287   4.104   1.435  12.903  0.6379 -1.3939  1.6261
  153DOPC  H14C18288   3.993   1.435  13.036  1.4430 -0.7171  1.3317
  153DOPC   C1518289   4.125   1.589  13.206 -0.3541  0.5042 -0.2773
  153DOPC  H15A18290   4.102   1.693  13.188  1.1858  1.1124  0.9900
  153DOPC  H15B18291   4.205   1.590  13.279 -1.4125 -2.2039  1.0435
  153DOPC  H15C18292   4.048   1.534  13.257 -1.0258  0.1368 -1.6424
  153DOPC   C1118293   4.399   1.651  13.119 -0.3597 -0.4472 -0.6041
  153DOPC  H11A18294   4.449   1.569  13.175  0.9679  1.8305  1.8013
  153DOPC  H11B18295   4.478   1.696  13.056 -0.1159 -0.1234 -0.0772
  153DOPC     P18296   4.322   1.896  13.167  0.0185 -0.3136 -0.0153
  153DOPC   O1318297   4.327   1.990  13.285 -0.0122  0.1719 -0.0589
  153DOPC   O1418298   4.199   1.900  13.077 -0.5110 -0.0178 -0.8875
  153DOPC   O1218299   4.353   1.742  13.215 -0.3238 -0.0884 -0.1802
  153DOPC   O1118300   4.444   1.921  13.073  0.4313  0.1918  0.0130
  153DOPC    C118301   4.466   2.046  13.006 -0.1010 -0.0450 -0.4990
  153DOPC    HA18302   4.576   2.059  12.999 -0.1452 -0.1600 -1.4694
  153DOPC    HB18303   4.433   2.134  13.066 -1.4931  0.2243 -1.6002
  153DOPC    C218304   4.413   2.039  12.867 -0.0756  0.1675  0.1877
  153DOPC    HS18305   4.302   2.049  12.865  0.0421  2.2062  1.2896
  153DOPC   O2118306   4.461   1.914  12.811 -0.2034 -0.0878 -0.1883
  153DOPC   C2118307   4.392   1.848  12.719  0.0557  0.0484  0.2131
  153DOPC   O2218308   4.273   1.873  12.692  0.4678  0.1178 -0.8254
  153DOPC   C2218309   4.483   1.748  12.649 -0.0619 -0.2876  0.4684
  153DOPC   H2R18310   4.508   1.678  12.732  0.2877  1.0460  1.5220
  153DOPC   H2S18311   4.566   1.801  12.599 -1.3327  0.2049 -1.2388
  153DOPC    C318312   4.468   2.160  12.781 -0.1475 -0.2978 -0.6869
  153DOPC    HX18313   4.579   2.150  12.787 -0.0534  0.4156 -1.1271
  153DOPC    HY18314   4.445   2.261  12.821  0.6936 -0.2630 -0.2545
  153DOPC   O3118315   4.435   2.150  12.643  0.2862  0.3582 -0.4453
  153DOPC   C3118316   4.305   2.167  12.616 -0.3701  0.3663  0.0664
  153DOPC   O3218317   4.226   2.213  12.696 -0.3982  0.4316  0.6149
  153DOPC   C3218318   4.278   2.153  12.463 -0.3352 -0.0242 -0.0948
  153DOPC   H2X18319   4.278   2.255  12.418 -0.7216  1.0497  2.1958
  153DOPC   H2Y18320   4.354   2.087  12.418  0.2190  1.0010 -0.7018
  153DOPC   C2318321   4.422   1.665  12.531  0.4121 -0.1928  0.0079
  153DOPC   H3R18322   4.314   1.654  12.554  0.4525 -2.3464 -0.6440
  153DOPC   H3S18323   4.462   1.562  12.533  0.4355 -0.2400 -1.5603
  153DOPC   C2418324   4.451   1.727  12.399  0.0792 -0.1813 -0.1469
  153DOPC   H4R18325   4.431   1.836  12.401 -0.4433 -0.1841 -2.2837
  153DOPC   H4S18326   4.386   1.682  12.321 -0.3949 -1.8781  1.1645
  153DOPC   C2518327   4.596   1.707  12.350  0.7116 -0.4529 -0.0291
  153DOPC   H5R18328   4.633   1.603  12.362  0.9749 -0.4978 -1.1777
  153DOPC   H5S18329   4.661   1.771  12.414 -1.0593  1.6684 -0.2246
  153DOPC   C2618330   4.621   1.756  12.210  0.0714  0.0959 -0.3644
  153DOPC   H6R18331   4.591   1.684  12.130  1.0021  1.4210 -1.9829
  153DOPC   H6S18332   4.729   1.782  12.207  0.3711 -1.0867 -0.2726
  153DOPC   C2718333   4.562   1.893  12.187  0.5181  0.1442 -0.3990
  153DOPC   H7R18334   4.571   1.951  12.281  2.5483  0.5596 -0.8098
  153DOPC   H7S18335   4.455   1.888  12.159  0.7871 -1.5246 -1.3008
  153DOPC   C2818336   4.636   1.972  12.076  0.0423 -0.0823 -0.0796
  153DOPC   H8R18337   4.647   1.901  11.991 -1.7085  2.2158 -2.4101
  153DOPC   H8S18338   4.738   2.005  12.104 -0.1655 -0.7459  1.5760
  153DOPC   C2918339   4.549   2.094  12.032 -0.1188  0.4062 -0.2648
  153DOPC   H9R18340   4.593   2.193  12.052  0.9075 -0.2003  0.5564
  153DOPC  C21018341   4.437   2.088  11.962  0.3457  0.4242 -0.2752
  153DOPC  H10R18342   4.387   2.182  11.935 -0.5350  0.2720  0.7362
  153DOPC  C21118343   4.363   1.967  11.898  0.3635 -0.2541  0.0429
  153DOPC  H11R18344   4.255   1.979  11.922  0.1459  0.0591 -1.0220
  153DOPC  H11S18345   4.407   1.869  11.922 -1.7997 -0.8714  1.8049
  153DOPC  C21218346   4.377   1.964  11.745  0.1762 -0.1850  1.6317
  153DOPC  H12R18347   4.484   1.945  11.723  0.3072  0.9031  1.2657
  153DOPC  H12S18348   4.340   2.062  11.707 -0.4447 -1.4470 -1.2478
  153DOPC  C21318349   4.296   1.853  11.670  0.4320  0.5797  0.2769
  153DOPC  H13R18350   4.190   1.846  11.702  0.6765  0.9863  1.2320
  153DOPC  H13S18351   4.328   1.753  11.706 -1.8835 -0.9134 -1.5611
  153DOPC  C21418352   4.296   1.877  11.523 -0.4792  0.2261 -0.2159
  153DOPC  H14R18353   4.269   1.984  11.516 -0.7927  0.3495  2.0583
  153DOPC  H14S18354   4.217   1.810  11.481  0.5104 -1.1792  0.0924
  153DOPC  C21518355   4.430   1.842  11.453 -0.3868 -0.4988  0.6372
  153DOPC  H15R18356   4.459   1.744  11.496 -0.6398 -0.4706  0.8765
  153DOPC  H15S18357   4.510   1.915  11.477  0.8792 -0.6782 -2.5226
  153DOPC  C21618358   4.399   1.827  11.307 -0.4830 -0.0582 -0.3343
  153DOPC  H16R18359   4.325   1.905  11.278 -1.8808 -1.3177 -0.2704
  153DOPC  H16S18360   4.347   1.733  11.279  0.5128 -0.6562 -0.2567
  153DOPC  C21718361   4.515   1.848  11.202  0.2949 -0.3186 -0.6288
  153DOPC  H17R18362   4.593   1.772  11.222 -0.1372 -0.9985 -1.4577
  153DOPC  H17S18363   4.567   1.942  11.230  1.1581 -1.2761  1.1088
  153DOPC  C21818364   4.480   1.853  11.055 -0.0087 -0.1795  0.5560
  153DOPC  H18R18365   4.568   1.827  10.993 -1.1432  1.3692 -1.8399
  153DOPC  H18S18366   4.439   1.952  11.027 -1.7552 -1.2488 -0.8721
  153DOPC  H18T18367   4.403   1.775  11.035 -0.5046 -0.0593  1.9014
  153DOPC   C3318368   4.138   2.095  12.445  0.1865  0.2509  0.1563
  153DOPC   H3X18369   4.066   2.128  12.522  0.8710 -0.3055  1.0637
  153DOPC   H3Y18370   4.147   1.985  12.462 -1.3068 -0.0910 -1.0446
  153DOPC   C3418371   4.088   2.128  12.305  0.6504 -0.3051 -0.0407
  153DOPC   H4X18372   4.170   2.102  12.235 -2.3913 -0.2146 -3.9832
  153DOPC   H4Y18373   4.081   2.239  12.298  1.1773  0.2240  4.5932
  153DOPC   C3518374   3.962   2.059  12.258  0.3643 -0.0340  0.4077
  153DOPC   H5X18375   3.938   2.098  12.156  1.6646  0.9107  0.4336
  153DOPC   H5Y18376   3.881   2.071  12.333 -0.0383 -2.4004  0.4117
  153DOPC   C3618377   3.981   1.907  12.242 -0.8747 -0.0675  0.1994
  153DOPC   H6X18378   4.074   1.884  12.186 -0.4537  0.9370  0.4791
  153DOPC   H6Y18379   3.987   1.860  12.343 -1.0662  1.6227  1.0340
  153DOPC   C3718380   3.865   1.833  12.180  0.4040 -0.4018  0.1347
  153DOPC   H7X18381   3.843   1.877  12.080  3.1473  2.7840  0.7451
  153DOPC   H7Y18382   3.895   1.728  12.163 -1.9053 -0.7238 -2.8701
  153DOPC   C3818383   3.733   1.843  12.262 -0.2581 -0.1012  0.1689
  153DOPC   H8X18384   3.692   1.946  12.254 -0.0506 -0.0169  0.1662
  153DOPC   H8Y18385   3.758   1.835  12.370  0.0338 -1.8269  0.0018
  153DOPC   C3918386   3.618   1.749  12.232  0.0973  0.4674  0.0608
  153DOPC   H9X18387   3.551   1.796  12.159  1.2447  4.2065  1.1959
  153DOPC  C31018388   3.597   1.617  12.275  0.2582 -0.1979  0.5282
  153DOPC  H10X18389   3.512   1.557  12.238  0.5255 -1.5895  2.0576
  153DOPC  C31118390   3.681   1.543  12.370 -0.6469 -0.4008  0.2081
  153DOPC  H11X18391   3.779   1.591  12.392  0.4577 -1.7601 -1.5254
  153DOPC  H11Y18392   3.704   1.448  12.319  2.8119 -0.2685  1.2997
  153DOPC  C31218393   3.620   1.520  12.503  0.3255  0.2429 -0.4416
  153DOPC  H12X18394   3.598   1.614  12.558  1.7470 -0.5500  1.6091
  153DOPC  H12Y18395   3.696   1.460  12.557 -0.4624 -0.5030 -0.1332
  153DOPC  C31318396   3.490   1.435  12.494 -0.3322 -0.1750  0.0380
  153DOPC  H13X18397   3.416   1.514  12.471  1.6621  1.5921 -0.6913
  153DOPC  H13Y18398   3.495   1.366  12.407  1.3372 -1.3418  1.0107
  153DOPC  C31418399   3.456   1.362  12.624 -0.2561  0.0962 -0.0147
  153DOPC  H14X18400   3.509   1.414  12.707  0.4122  2.0940 -1.6013
  153DOPC  H14Y18401   3.347   1.376  12.641  0.0305 -0.2262  2.3610
  153DOPC  C31518402   3.467   1.215  12.623  0.2284 -0.2019  0.1659
  153DOPC  H15X18403   3.571   1.180  12.603  0.9566  1.4721  0.8860
  153DOPC  H15Y18404   3.407   1.186  12.534  0.2849  0.9575 -0.2561
  153DOPC  C31618405   3.413   1.169  12.756  0.7631  0.2616 -0.1356
  153DOPC  H16X18406   3.484   1.205  12.834  2.3851 -1.2204 -0.8660
  153DOPC  H16Y18407   3.310   1.202  12.781  0.3840 -1.8738  1.4632
  153DOPC  C31718408   3.421   1.013  12.781  0.0560  0.1697  0.1969
  153DOPC  H17X18409   3.526   0.982  12.761  1.3042  3.0646  1.8274
  153DOPC  H17Y18410   3.396   0.995  12.888 -0.2729 -0.5045  0.0184
  153DOPC  C31818411   3.323   0.930  12.690  0.2972 -0.1234  0.4957
  153DOPC  H18X18412   3.351   0.824  12.705  2.2980  0.4498  1.2225
  153DOPC  H18Y18413   3.221   0.932  12.733  0.3727  1.7129  0.6907
  153DOPC  H18Z18414   3.335   0.960  12.584 -0.7293 -1.0717  0.0939
  154DOPC     N18415   5.292   5.049  13.246 -0.1474  0.2346  0.0297
  154DOPC   C1218416   5.357   5.126  13.134  0.3779  0.7700 -0.7230
  154DOPC  H12A18417   5.444   5.178  13.172  1.0726 -0.4198 -0.6070
  154DOPC  H12B18418   5.287   5.205  13.113  0.8329  1.9362  1.7455
  154DOPC   C1318419   5.219   5.136  13.336 -0.1678  0.2201 -0.2692
  154DOPC  H13A18420   5.137   5.179  13.282  0.9329  0.2602 -1.9801
  154DOPC  H13B18421   5.175   5.080  13.418 -1.6235 -0.4198 -1.4355
  154DOPC  H13C18422   5.284   5.215  13.370  1.3841 -1.0768 -0.0982
  154DOPC   C1418423   5.401   4.982  13.325 -0.3153  0.2317  0.0701
  154DOPC  H14A18424   5.458   5.058  13.377 -0.3325  0.1024  0.2803
  154DOPC  H14B18425   5.363   4.916  13.402  1.1906  0.2284  0.8372
  154DOPC  H14C18426   5.457   4.927  13.251 -1.2133  0.1296 -0.5540
  154DOPC   C1518427   5.206   4.944  13.192  0.4732  0.6148 -0.1398
  154DOPC  H15A18428   5.153   4.882  13.262 -1.3348  2.6061  0.3633
  154DOPC  H15B18429   5.246   4.885  13.112  1.7509  0.5619  0.5136
  154DOPC  H15C18430   5.123   4.990  13.141  0.9583  0.0206 -1.5216
  154DOPC   C1118431   5.393   5.045  13.010  0.2030  0.0310  0.4100
  154DOPC  H11A18432   5.302   5.011  12.957  1.3964  0.0123 -1.7727
  154DOPC  H11B18433   5.439   5.114  12.935 -0.6516  1.4763  1.1742
  154DOPC     P18434   5.632   4.938  13.016 -0.0694 -0.2712 -0.3616
  154DOPC   O1318435   5.695   4.823  13.078 -0.7985 -0.5211  0.2640
  154DOPC   O1418436   5.687   5.069  13.059  0.0191 -0.0767  0.6666
  154DOPC   O1218437   5.476   4.932  13.038 -0.3981 -0.0967  0.0738
  154DOPC   O1118438   5.649   4.931  12.858  0.4849 -0.2616 -0.1615
  154DOPC    C118439   5.598   4.821  12.784 -0.2504  0.6134  0.5505
  154DOPC    HA18440   5.543   4.741  12.837  0.9244 -0.7672 -0.2550
  154DOPC    HB18441   5.678   4.764  12.733 -0.6311 -0.1993  0.8458
  154DOPC    C218442   5.515   4.867  12.661  0.1359  0.1684 -0.5443
  154DOPC    HS18443   5.412   4.893  12.693 -0.4726 -2.5852 -0.0737
  154DOPC   O2118444   5.520   4.760  12.560  0.1019  0.4597  0.0417
  154DOPC   C2118445   5.434   4.651  12.578 -0.0223  0.3044  0.1423
  154DOPC   O2218446   5.359   4.639  12.673 -0.6387  0.5202 -0.2827
  154DOPC   C2218447   5.448   4.560  12.456  1.0063 -0.4061  0.0152
  154DOPC   H2R18448   5.388   4.468  12.472  0.0437  0.5205  2.0836
  154DOPC   H2S18449   5.556   4.536  12.448  0.9416 -0.4047 -0.9678
  154DOPC    C318450   5.570   4.990  12.589  0.1119 -0.0006  0.2165
  154DOPC    HX18451   5.675   4.973  12.557  0.6174  2.6791  0.2112
  154DOPC    HY18452   5.577   5.076  12.659 -0.9270 -0.6880  1.2056
  154DOPC   O3118453   5.484   5.015  12.476  0.0494 -0.0473 -0.0077
  154DOPC   C3118454   5.520   5.113  12.409 -0.1140  0.3128  0.4299
  154DOPC   O3218455   5.607   5.198  12.437 -0.4142  0.1038  0.6349
  154DOPC   C3218456   5.444   5.113  12.275 -0.0193  0.0396 -0.0813
  154DOPC   H2X18457   5.438   5.006  12.246 -2.9467  0.1786 -0.2099
  154DOPC   H2Y18458   5.339   5.144  12.293 -0.4642 -1.4183 -0.0349
  154DOPC   C2318459   5.420   4.628  12.313  0.4323  0.5143 -0.5803
  154DOPC   H3R18460   5.500   4.591  12.246  0.7427 -1.0621  0.6105
  154DOPC   H3S18461   5.435   4.738  12.315  0.5345  0.5071  0.9866
  154DOPC   C2418462   5.280   4.599  12.262 -0.0740  0.0976  0.1262
  154DOPC   H4R18463   5.213   4.627  12.346  0.7714  1.6189  0.3282
  154DOPC   H4S18464   5.276   4.492  12.233  0.0198  0.3313 -0.7717
  154DOPC   C2518465   5.237   4.684  12.140  0.2633 -0.1032  0.6932
  154DOPC   H5R18466   5.229   4.791  12.169  0.5401 -0.0885  0.7109
  154DOPC   H5S18467   5.134   4.657  12.107  1.2042 -0.0717 -2.5256
  154DOPC   C2618468   5.317   4.661  12.017 -0.3209 -0.2781  1.5285
  154DOPC   H6R18469   5.255   4.668  11.924 -0.9660 -1.6328  1.8306
  154DOPC   H6S18470   5.367   4.562  12.014 -0.0329 -0.1198  0.8339
  154DOPC   C2718471   5.429   4.771  11.997 -0.0519 -0.5319 -0.6547
  154DOPC   H7R18472   5.491   4.764  12.089  1.5374 -2.5447 -1.7883
  154DOPC   H7S18473   5.391   4.875  11.980  0.7160 -0.5156 -2.5994
  154DOPC   C2818474   5.513   4.737  11.873  0.0617  0.6660  0.7259
  154DOPC   H8R18475   5.439   4.738  11.790 -0.0108 -5.7660  0.2077
  154DOPC   H8S18476   5.546   4.631  11.885 -1.5079 -0.1528 -1.4929
  154DOPC   C2918477   5.630   4.828  11.858  0.8050 -0.1452  0.0608
  154DOPC   H9R18478   5.625   4.900  11.774  3.3388 -0.4980 -0.4905
  154DOPC  C21018479   5.737   4.831  11.936  0.5360 -0.1546 -0.2917
  154DOPC  H10R18480   5.807   4.914  11.920  0.8790 -0.2691  0.5626
  154DOPC  C21118481   5.777   4.757  12.061  0.2335 -0.4332 -1.1804
  154DOPC  H11R18482   5.828   4.665  12.027  3.3002  0.6796 -0.0072
  154DOPC  H11S18483   5.693   4.720  12.123  0.0686  0.0527 -1.1094
  154DOPC  C21218484   5.872   4.841  12.158  0.3829  0.3683 -0.4142
  154DOPC  H12R18485   5.976   4.850  12.121 -0.4137 -0.5644 -3.0786
  154DOPC  H12S18486   5.866   4.778  12.250  0.1286 -2.7880 -2.4539
  154DOPC  C21318487   5.825   4.982  12.203 -0.0595  0.0044  0.7310
  154DOPC  H13R18488   5.715   4.974  12.212 -0.2627  2.3736  0.8124
  154DOPC  H13S18489   5.850   5.054  12.123  0.4473  0.4414  1.2779
  154DOPC  C21418490   5.879   5.026  12.337 -0.5474  0.9452  0.0650
  154DOPC  H14R18491   5.847   4.960  12.420 -1.5279  2.5694  1.0230
  154DOPC  H14S18492   5.840   5.123  12.375 -0.6368  0.1062  2.2338
  154DOPC  C21518493   6.035   5.034  12.337 -0.7768 -0.8755  0.2187
  154DOPC  H15R18494   6.062   5.112  12.263 -0.2847 -1.3752 -0.1462
  154DOPC  H15S18495   6.093   4.944  12.306  0.0453  0.3053 -1.8554
  154DOPC  C21618496   6.089   5.083  12.468 -0.5410 -0.1962  0.0527
  154DOPC  H16R18497   6.046   5.013  12.543  0.1838 -0.5802  0.1219
  154DOPC  H16S18498   6.048   5.185  12.481 -0.7870 -0.4396  1.3791
  154DOPC  C21718499   6.241   5.072  12.474 -0.7177 -0.7928  0.1921
  154DOPC  H17R18500   6.279   5.165  12.427  1.4938 -1.5523  0.3668
  154DOPC  H17S18501   6.281   4.982  12.421 -0.4312 -0.3163 -0.4135
  154DOPC  C21818502   6.294   5.076  12.618 -0.1651 -0.3286  0.0670
  154DOPC  H18R18503   6.288   4.979  12.673  0.2661 -0.7889 -0.6746
  154DOPC  H18S18504   6.234   5.145  12.680  0.1688  1.9365 -1.9951
  154DOPC  H18T18505   6.399   5.113  12.618 -1.1486  2.7589  0.9371
  154DOPC   C3318506   5.513   5.195  12.159  0.9183 -0.1995 -1.1207
  154DOPC   H3X18507   5.624   5.199  12.164  0.8276  2.0900  1.3592
  154DOPC   H3Y18508   5.480   5.300  12.178 -2.5666 -1.3322 -0.1101
  154DOPC   C3418509   5.468   5.144  12.026 -0.1637  0.3037 -0.1440
  154DOPC   H4X18510   5.488   5.035  12.027 -4.1136 -0.5861  1.7722
  154DOPC   H4Y18511   5.520   5.195  11.942  0.7219  2.5904  1.6789
  154DOPC   C3518512   5.316   5.147  12.001  0.4381 -0.2473 -0.2473
  154DOPC   H5X18513   5.285   5.250  12.030  0.0780 -0.1087 -1.0989
  154DOPC   H5Y18514   5.262   5.062  12.048  2.9882 -0.6285  2.2729
  154DOPC   C3618515   5.280   5.138  11.852  0.1074  0.3750  0.4194
  154DOPC   H6X18516   5.331   5.223  11.801  1.6588  0.7811  2.5407
  154DOPC   H6Y18517   5.315   5.044  11.805 -2.4552 -1.0240  1.0967
  154DOPC   C3718518   5.131   5.147  11.833 -0.3277  0.2951 -0.0851
  154DOPC   H7X18519   5.096   5.250  11.857  0.4269  0.8606 -1.3096
  154DOPC   H7Y18520   5.099   5.121  11.730 -0.6189 -2.4013  0.6161
  154DOPC   C3818521   5.050   5.047  11.919 -0.0088  0.4371 -0.7205
  154DOPC   H8X18522   4.940   5.061  11.912 -0.1116  1.0676  1.4597
  154DOPC   H8Y18523   5.067   5.070  12.026  0.9600 -0.0753 -0.7558
  154DOPC   C3918524   5.089   4.905  11.887 -0.0265 -0.1908 -0.7421
  154DOPC   H9X18525   5.193   4.898  11.853  0.6680  2.3652  0.6241
  154DOPC  C31018526   5.010   4.795  11.881  0.0525  0.1581  0.7671
  154DOPC  H10X18527   5.057   4.700  11.851 -1.2584 -0.6837  1.2913
  154DOPC  C31118528   4.864   4.775  11.900  0.3085 -0.8472  0.2966
  154DOPC  H11X18529   4.824   4.790  11.797 -1.2841 -2.1837  0.6834
  154DOPC  H11Y18530   4.830   4.858  11.964  2.6015  0.7016 -0.3613
  154DOPC  C31218531   4.815   4.637  11.943 -0.0969 -0.5705  0.7609
  154DOPC  H12X18532   4.708   4.644  11.972 -0.2777 -0.8363  0.1765
  154DOPC  H12Y18533   4.868   4.604  12.035  1.5260 -1.8291 -0.5610
  154DOPC  C31318534   4.830   4.524  11.839 -0.4732 -0.5404 -0.3222
  154DOPC  H13X18535   4.774   4.534  11.743  1.5355 -0.3797 -1.5384
  154DOPC  H13Y18536   4.937   4.526  11.809 -0.2174  3.4240  0.3912
  154DOPC  C31418537   4.788   4.381  11.887 -0.3264 -0.0923 -0.4564
  154DOPC  H14X18538   4.835   4.356  11.985  1.2306 -1.9151 -1.5810
  154DOPC  H14Y18539   4.680   4.378  11.913 -0.2778 -0.5972 -0.2999
  154DOPC  C31518540   4.811   4.281  11.774 -0.1336 -0.3618  0.0896
  154DOPC  H15X18541   4.921   4.274  11.767 -0.2054  0.0346 -2.6521
  154DOPC  H15Y18542   4.771   4.318  11.677 -0.2039 -1.4737 -0.3239
  154DOPC  C31618543   4.745   4.148  11.801  0.6739  0.2426 -0.5484
  154DOPC  H16X18544   4.799   4.105  11.888  0.7536  0.0439 -0.6953
  154DOPC  H16Y18545   4.636   4.167  11.812  0.4697 -1.7641  1.7326
  154DOPC  C31718546   4.761   4.035  11.699  0.4960  0.2389  0.2008
  154DOPC  H17X18547   4.726   4.070  11.599  1.3812  1.6539  0.3498
  154DOPC  H17Y18548   4.868   4.009  11.685  1.0301  1.4774  1.7388
  154DOPC  C31818549   4.695   3.899  11.721 -0.4916 -0.3454 -0.0252
  154DOPC  H18X18550   4.585   3.906  11.737 -0.3718  0.9574  0.2894
  154DOPC  H18Y18551   4.723   3.835  11.635  0.8438  0.7924 -0.4720
  154DOPC  H18Z18552   4.732   3.853  11.815  2.9751  1.2950 -0.4491
  155DOPC     N18553   1.103   3.537  13.161 -0.3667  0.0561  0.3320
  155DOPC   C1218554   1.166   3.645  13.068 -0.1451 -0.1407 -0.1634
  155DOPC  H12A18555   1.268   3.614  13.052  0.1543 -0.1966  1.6203
  155DOPC  H12B18556   1.177   3.730  13.133  1.6786 -1.0165  0.7607
  155DOPC   C1318557   0.955   3.546  13.162 -0.2185  0.0998  0.0974
  155DOPC  H13A18558   0.926   3.535  13.058  3.5612  1.2994 -1.2556
  155DOPC  H13B18559   0.910   3.469  13.223  0.3428  0.6425  1.2152
  155DOPC  H13C18560   0.925   3.642  13.200 -0.0073 -0.3926  1.5674
  155DOPC   C1418561   1.137   3.552  13.306 -0.1954 -0.6012 -0.6093
  155DOPC  H14A18562   1.061   3.496  13.360  0.4341  0.2788  1.2740
  155DOPC  H14B18563   1.239   3.526  13.330 -0.0004  0.1222 -0.6530
  155DOPC  H14C18564   1.123   3.654  13.339 -0.7274 -0.5819 -0.8856
  155DOPC   C1518565   1.151   3.406  13.109 -0.0761  0.2980  0.0536
  155DOPC  H15A18566   1.099   3.393  13.015  0.8651  2.2580 -0.7986
  155DOPC  H15B18567   1.124   3.321  13.170  0.4133 -0.5194 -0.8325
  155DOPC  H15C18568   1.258   3.394  13.093  0.3070 -0.1129  2.5737
  155DOPC   C1118569   1.108   3.675  12.928 -0.2021  0.2181 -0.4645
  155DOPC  H11A18570   1.005   3.711  12.949 -0.2478 -0.1614 -0.0003
  155DOPC  H11B18571   1.164   3.755  12.877 -1.4488  0.8184 -0.9376
  155DOPC     P18572   1.229   3.491  12.787  0.4199 -0.4744  0.1486
  155DOPC   O1318573   1.239   3.339  12.794  0.4476 -0.3911 -0.0522
  155DOPC   O1418574   1.345   3.565  12.842  0.2383 -0.5410 -0.3445
  155DOPC   O1218575   1.097   3.553  12.853  0.5052  0.1994  0.5099
  155DOPC   O1118576   1.216   3.520  12.627 -0.1719  0.2426 -0.3047
  155DOPC    C118577   1.202   3.649  12.576 -0.2610  0.4198  0.4052
  155DOPC    HA18578   1.270   3.649  12.489 -2.4021  0.1205 -1.3647
  155DOPC    HB18579   1.224   3.734  12.645  0.7355 -0.1711  0.8331
  155DOPC    C218580   1.068   3.665  12.511 -0.3716 -0.3390 -0.1540
  155DOPC    HS18581   0.985   3.644  12.582  0.5173  0.4881  1.1796
  155DOPC   O2118582   1.066   3.576  12.397 -0.1874 -0.3004  0.2681
  155DOPC   C2118583   0.952   3.518  12.381  0.6140  0.2299  0.5271
  155DOPC   O2218584   0.841   3.549  12.422 -0.2252 -0.5256 -0.1456
  155DOPC   C2218585   0.976   3.414  12.270  0.0532 -0.0305 -0.1904
  155DOPC   H2R18586   0.879   3.361  12.265  0.1030 -0.0863 -0.6833
  155DOPC   H2S18587   1.051   3.337  12.299 -0.2896 -0.3787 -0.2263
  155DOPC    C318588   1.048   3.813  12.467 -0.7126 -0.3006  0.0416
  155DOPC    HX18589   1.138   3.847  12.412  1.1836 -1.7872  2.0755
  155DOPC    HY18590   1.036   3.881  12.554  1.2683  0.1242  0.0114
  155DOPC   O3118591   0.929   3.827  12.384  0.7249  0.4920  0.3152
  155DOPC   C3118592   0.817   3.857  12.444 -0.1379  0.2084  0.5861
  155DOPC   O3218593   0.800   3.874  12.561  0.7630  0.1796  0.1928
  155DOPC   C3218594   0.710   3.865  12.333 -1.1838  1.2749  0.5154
  155DOPC   H2X18595   0.741   3.934  12.252 -1.7177  0.8338 -0.0739
  155DOPC   H2Y18596   0.713   3.765  12.284  0.9764 -0.1214  3.2171
  155DOPC   C2318597   0.983   3.472  12.132 -0.3107  0.8877  0.3734
  155DOPC   H3R18598   1.016   3.392  12.062 -1.7655  0.0554  0.6060
  155DOPC   H3S18599   1.059   3.553  12.120 -0.2174  0.6377 -0.8461
  155DOPC   C2418600   0.849   3.527  12.072  0.5056  0.1570  0.2584
  155DOPC   H4R18601   0.809   3.595  12.150 -0.1935  0.0367  0.0168
  155DOPC   H4S18602   0.791   3.432  12.068  1.2956 -0.4066  1.6731
  155DOPC   C2518603   0.870   3.600  11.940  0.1023  0.2766  0.1499
  155DOPC   H5R18604   0.896   3.532  11.856 -3.6287  0.0443 -0.9814
  155DOPC   H5S18605   0.960   3.664  11.946 -0.1098  0.8012 -1.7068
  155DOPC   C2618606   0.746   3.685  11.896 -0.2146 -0.0298 -0.3612
  155DOPC   H6R18607   0.759   3.706  11.788 -3.1656 -3.1995 -1.5141
  155DOPC   H6S18608   0.750   3.775  11.961  1.5697 -0.5780  0.3420
  155DOPC   C2718609   0.609   3.619  11.922  0.5609 -0.2847 -0.7233
  155DOPC   H7R18610   0.592   3.631  12.031  0.7333 -1.9222 -0.4860
  155DOPC   H7S18611   0.620   3.509  11.911  2.7685 -0.1397 -0.3303
  155DOPC   C2818612   0.495   3.680  11.845 -0.3807 -0.2647  0.2239
  155DOPC   H8R18613   0.403   3.630  11.881 -0.9293  0.0397 -0.7092
  155DOPC   H8S18614   0.510   3.656  11.738  1.0462 -1.2286  0.6081
  155DOPC   C2918615   0.468   3.823  11.882 -0.6230 -0.4953  0.0548
  155DOPC   H9R18616   0.549   3.896  11.868 -0.9852  0.0894  0.9300
  155DOPC  C21018617   0.359   3.887  11.933 -0.3356 -0.4247 -0.3075
  155DOPC  H10R18618   0.369   3.997  11.934  0.5497 -0.3969 -2.9801
  155DOPC  C21118619   0.229   3.835  11.974  0.5431 -1.1276  0.4667
  155DOPC  H11R18620   0.212   3.867  12.079  1.5606  0.7150  0.1198
  155DOPC  H11S18621   0.226   3.724  11.967  1.3539 -1.1701  0.5955
  155DOPC  C21218622   0.117   3.890  11.880  0.6570 -0.1571 -0.9307
  155DOPC  H12R18623   0.030   3.824  11.900 -0.1774  1.0227 -0.5459
  155DOPC  H12S18624   0.154   3.881  11.775  2.7536  1.0265 -0.3520
  155DOPC  C21318625   0.079   4.038  11.918  0.2991 -0.7363 -1.0733
  155DOPC  H13R18626   0.170   4.102  11.919  1.8370 -2.4258  4.5342
  155DOPC  H13S18627   0.058   4.042  12.027  0.2638 -3.5794 -0.8981
  155DOPC  C21418628  -0.025   4.109  11.840 -0.3497  0.4049 -0.2707
  155DOPC  H14R18629   0.004   4.117  11.733  0.3706  0.4760 -0.0759
  155DOPC  H14S18630  -0.034   4.205  11.893  0.6132 -0.1703  0.9800
  155DOPC  C21518631  -0.158   4.032  11.840 -0.0751  0.8447  0.0206
  155DOPC  H15R18632  -0.143   3.923  11.824 -0.9436  0.6970  0.1173
  155DOPC  H15S18633  -0.221   4.071  11.757 -2.4752 -1.8935  0.4084
  155DOPC  C21618634  -0.236   4.044  11.971  0.1633  0.6977 -0.2836
  155DOPC  H16R18635  -0.263   4.147  12.002  0.4071  0.5162  0.5781
  155DOPC  H16S18636  -0.174   4.004  12.055  2.0076  1.1374 -1.3615
  155DOPC  C21718637  -0.351   3.942  11.967 -0.1431  0.0571 -0.0457
  155DOPC  H17R18638  -0.320   3.837  11.944 -0.0012  0.3313 -1.1544
  155DOPC  H17S18639  -0.412   3.974  11.880  0.9720 -0.0871 -0.9116
  155DOPC  C21818640  -0.440   3.932  12.090  0.2544  0.0392  0.1743
  155DOPC  H18R18641  -0.491   4.030  12.101 -1.2629 -0.7557  0.4887
  155DOPC  H18S18642  -0.395   3.906  12.188  1.0833 -0.1539 -0.2444
  155DOPC  H18T18643  -0.520   3.855  12.077 -0.7477  0.6687  2.2674
  155DOPC   C3318644   0.570   3.916  12.384 -0.2187  0.2608  0.4524
  155DOPC   H3X18645   0.571   4.026  12.393 -1.4683  0.3033  0.2677
  155DOPC   H3Y18646   0.539   3.875  12.483  1.1040  0.0034  0.7854
  155DOPC   C3418647   0.456   3.893  12.290 -0.6182 -0.5832 -0.4870
  155DOPC   H4X18648   0.426   3.786  12.298 -0.3772 -0.5458  1.1024
  155DOPC   H4Y18649   0.482   3.927  12.187 -1.1448  1.0029 -0.1207
  155DOPC   C3518650   0.333   3.974  12.330  0.4691  0.4765  0.2364
  155DOPC   H5X18651   0.317   3.999  12.437 -0.5576  0.5705  0.0742
  155DOPC   H5Y18652   0.242   3.915  12.306 -0.3541  1.0856  1.7389
  155DOPC   C3618653   0.341   4.109  12.254 -0.0744  0.2894 -0.1465
  155DOPC   H6X18654   0.428   4.159  12.301 -1.4124  0.2924  2.4835
  155DOPC   H6Y18655   0.360   4.085  12.147  4.0668 -2.8848  1.0664
  155DOPC   C3718656   0.222   4.207  12.276  1.0629 -0.5978  0.1845
  155DOPC   H7X18657   0.133   4.163  12.228  0.0767  2.4106 -0.9468
  155DOPC   H7Y18658   0.213   4.218  12.386 -1.8259 -2.4610  0.2270
  155DOPC   C3818659   0.243   4.345  12.209 -0.4133 -0.0526 -0.2392
  155DOPC   H8X18660   0.339   4.390  12.243 -0.0668  0.2075 -1.4809
  155DOPC   H8Y18661   0.166   4.410  12.256 -0.6544 -1.2566  1.0907
  155DOPC   C3918662   0.244   4.353  12.057  0.3213  0.2517  0.0439
  155DOPC   H9X18663   0.314   4.282  12.010  0.3497 -0.2700  0.8581
  155DOPC  C31018664   0.159   4.432  11.983 -1.1960  0.4326  0.3577
  155DOPC  H10X18665   0.167   4.445  11.874 -1.7843  1.3268  0.4101
  155DOPC  C31118666   0.058   4.522  12.034  0.6114 -0.1145  0.2807
  155DOPC  H11X18667   0.097   4.596  12.107 -1.3112  1.2972 -0.0390
  155DOPC  H11Y18668  -0.020   4.463  12.087  0.0065 -0.7894 -1.2738
  155DOPC  C31218669  -0.024   4.599  11.923 -0.4325 -0.4810  0.6340
  155DOPC  H12X18670  -0.125   4.628  11.958 -0.5280  0.2452 -0.2077
  155DOPC  H12Y18671  -0.043   4.523  11.845  2.9644 -0.9755  0.1205
  155DOPC  C31318672   0.054   4.717  11.867  0.3916  0.6812  0.3313
  155DOPC  H13X18673   0.061   4.804  11.935 -1.2118  2.0956 -1.2177
  155DOPC  H13Y18674   0.158   4.685  11.843 -0.3913 -1.4599 -0.4403
  155DOPC  C31418675  -0.007   4.770  11.734 -0.2028 -0.0713 -0.2545
  155DOPC  H14X18676  -0.035   4.683  11.671 -0.5523  0.0138 -0.2192
  155DOPC  H14Y18677  -0.097   4.831  11.758  0.3146  1.0683 -1.0755
  155DOPC  C31518678   0.082   4.857  11.645 -0.5391 -0.3218  1.0168
  155DOPC  H15X18679   0.156   4.801  11.585 -0.9464 -0.0682  0.2611
  155DOPC  H15Y18680   0.127   4.942  11.701 -2.4482  0.6790  1.1400
  155DOPC  C31618681  -0.005   4.930  11.540  1.0255 -0.2478  0.1494
  155DOPC  H16X18682  -0.055   4.855  11.475  1.0317  0.1980 -0.3816
  155DOPC  H16Y18683  -0.084   4.984  11.595 -0.6573 -2.2325 -0.2113
  155DOPC  C31718684   0.064   5.039  11.452 -0.1791 -0.5253  0.4452
  155DOPC  H17X18685   0.150   4.997  11.395 -0.5670 -0.9000  0.1245
  155DOPC  H17Y18686  -0.005   5.077  11.374  1.2552  0.1817 -0.5206
  155DOPC  C31818687   0.103   5.165  11.543 -0.1223  0.7833 -0.0074
  155DOPC  H18X18688   0.196   5.157  11.602  2.1992  2.4927 -3.1073
  155DOPC  H18Y18689   0.132   5.236  11.463  0.8576 -0.6842 -1.0124
  155DOPC  H18Z18690   0.026   5.195  11.618 -0.8113 -2.0553  0.5608
  156DOPC     N18691   5.548   7.582  13.435  0.1233  0.6203  0.2137
  156DOPC   C1218692   5.415   7.569  13.359 -0.4184 -0.6306 -0.0015
  156DOPC  H12A18693   5.342   7.607  13.429  0.9296 -0.3919  1.3232
  156DOPC  H12B18694   5.389   7.469  13.326 -1.3028  0.0160 -1.3713
  156DOPC   C1318695   5.547   7.490  13.554 -0.8269  0.3699  0.4286
  156DOPC  H13A18696   5.644   7.494  13.601 -0.3148 -0.7686 -0.4720
  156DOPC  H13B18697   5.474   7.508  13.631 -0.5099 -1.0004  1.0711
  156DOPC  H13C18698   5.539   7.386  13.524  1.1529  0.6932 -1.4950
  156DOPC   C1418699   5.580   7.725  13.479  0.2446  0.2980  0.3597
  156DOPC  H14A18700   5.664   7.728  13.547 -0.3280 -2.9189  1.3875
  156DOPC  H14B18701   5.615   7.779  13.392  0.8168 -1.3132 -0.4464
  156DOPC  H14C18702   5.491   7.772  13.517 -2.0492 -1.6163 -2.2544
  156DOPC   C1518703   5.660   7.536  13.342  0.3060  0.5808  0.7219
  156DOPC  H15A18704   5.758   7.550  13.386 -0.1615 -0.0163  2.0033
  156DOPC  H15B18705   5.655   7.601  13.256 -1.2127 -0.0325  0.3154
  156DOPC  H15C18706   5.640   7.433  13.315 -1.4883  0.5790  1.9233
  156DOPC   C1118707   5.398   7.652  13.226  0.1207 -0.2607 -0.3822
  156DOPC  H11A18708   5.463   7.587  13.164  0.8683 -2.4283  2.4784
  156DOPC  H11B18709   5.300   7.641  13.174  0.5162 -1.3298 -0.9386
  156DOPC     P18710   5.540   7.849  13.130 -0.1960  0.4391 -0.2061
  156DOPC   O1318711   5.657   7.759  13.127 -0.0258  0.6528 -0.0829
  156DOPC   O1418712   5.570   7.991  13.150  0.8281  0.1285  0.0186
  156DOPC   O1218713   5.436   7.793  13.237 -0.3780 -0.5440  0.3787
  156DOPC   O1118714   5.464   7.824  12.997  0.2938 -0.2604 -0.4647
  156DOPC    C118715   5.332   7.878  12.972  0.0795  0.2840  0.4722
  156DOPC    HA18716   5.296   7.945  13.052  1.8592  2.1092 -0.1709
  156DOPC    HB18717   5.268   7.790  12.950  0.3208  0.3529 -0.5745
  156DOPC    C218718   5.326   7.957  12.833  1.1018 -0.3368  0.5540
  156DOPC    HS18719   5.231   7.923  12.786  0.2816  2.4500  0.0188
  156DOPC   O2118720   5.435   7.918  12.747  0.3495  0.1720 -0.0550
  156DOPC   C2118721   5.433   7.791  12.696  0.7822  0.2562  0.0873
  156DOPC   O2218722   5.338   7.715  12.704 -0.2194 -0.0546 -0.1668
  156DOPC   C2218723   5.557   7.769  12.612 -0.1743  0.1699 -0.0907
  156DOPC   H2R18724   5.626   7.700  12.663 -0.4458  0.7438  1.0888
  156DOPC   H2S18725   5.594   7.874  12.606  1.2726 -0.4087 -2.2061
  156DOPC    C318726   5.325   8.112  12.851  0.3802  0.2758 -0.5320
  156DOPC    HX18727   5.424   8.137  12.893  0.2416 -0.9053  0.5841
  156DOPC    HY18728   5.247   8.138  12.927  0.4163 -2.2381  0.4441
  156DOPC   O3118729   5.310   8.185  12.733 -0.3991  1.0869  0.4766
  156DOPC   C3118730   5.178   8.185  12.690 -0.7669 -0.0834  0.2245
  156DOPC   O3218731   5.090   8.124  12.743  0.2176 -0.1797 -0.5268
  156DOPC   C3218732   5.179   8.263  12.557  0.0190 -0.3008  0.0185
  156DOPC   H2X18733   5.181   8.366  12.598  1.2772 -0.1248 -0.4200
  156DOPC   H2Y18734   5.276   8.260  12.503  0.8091  1.0988  1.2838
  156DOPC   C2318735   5.524   7.735  12.464  0.1413  0.2473 -0.7976
  156DOPC   H3R18736   5.600   7.762  12.388  1.0005 -1.7035 -0.7025
  156DOPC   H3S18737   5.426   7.781  12.440 -0.1603  0.4885  0.8206
  156DOPC   C2418738   5.510   7.589  12.441 -0.1259  0.1750  0.2185
  156DOPC   H4R18739   5.432   7.551  12.511 -1.0587  1.5529 -0.0410
  156DOPC   H4S18740   5.598   7.533  12.479 -0.9911 -2.0148 -0.8441
  156DOPC   C2518741   5.484   7.536  12.297  0.1674 -0.1743 -0.2796
  156DOPC   H5R18742   5.568   7.553  12.227 -0.8486  3.0845 -0.8839
  156DOPC   H5S18743   5.398   7.594  12.256 -0.1847 -0.3496  0.1930
  156DOPC   C2618744   5.452   7.393  12.278  0.2448 -0.1160  0.9942
  156DOPC   H6R18745   5.385   7.351  12.355  0.3078 -2.7923 -0.2722
  156DOPC   H6S18746   5.553   7.346  12.286  0.1862 -0.4036  0.1703
  156DOPC   C2718747   5.401   7.359  12.136 -0.0264  0.7157 -0.1635
  156DOPC   H7R18748   5.460   7.411  12.057 -0.2327  0.0847 -0.7374
  156DOPC   H7S18749   5.298   7.399  12.131  0.3082  2.2999  2.7878
  156DOPC   C2818750   5.403   7.215  12.091  0.3299  0.1741 -0.0956
  156DOPC   H8R18751   5.353   7.157  12.172  2.2876 -0.0781  1.0117
  156DOPC   H8S18752   5.507   7.176  12.094 -0.4437 -2.0934 -0.3554
  156DOPC   C2918753   5.338   7.189  11.958 -0.1133 -0.4444 -0.2785
  156DOPC   H9R18754   5.305   7.279  11.904 -0.9714  0.5946  1.8661
  156DOPC  C21018755   5.363   7.079  11.883  0.5356 -0.1525  0.4929
  156DOPC  H10R18756   5.314   7.064  11.786  1.8125  0.5028 -0.2791
  156DOPC  C21118757   5.427   6.964  11.948  0.4866 -0.0654  0.0147
  156DOPC  H11R18758   5.356   6.879  11.935 -0.1435  0.4471  0.0858
  156DOPC  H11S18759   5.453   6.964  12.056  0.7975 -0.0219 -0.0594
  156DOPC  C21218760   5.552   6.911  11.875  0.6575  0.3092  0.3881
  156DOPC  H12R18761   5.627   6.992  11.877  2.3432 -1.1962  1.4845
  156DOPC  H12S18762   5.544   6.896  11.765 -2.7164 -1.5329  0.7422
  156DOPC  C21318763   5.635   6.791  11.941  0.4706 -0.2626  0.7475
  156DOPC  H13R18764   5.665   6.832  12.040  1.0422 -2.7664  1.6843
  156DOPC  H13S18765   5.729   6.775  11.884 -0.2194 -0.1269 -0.4810
  156DOPC  C21418766   5.557   6.656  11.954 -0.2100 -0.7260 -0.1268
  156DOPC  H14R18767   5.465   6.686  12.009  1.6703  0.4384  2.6340
  156DOPC  H14S18768   5.617   6.585  12.014 -0.8320 -0.9758  0.2165
  156DOPC  C21518769   5.526   6.581  11.821 -0.7895 -0.3459  0.8558
  156DOPC  H15R18770   5.442   6.630  11.767 -0.2593  0.5088  0.7866
  156DOPC  H15S18771   5.509   6.474  11.841 -1.1184  0.0685  3.0275
  156DOPC  C21618772   5.647   6.578  11.722 -0.7306  0.0311 -0.1364
  156DOPC  H16R18773   5.739   6.535  11.766 -1.7938 -2.7474 -0.4463
  156DOPC  H16S18774   5.669   6.680  11.684  2.6713  0.0444  1.4908
  156DOPC  C21718775   5.628   6.481  11.597  0.4071 -0.2781  0.2543
  156DOPC  H17R18776   5.614   6.380  11.642 -1.7211 -0.5879 -0.9484
  156DOPC  H17S18777   5.717   6.479  11.531 -1.1614 -0.8007 -1.9661
  156DOPC  C21818778   5.500   6.507  11.505 -0.1094  0.1188 -0.4097
  156DOPC  H18R18779   5.408   6.487  11.564  0.0860  1.9453  0.6137
  156DOPC  H18S18780   5.504   6.442  11.416  1.5431  0.9627 -1.0095
  156DOPC  H18T18781   5.495   6.613  11.472  1.0998 -0.2495 -1.8614
  156DOPC   C3318782   5.070   8.232  12.459 -0.3564  0.9829 -0.1965
  156DOPC   H3X18783   4.976   8.283  12.488 -1.3039 -0.8743  0.1574
  156DOPC   H3Y18784   5.046   8.124  12.455 -2.1158  1.3741 -1.0643
  156DOPC   C3418785   5.111   8.283  12.319  0.2852 -0.1871 -0.2202
  156DOPC   H4X18786   5.183   8.217  12.266  0.6860  0.0687 -0.0023
  156DOPC   H4Y18787   5.142   8.389  12.328  1.7162 -0.5876 -0.2095
  156DOPC   C3518788   4.983   8.285  12.227 -0.3210 -0.5116 -0.3406
  156DOPC   H5X18789   4.926   8.378  12.249  0.8939 -0.3823  2.7659
  156DOPC   H5Y18790   4.909   8.204  12.245 -1.5174  1.1278  2.9440
  156DOPC   C3618791   5.031   8.293  12.079  0.2319 -0.0183 -1.2990
  156DOPC   H6X18792   5.091   8.200  12.067 -1.8859 -1.8738  1.5409
  156DOPC   H6Y18793   4.942   8.292  12.012 -0.3751  1.2682 -0.5572
  156DOPC   C3718794   5.120   8.411  12.051 -0.4629 -0.7804  0.3230
  156DOPC   H7X18795   5.064   8.507  12.059  2.2432  1.0320 -0.7477
  156DOPC   H7Y18796   5.202   8.425  12.124 -0.0593 -0.9085 -0.0992
  156DOPC   C3818797   5.185   8.423  11.907  0.8505  1.1057 -0.4261
  156DOPC   H8X18798   5.100   8.428  11.835 -0.4223 -1.8119  0.6948
  156DOPC   H8Y18799   5.228   8.322  11.888 -0.5407  0.6645 -1.4423
  156DOPC   C3918800   5.287   8.531  11.882 -0.2711  0.3326 -0.0025
  156DOPC   H9X18801   5.248   8.632  11.904 -0.3105  0.7033 -1.6627
  156DOPC  C31018802   5.399   8.516  11.799  0.4271 -1.0135 -0.7573
  156DOPC  H10X18803   5.459   8.608  11.788 -0.2235  0.0436  3.1143
  156DOPC  C31118804   5.451   8.391  11.734 -0.5315 -0.6261 -0.1659
  156DOPC  H11X18805   5.465   8.408  11.626  0.8137  0.1944  0.1225
  156DOPC  H11Y18806   5.382   8.304  11.741 -0.6248 -0.4622  1.4588
  156DOPC  C31218807   5.590   8.335  11.788 -0.3017  0.1505 -0.6781
  156DOPC  H12X18808   5.567   8.290  11.887  1.1134 -2.3559 -1.4192
  156DOPC  H12Y18809   5.653   8.422  11.816 -0.9283  0.4375 -0.1192
  156DOPC  C31318810   5.643   8.230  11.694  0.6008  0.5997 -0.1414
  156DOPC  H13X18811   5.731   8.174  11.735  0.0858  0.3487  0.6529
  156DOPC  H13Y18812   5.559   8.165  11.663  0.0749  2.2021 -2.3173
  156DOPC  C31418813   5.704   8.286  11.573  0.2730  0.6897 -0.2440
  156DOPC  H14X18814   5.636   8.354  11.519 -1.6709  1.3568  2.7710
  156DOPC  H14Y18815   5.786   8.358  11.593 -0.9040  1.7002  1.1841
  156DOPC  C31518816   5.751   8.177  11.483 -0.2345  0.0836  0.6166
  156DOPC  H15X18817   5.671   8.101  11.472 -1.0622  0.6681  2.3011
  156DOPC  H15Y18818   5.841   8.120  11.514  1.0039  1.1469 -0.8671
  156DOPC  C31618819   5.790   8.222  11.339 -0.0901  0.0804 -0.1856
  156DOPC  H16X18820   5.861   8.307  11.336 -2.1236  1.8187 -2.1726
  156DOPC  H16Y18821   5.834   8.130  11.295  1.0456  1.0703 -1.1720
  156DOPC  C31718822   5.672   8.251  11.244 -0.0624  0.2413  0.6582
  156DOPC  H17X18823   5.633   8.154  11.207 -0.5396  0.8549 -0.5046
  156DOPC  H17Y18824   5.592   8.315  11.286 -1.7276 -1.6956  0.5719
  156DOPC  C31818825   5.720   8.325  11.124 -0.0322  0.1157 -0.3316
  156DOPC  H18X18826   5.792   8.264  11.066  0.8655 -0.6502  1.5160
  156DOPC  H18Y18827   5.636   8.337  11.052  1.4019  0.1491 -2.0589
  156DOPC  H18Z18828   5.763   8.425  11.145  1.2930 -0.4346 -0.3175
  157DOPC     N18829   3.599   4.632  12.875 -0.1975 -0.1008 -0.0616
  157DOPC   C1218830   3.709   4.586  12.777 -0.3438 -0.0647 -0.7433
  157DOPC  H12A18831   3.775   4.526  12.837 -0.3098  2.2227  1.7188
  157DOPC  H12B18832   3.773   4.671  12.759  0.9958 -0.8754  0.0261
  157DOPC   C1318833   3.679   4.688  12.993  0.2431 -0.2560 -0.0968
  157DOPC  H13A18834   3.617   4.734  13.069 -2.9703 -2.4332 -1.1779
  157DOPC  H13B18835   3.738   4.610  13.039  0.8057  0.2757  0.0898
  157DOPC  H13C18836   3.739   4.767  12.952  0.3281  1.3710  2.8536
  157DOPC   C1418837   3.520   4.514  12.929 -0.3114  0.5162 -0.8931
  157DOPC  H14A18838   3.579   4.435  12.973 -0.8738  0.8744  0.5469
  157DOPC  H14B18839   3.442   4.555  12.991 -1.5393 -1.4370 -1.0478
  157DOPC  H14C18840   3.471   4.464  12.846 -0.9204  0.9418 -0.7932
  157DOPC   C1518841   3.503   4.731  12.816 -0.1138  0.3269 -0.0560
  157DOPC  H15A18842   3.454   4.698  12.725  0.1298 -0.5462  0.1193
  157DOPC  H15B18843   3.554   4.826  12.812 -0.6797  0.6379  0.0872
  157DOPC  H15C18844   3.425   4.733  12.890  1.0748  0.2137  1.2329
  157DOPC   C1118845   3.665   4.515  12.652  0.0547 -0.4535 -0.1388
  157DOPC  H11A18846   3.593   4.575  12.594  3.5414  1.3168 -3.0131
  157DOPC  H11B18847   3.750   4.510  12.581 -0.0193  0.5126 -0.3083
  157DOPC     P18848   3.712   4.266  12.683  0.1843 -0.0572 -0.1166
  157DOPC   O1318849   3.630   4.144  12.694 -0.2680  0.5485 -0.0696
  157DOPC   O1418850   3.802   4.288  12.799  0.0339  0.1916  0.2322
  157DOPC   O1218851   3.612   4.386  12.677 -0.2187 -0.4052  0.4111
  157DOPC   O1118852   3.777   4.273  12.546 -0.0066 -0.1182 -0.1009
  157DOPC    C118853   3.711   4.269  12.416  0.6358  0.6060  0.7911
  157DOPC    HA18854   3.780   4.315  12.342 -1.0333  0.2132 -1.0805
  157DOPC    HB18855   3.613   4.322  12.424 -0.9865 -2.2361  0.9401
  157DOPC    C218856   3.679   4.121  12.375  0.1550  0.0997 -0.2413
  157DOPC    HS18857   3.629   4.074  12.462  0.2733  1.0968  0.3782
  157DOPC   O2118858   3.803   4.064  12.346  0.0487  0.3657  0.7605
  157DOPC   C2118859   3.825   3.948  12.401 -0.3978 -0.4220 -0.7185
  157DOPC   O2218860   3.765   3.898  12.495  0.4215  0.1354 -0.1234
  157DOPC   C2218861   3.944   3.893  12.328 -0.7183 -0.2052 -0.2178
  157DOPC   H2R18862   3.999   3.970  12.269  0.5416 -1.0337 -0.1454
  157DOPC   H2S18863   3.909   3.811  12.261 -1.5817 -1.0391  1.1969
  157DOPC    C318864   3.592   4.109  12.251  0.3776 -1.5774  0.0855
  157DOPC    HX18865   3.567   4.003  12.226 -0.6757 -0.8897 -1.9803
  157DOPC    HY18866   3.657   4.147  12.170 -0.6808 -1.3202 -0.6716
  157DOPC   O3118867   3.466   4.185  12.252  0.1817  0.9886 -0.2659
  157DOPC   C3118868   3.371   4.163  12.346 -0.4090  0.1901 -0.2119
  157DOPC   O3218869   3.383   4.079  12.436 -0.1086 -0.8480 -0.2907
  157DOPC   C3218870   3.245   4.238  12.313 -0.1433 -0.5258 -0.1965
  157DOPC   H2X18871   3.179   4.173  12.251 -0.2441  0.9495 -1.6875
  157DOPC   H2Y18872   3.196   4.267  12.408  3.4135  1.2327  1.2679
  157DOPC   C2318873   4.047   3.829  12.430  0.2325 -0.8758  0.1225
  157DOPC   H3R18874   3.997   3.759  12.500 -1.7926  2.0326  1.7939
  157DOPC   H3S18875   4.083   3.914  12.492 -0.4336 -0.0976 -0.5284
  157DOPC   C2418876   4.177   3.774  12.362 -0.1532  0.4667  0.1966
  157DOPC   H4R18877   4.223   3.855  12.301  0.0008  1.0902  1.1133
  157DOPC   H4S18878   4.139   3.694  12.296  2.2419  0.4875 -1.3575
  157DOPC   C2518879   4.279   3.715  12.463  0.5072 -0.7101  0.1076
  157DOPC   H5R18880   4.223   3.651  12.535  1.5502 -1.3386  0.3926
  157DOPC   H5S18881   4.326   3.792  12.527 -3.6976  2.1673  0.0833
  157DOPC   C2618882   4.378   3.629  12.384 -0.5629 -0.7748  0.2253
  157DOPC   H6R18883   4.316   3.580  12.306  0.4070 -1.2638 -0.2531
  157DOPC   H6S18884   4.428   3.557  12.453 -0.2840 -1.0553 -0.2654
  157DOPC   C2718885   4.496   3.704  12.329 -0.2825 -0.7500  0.0257
  157DOPC   H7R18886   4.533   3.771  12.409 -0.9820  1.4960 -1.4385
  157DOPC   H7S18887   4.478   3.772  12.243  1.0999  0.2837  0.5119
  157DOPC   C2818888   4.622   3.618  12.298 -0.6966 -0.3396 -0.1798
  157DOPC   H8R18889   4.675   3.586  12.391 -2.3644 -0.5220  0.7410
  157DOPC   H8S18890   4.696   3.691  12.259 -0.6556  1.0236  2.2264
  157DOPC   C2918891   4.582   3.510  12.198 -0.4230  0.5132  0.5587
  157DOPC   H9R18892   4.510   3.434  12.232  0.6805 -0.9375 -0.2318
  157DOPC  C21018893   4.617   3.503  12.070  0.2902 -0.0680 -1.1502
  157DOPC  H10R18894   4.589   3.406  12.026 -0.2051 -0.4577 -0.0284
  157DOPC  C21118895   4.704   3.591  11.985 -0.3422  0.5775 -0.1636
  157DOPC  H11R18896   4.720   3.688  12.037  0.0815  0.1184  0.5806
  157DOPC  H11S18897   4.670   3.619  11.883 -0.1130  2.4688  0.2364
  157DOPC  C21218898   4.833   3.505  11.974  0.2205 -0.1072  0.3531
  157DOPC  H12R18899   4.803   3.412  11.922  0.2114  0.2400 -0.2660
  157DOPC  H12S18900   4.879   3.478  12.072 -1.2453  1.2350  1.4598
  157DOPC  C21318901   4.939   3.569  11.877  0.5380 -0.0023 -0.1274
  157DOPC  H13R18902   4.881   3.597  11.786 -0.5908 -2.5842 -0.2954
  157DOPC  H13S18903   5.005   3.484  11.849 -0.3640 -0.0774 -2.2411
  157DOPC  C21418904   5.018   3.681  11.938 -0.6240 -0.5040  0.1038
  157DOPC  H14R18905   5.101   3.647  12.003  1.6899  0.5477 -2.1116
  157DOPC  H14S18906   4.967   3.744  12.013  1.1974 -1.2436  2.0468
  157DOPC  C21518907   5.082   3.760  11.825  0.0429 -0.5191  0.6040
  157DOPC  H15R18908   5.013   3.786  11.741 -0.9652 -2.6426  0.7194
  157DOPC  H15S18909   5.155   3.689  11.783  1.1774  1.9946 -1.9774
  157DOPC  C21618910   5.155   3.892  11.859  0.2070  0.0969 -0.3544
  157DOPC  H16R18911   5.230   3.877  11.940 -0.6193  1.6232  0.7619
  157DOPC  H16S18912   5.090   3.964  11.914 -2.1372 -2.2194  0.0880
  157DOPC  C21718913   5.217   3.955  11.738  0.0291 -0.1930  0.5837
  157DOPC  H17R18914   5.161   4.050  11.724  0.9274  0.2571 -0.0582
  157DOPC  H17S18915   5.196   3.903  11.642 -0.4083 -0.2336  0.7031
  157DOPC  C21818916   5.366   3.992  11.759  0.8361  0.7696 -0.2432
  157DOPC  H18R18917   5.415   3.896  11.786 -0.8856 -0.3894 -1.0737
  157DOPC  H18S18918   5.362   4.059  11.848 -1.9033  0.8052 -0.3156
  157DOPC  H18T18919   5.412   4.041  11.671 -1.7780  2.0937 -0.9740
  157DOPC   C3318920   3.263   4.363  12.223  0.0478 -0.2678  0.4288
  157DOPC   H3X18921   3.320   4.343  12.130  1.0643 -1.3570  1.2513
  157DOPC   H3Y18922   3.324   4.426  12.291  0.5160 -2.2860  2.0000
  157DOPC   C3418923   3.146   4.446  12.184  0.8676 -0.0885  0.0070
  157DOPC   H4X18924   3.083   4.466  12.274  1.5578  1.4623  0.1919
  157DOPC   H4Y18925   3.088   4.398  12.102  0.5050 -0.6009  0.5550
  157DOPC   C3518926   3.187   4.584  12.130  0.5011  0.6883 -0.4298
  157DOPC   H5X18927   3.271   4.577  12.058  0.5556  1.7777 -0.4819
  157DOPC   H5Y18928   3.226   4.648  12.212  0.4548  0.9772 -0.6329
  157DOPC   C3618929   3.078   4.663  12.053 -0.4552 -0.0851 -0.2139
  157DOPC   H6X18930   3.035   4.591  11.980  0.5800 -0.1868 -0.7471
  157DOPC   H6Y18931   2.994   4.697  12.118  0.5821  1.8205  0.2039
  157DOPC   C3718932   3.151   4.782  11.985 -0.2063  0.4296  0.4390
  157DOPC   H7X18933   3.205   4.843  12.060  0.7658  0.5429 -0.3401
  157DOPC   H7Y18934   3.227   4.738  11.918  0.1793 -0.1221  1.2220
  157DOPC   C3818935   3.054   4.871  11.892 -0.5248 -0.2553 -0.2853
  157DOPC   H8X18936   2.995   4.810  11.820 -2.5157 -0.3634  1.3459
  157DOPC   H8Y18937   3.115   4.944  11.834  1.4679 -1.6968 -0.1115
  157DOPC   C3918938   2.968   4.966  11.968  0.2246 -0.2932  0.3924
  157DOPC   H9X18939   2.995   4.980  12.073  0.3889  2.0965  0.0729
  157DOPC  C31018940   2.861   5.026  11.912 -0.3341 -0.6418  0.6625
  157DOPC  H10X18941   2.804   5.110  11.954 -1.8951 -2.3639  2.1914
  157DOPC  C31118942   2.819   5.004  11.771 -0.7984 -0.6789 -0.3924
  157DOPC  H11X18943   2.901   4.961  11.710  0.2789  0.0865  0.4979
  157DOPC  H11Y18944   2.782   5.097  11.721  0.8677 -0.0219 -0.4739
  157DOPC  C31218945   2.705   4.898  11.772 -0.3148  0.6424 -0.5564
  157DOPC  H12X18946   2.742   4.809  11.827 -2.2050 -0.2084 -0.5533
  157DOPC  H12Y18947   2.680   4.863  11.669 -0.1919  0.6229 -0.5805
  157DOPC  C31318948   2.565   4.945  11.829  0.4406  0.2375 -0.2191
  157DOPC  H13X18949   2.570   4.937  11.939  0.6064 -2.5077 -0.3443
  157DOPC  H13Y18950   2.535   5.050  11.809  1.2540  0.5290  0.0639
  157DOPC  C31418951   2.444   4.843  11.792  0.1691  0.2442  0.6884
  157DOPC  H14X18952   2.438   4.842  11.681  0.1451  0.4355  0.6883
  157DOPC  H14Y18953   2.478   4.750  11.841  1.5315  0.5554  0.3634
  157DOPC  C31518954   2.310   4.884  11.854  0.1836  0.5822 -0.4308
  157DOPC  H15X18955   2.315   4.899  11.964  0.3988 -1.1176 -0.1775
  157DOPC  H15Y18956   2.253   4.789  11.856  0.9091  0.1464  0.2404
  157DOPC  C31618957   2.223   4.984  11.775  0.4113  0.3347  0.0313
  157DOPC  H16X18958   2.153   5.031  11.847 -3.3695  0.1645 -3.2126
  157DOPC  H16Y18959   2.284   5.073  11.747 -0.1756  1.3120  1.7231
  157DOPC  C31718960   2.140   4.919  11.665 -0.2528  1.2888 -0.7661
  157DOPC  H17X18961   2.208   4.870  11.593  0.9078  1.3644  0.2506
  157DOPC  H17Y18962   2.082   4.837  11.714  0.7712  1.9563  1.7307
  157DOPC  C31818963   2.043   5.016  11.595  0.4010  0.0580  0.7016
  157DOPC  H18X18964   2.104   5.095  11.548  1.6296 -1.2679  0.0130
  157DOPC  H18Y18965   1.994   4.959  11.513 -0.1484  1.6154 -0.1144
  157DOPC  H18Z18966   1.970   5.068  11.661  0.3691  0.8990  0.0305
  158DOPC     N18967   3.305   7.225  13.712 -0.4637 -0.1232  0.1714
  158DOPC   C1218968   3.334   7.345  13.622 -0.1169 -0.5911 -0.8476
  158DOPC  H12A18969   3.386   7.416  13.685 -1.5548  1.9512 -2.3744
  158DOPC  H12B18970   3.244   7.398  13.594 -0.0560 -1.1827 -2.2443
  158DOPC   C1318971   3.197   7.147  13.646 -0.3785  0.0046 -0.3519
  158DOPC  H13A18972   3.181   7.052  13.696  1.2313  0.4520  1.1255
  158DOPC  H13B18973   3.105   7.193  13.614 -0.2111  0.0208 -0.8060
  158DOPC  H13C18974   3.249   7.117  13.556 -1.5116 -1.3115 -0.6099
  158DOPC   C1418975   3.258   7.278  13.846  0.3412  0.2098  0.1666
  158DOPC  H14A18976   3.163   7.325  13.826  0.6176  0.4789 -0.5413
  158DOPC  H14B18977   3.244   7.194  13.913  0.1491 -1.1427 -1.5076
  158DOPC  H14C18978   3.320   7.358  13.883  4.6336 -2.5542 -0.2707
  158DOPC   C1518979   3.427   7.143  13.729  0.2219 -0.3256 -0.6701
  158DOPC  H15A18980   3.462   7.093  13.639  2.7240  1.5425 -0.8535
  158DOPC  H15B18981   3.409   7.059  13.795  1.9726 -0.3623 -0.1820
  158DOPC  H15C18982   3.510   7.207  13.755  1.5753 -2.0502 -0.5623
  158DOPC   C1118983   3.425   7.332  13.493  0.2283  0.0737  0.6124
  158DOPC  H11A18984   3.463   7.431  13.461  0.8002  0.3859  2.1453
  158DOPC  H11B18985   3.518   7.273  13.514 -0.4014 -1.6107 -1.0429
  158DOPC     P18986   3.237   7.338  13.308  0.2026  0.2635  0.2624
  158DOPC   O1318987   3.191   7.456  13.391  0.3545 -0.3998  0.3181
  158DOPC   O1418988   3.132   7.236  13.276 -0.0985  0.2864  0.1339
  158DOPC   O1218989   3.348   7.263  13.396 -0.1149 -0.4307 -0.1530
  158DOPC   O1118990   3.313   7.389  13.178 -0.3714  0.1667  0.0545
  158DOPC    C118991   3.428   7.312  13.132 -0.0415 -0.2478  0.6380
  158DOPC    HA18992   3.400   7.210  13.099 -0.5463  0.5977 -1.7411
  158DOPC    HB18993   3.502   7.300  13.214  2.0111  0.4021 -1.0405
  158DOPC    C218994   3.495   7.389  13.011  0.5702 -0.3418 -0.0618
  158DOPC    HS18995   3.517   7.488  13.057  1.0910 -0.2844 -0.4345
  158DOPC   O2118996   3.401   7.384  12.902  0.0543  0.0983 -0.1634
  158DOPC   C2118997   3.411   7.483  12.810  0.4369 -0.2377  0.1214
  158DOPC   O2218998   3.499   7.565  12.806 -0.1778  0.0441  0.2437
  158DOPC   C2218999   3.296   7.476  12.705 -0.5225  0.2175 -0.1457
  158DOPC   H2R19000   3.220   7.553  12.732 -1.3520 -0.5527 -0.2176
  158DOPC   H2S19001   3.251   7.374  12.711  0.9323 -0.4100  0.6881
  158DOPC    C319002   3.634   7.331  12.983 -0.1449 -0.4643  0.2065
  158DOPC    HX19003   3.693   7.363  13.072 -0.4706  0.4035  0.1207
  158DOPC    HY19004   3.680   7.391  12.903 -0.0809  0.0136  0.5991
  158DOPC   O3119005   3.639   7.191  12.964 -0.3260  0.3160  0.1896
  158DOPC   C3119006   3.604   7.159  12.833 -0.7266 -0.3827 -0.3241
  158DOPC   O3219007   3.608   7.239  12.742 -0.3335 -0.5913  0.1009
  158DOPC   C3219008   3.574   7.012  12.819  0.0380  0.6124 -0.4890
  158DOPC   H2X19009   3.555   6.976  12.923 -0.1342 -2.9055 -1.6179
  158DOPC   H2Y19010   3.485   7.001  12.754  1.2656 -1.2088 -1.9569
  158DOPC   C2319011   3.349   7.525  12.567  0.4852  0.3960 -0.6524
  158DOPC   H3R19012   3.425   7.465  12.512 -0.7305 -1.6613 -0.2013
  158DOPC   H3S19013   3.383   7.630  12.582 -0.5025  0.5461  0.7071
  158DOPC   C2419014   3.237   7.523  12.471 -0.4358 -0.2096  0.4212
  158DOPC   H4R19015   3.149   7.557  12.528  0.2674 -0.3351  1.6019
  158DOPC   H4S19016   3.221   7.424  12.423  5.2628 -0.6695 -1.3273
  158DOPC   C2519017   3.256   7.611  12.345  0.3938  0.0871  0.2542
  158DOPC   H5R19018   3.311   7.705  12.368  1.8315 -0.3256 -1.2856
  158DOPC   H5S19019   3.158   7.647  12.309  0.4972 -0.1483 -0.2714
  158DOPC   C2619020   3.327   7.544  12.222 -0.0736 -0.6807 -0.0882
  158DOPC   H6R19021   3.259   7.467  12.181 -0.8975 -0.2451  0.4158
  158DOPC   H6S19022   3.423   7.496  12.251  1.1638  1.8246  0.3039
  158DOPC   C2719023   3.362   7.643  12.112  0.2922  0.1002  0.7247
  158DOPC   H7R19024   3.280   7.718  12.125  1.8712  2.1621 -0.5298
  158DOPC   H7S19025   3.368   7.600  12.010 -2.7473  0.1221  0.4284
  158DOPC   C2819026   3.482   7.730  12.149 -0.4401 -0.4141  0.0708
  158DOPC   H8R19027   3.571   7.664  12.152  0.8328  1.2087 -0.2819
  158DOPC   H8S19028   3.475   7.761  12.255 -1.5352  0.3391 -0.2069
  158DOPC   C2919029   3.503   7.842  12.053 -0.4991 -0.1284 -0.9075
  158DOPC   H9R19030   3.441   7.932  12.063 -2.1386 -1.2958 -0.0555
  158DOPC  C21019031   3.577   7.834  11.943  0.8877 -0.5091  0.3181
  158DOPC  H10R19032   3.577   7.921  11.875  3.5172 -1.5446 -1.1689
  158DOPC  C21119033   3.654   7.724  11.873  0.4967 -0.1669 -0.5561
  158DOPC  H11R19034   3.646   7.625  11.923 -0.0646  0.1256 -0.0552
  158DOPC  H11S19035   3.761   7.753  11.871  0.8353 -1.3800 -0.9963
  158DOPC  C21219036   3.608   7.718  11.729  0.0824 -0.0362 -0.3790
  158DOPC  H12R19037   3.674   7.653  11.668  1.6707  0.4257  0.8043
  158DOPC  H12S19038   3.612   7.819  11.683 -2.3138  0.8346  1.1343
  158DOPC  C21319039   3.464   7.658  11.715  0.3730 -0.0872  0.2414
  158DOPC  H13R19040   3.393   7.740  11.741  0.0391 -0.2068 -0.2695
  158DOPC  H13S19041   3.438   7.584  11.794 -0.2395  1.8969  1.9974
  158DOPC  C21419042   3.428   7.599  11.575 -0.4533  0.3276  0.4898
  158DOPC  H14R19043   3.489   7.509  11.553 -2.0304 -1.3734  2.6097
  158DOPC  H14S19044   3.436   7.672  11.491  1.9279 -1.5023 -1.0246
  158DOPC  C21519045   3.280   7.550  11.559 -0.3474  1.3656 -0.1188
  158DOPC  H15R19046   3.251   7.548  11.452 -1.4203  4.3202  0.0340
  158DOPC  H15S19047   3.220   7.634  11.599 -0.2835 -0.2584  3.8049
  158DOPC  C21619048   3.251   7.424  11.622  0.1541  0.7437  0.1628
  158DOPC  H16R19049   3.144   7.416  11.648 -0.4310  2.0463 -1.6398
  158DOPC  H16S19050   3.310   7.399  11.713 -0.3297 -1.6584 -0.1188
  158DOPC  C21719051   3.268   7.306  11.520  0.1420  0.0686  0.0080
  158DOPC  H17R19052   3.378   7.294  11.505  0.5390  2.3754  0.6945
  158DOPC  H17S19053   3.221   7.344  11.427  0.3041  0.2743  0.0098
  158DOPC  C21819054   3.213   7.173  11.561  0.8385 -0.1755  0.2883
  158DOPC  H18R19055   3.268   7.145  11.653  1.2656 -0.1769  0.0349
  158DOPC  H18S19056   3.224   7.094  11.483  0.9268 -0.1972  0.3221
  158DOPC  H18T19057   3.105   7.186  11.586  0.6197 -0.0829 -0.6451
  158DOPC   C3319058   3.684   6.918  12.755 -0.0781 -0.6039  0.2963
  158DOPC   H3X19059   3.644   6.814  12.759 -0.8580 -0.2888  0.7686
  158DOPC   H3Y19060   3.774   6.918  12.820  0.5639 -0.2066 -0.5747
  158DOPC   C3419061   3.716   6.971  12.617 -0.3140 -0.0832 -0.4580
  158DOPC   H4X19062   3.762   7.072  12.622 -0.8260  0.5211 -4.4249
  158DOPC   H4Y19063   3.621   6.987  12.561  1.5504  1.9081 -3.3501
  158DOPC   C3519064   3.820   6.899  12.535  0.2146 -0.6422  0.4849
  158DOPC   H5X19065   3.775   6.798  12.521  0.2584 -0.4776 -0.9966
  158DOPC   H5Y19066   3.917   6.911  12.586  0.1262  1.9638  0.1494
  158DOPC   C3619067   3.831   6.961  12.396  0.2300 -0.4379 -0.1903
  158DOPC   H6X19068   3.745   6.923  12.336  0.8256 -1.9289 -0.1339
  158DOPC   H6Y19069   3.828   7.072  12.400  0.2603 -0.3975 -1.0543
  158DOPC   C3719070   3.960   6.926  12.320  0.0374 -0.0152  0.0240
  158DOPC   H7X19071   4.033   6.978  12.385 -2.6861  1.3007  2.2221
  158DOPC   H7Y19072   3.979   6.820  12.347 -1.9668 -0.2649  0.6347
  158DOPC   C3819073   3.963   6.977  12.174  0.1029  0.8134  0.1706
  158DOPC   H8X19074   4.071   6.999  12.160  0.6708 -1.2063  0.9897
  158DOPC   H8Y19075   3.899   7.067  12.172 -2.0649 -0.6304  0.5441
  158DOPC   C3919076   3.889   6.876  12.084 -0.5646 -0.4104  0.6001
  158DOPC   H9X19077   3.786   6.912  12.071 -0.8282 -1.4049 -0.1474
  158DOPC  C31019078   3.930   6.754  12.048 -0.0513  0.4440  0.5433
  158DOPC  H10X19079   3.859   6.695  11.989  0.4044  0.3067  0.1310
  158DOPC  C31119080   4.067   6.692  12.071 -0.0077 -0.0371 -0.5328
  158DOPC  H11X19081   4.063   6.588  12.110  1.3697  0.2179  0.3638
  158DOPC  H11Y19082   4.124   6.749  12.148 -0.9121 -0.5539  0.5485
  158DOPC  C31219083   4.144   6.697  11.943 -0.3855 -0.2420 -0.1580
  158DOPC  H12X19084   4.157   6.803  11.911 -0.0925  0.0013  0.7322
  158DOPC  H12Y19085   4.084   6.644  11.867 -1.2107  1.9357 -1.1129
  158DOPC  C31319086   4.281   6.632  11.949 -0.4819  0.0602 -0.4703
  158DOPC  H13X19087   4.344   6.702  12.008  2.8468 -1.5365 -1.9060
  158DOPC  H13Y19088   4.264   6.537  12.005 -0.0648 -0.8158 -1.8030
  158DOPC  C31419089   4.336   6.618  11.806  0.1973 -0.5646 -0.1874
  158DOPC  H14X19090   4.263   6.557  11.749 -0.0771  0.9541 -1.5517
  158DOPC  H14Y19091   4.334   6.719  11.758  0.6977 -1.7483 -2.8594
  158DOPC  C31519092   4.485   6.571  11.801 -0.2371 -0.0649 -0.5086
  158DOPC  H15X19093   4.472   6.484  11.869 -1.2359 -0.8820 -1.6912
  158DOPC  H15Y19094   4.552   6.641  11.856  0.4726 -2.1072  1.3866
  158DOPC  C31619095   4.532   6.527  11.663 -0.2811  0.1083 -0.1720
  158DOPC  H16X19096   4.480   6.431  11.642  0.9658 -1.5766  3.6071
  158DOPC  H16Y19097   4.511   6.607  11.589 -0.6182 -0.5775 -0.8319
  158DOPC  C31719098   4.684   6.500  11.664  0.3977  0.2047 -0.5106
  158DOPC  H17X19099   4.738   6.582  11.716 -0.8690 -0.3831  1.8952
  158DOPC  H17Y19100   4.709   6.407  11.719 -1.1174  1.4478  2.5766
  158DOPC  C31819101   4.723   6.491  11.516 -0.5358  0.1759 -0.1960
  158DOPC  H18X19102   4.826   6.451  11.504 -0.2165  0.3242  1.6990
  158DOPC  H18Y19103   4.647   6.439  11.452 -2.2707  1.6365  0.5730
  158DOPC  H18Z19104   4.716   6.593  11.472 -1.9070 -0.2063 -0.9547
  159DOPC     N19105   4.873   3.595  13.641 -0.6485  0.5308  0.2454
  159DOPC   C1219106   4.924   3.651  13.512 -0.5073 -0.4130 -0.1597
  159DOPC  H12A19107   4.986   3.735  13.539 -0.1017 -0.7174 -0.1455
  159DOPC  H12B19108   4.843   3.702  13.460  1.7558  2.1994 -1.3801
  159DOPC   C1319109   4.797   3.478  13.620  0.4149  0.3862  0.1410
  159DOPC  H13A19110   4.705   3.508  13.573 -0.2333  0.8625  1.6513
  159DOPC  H13B19111   4.853   3.409  13.558  0.2539  0.4989 -0.1313
  159DOPC  H13C19112   4.770   3.425  13.710 -1.1124 -0.4231 -0.7526
  159DOPC   C1419113   4.784   3.692  13.706  0.1529  0.0626 -0.1778
  159DOPC  H14A19114   4.694   3.721  13.652 -0.3138  1.2598  1.1751
  159DOPC  H14B19115   4.744   3.643  13.793 -0.1254 -2.1453 -1.4739
  159DOPC  H14C19116   4.841   3.782  13.726  0.4624 -0.5068  1.7054
  159DOPC   C1519117   4.988   3.553  13.726 -0.1029 -0.3652 -0.5178
  159DOPC  H15A19118   5.074   3.505  13.681  1.8667  0.5533  2.0119
  159DOPC  H15B19119   4.954   3.490  13.807  0.6996 -0.5506 -0.3108
  159DOPC  H15C19120   5.034   3.646  13.757 -1.1758 -0.1612  0.5064
  159DOPC   C1119121   4.994   3.566  13.410 -0.6985 -0.0064  0.5944
  159DOPC  H11A19122   4.917   3.496  13.369  0.9531 -0.9538 -1.0303
  159DOPC  H11B19123   5.016   3.634  13.326 -3.5982  0.1370 -0.1859
  159DOPC     P19124   5.129   3.345  13.439 -0.0274  0.0827  0.4795
  159DOPC   O1319125   5.024   3.271  13.512 -0.7051  0.0854 -0.5188
  159DOPC   O1419126   5.270   3.321  13.476 -0.0619 -0.3057 -0.4215
  159DOPC   O1219127   5.108   3.500  13.462  0.1973 -0.0524 -0.2657
  159DOPC   O1119128   5.111   3.330  13.280 -0.3328 -0.2382  0.2118
  159DOPC    C119129   5.201   3.404  13.187  0.4759 -0.1995  0.1593
  159DOPC    HA19130   5.272   3.332  13.141  0.2920  0.8145 -1.8210
  159DOPC    HB19131   5.251   3.483  13.247 -0.6813 -0.6160  1.7490
  159DOPC    C219132   5.125   3.478  13.071  0.3801  0.0196 -0.1618
  159DOPC    HS19133   5.037   3.529  13.116 -1.4700 -2.2784 -0.9806
  159DOPC   O2119134   5.094   3.384  12.969  0.7806 -0.0785 -0.0580
  159DOPC   C2119135   4.984   3.412  12.896 -0.6742 -0.0615 -0.1398
  159DOPC   O2219136   4.907   3.502  12.917 -0.1737  0.2232  0.0286
  159DOPC   C2219137   4.993   3.330  12.761  0.8601  0.8698 -0.1624
  159DOPC   H2R19138   4.927   3.243  12.783  0.6975  0.9160 -0.4600
  159DOPC   H2S19139   5.098   3.299  12.743  1.5272  2.3726  0.9366
  159DOPC    C319140   5.214   3.589  13.009 -0.1369 -0.2821 -0.1148
  159DOPC    HX19141   5.310   3.549  12.969  2.2134  3.5775  1.1399
  159DOPC    HY19142   5.237   3.663  13.088  0.0545 -0.9180  0.4318
  159DOPC   O3119143   5.157   3.652  12.890  0.3028 -0.1432 -0.4121
  159DOPC   C3119144   5.077   3.758  12.916  0.0616  0.1759  0.6367
  159DOPC   O3219145   5.042   3.789  13.026  0.5130  0.1159  0.4463
  159DOPC   C3219146   5.044   3.829  12.791 -0.2131 -0.6392  0.0613
  159DOPC   H2X19147   5.105   3.799  12.704 -1.7508 -0.0839 -1.2745
  159DOPC   H2Y19148   4.939   3.804  12.765 -0.7703  0.3093  1.2518
  159DOPC   C2319149   4.933   3.403  12.635  0.1356  0.4307 -0.4572
  159DOPC   H3R19150   4.839   3.453  12.665 -0.3764 -1.9147  2.2487
  159DOPC   H3S19151   4.910   3.329  12.555 -0.1220 -0.3485  0.3210
  159DOPC   C2419152   5.030   3.515  12.585  0.6498 -0.2778 -0.3388
  159DOPC   H4R19153   5.125   3.473  12.546  0.2358  0.0180 -1.7096
  159DOPC   H4S19154   5.044   3.566  12.683  0.0918 -0.2927 -0.2448
  159DOPC   C2519155   4.972   3.600  12.471  0.2251  0.4523  0.6530
  159DOPC   H5R19156   4.908   3.683  12.507 -0.1836  0.1292  0.6771
  159DOPC   H5S19157   4.913   3.541  12.398  0.9340  1.5589 -0.8559
  159DOPC   C2619158   5.083   3.675  12.396 -0.2953 -0.4165 -0.6032
  159DOPC   H6R19159   5.159   3.599  12.368  1.3483  0.6638  0.8011
  159DOPC   H6S19160   5.150   3.735  12.461 -0.9607  0.8173 -1.0195
  159DOPC   C2719161   5.038   3.757  12.277  0.1427  0.0601 -0.3732
  159DOPC   H7R19162   4.978   3.691  12.211  0.0008  1.5240 -1.7343
  159DOPC   H7S19163   5.126   3.797  12.223  0.1404  1.7127  0.7603
  159DOPC   C2819164   4.955   3.879  12.318 -0.1030 -0.1214 -0.0934
  159DOPC   H8R19165   4.994   3.931  12.408 -0.1042  0.7968 -0.6097
  159DOPC   H8S19166   4.852   3.846  12.343  1.2691 -3.5080  1.7725
  159DOPC   C2919167   4.940   3.969  12.198  0.2278 -0.2644  0.3376
  159DOPC   H9R19168   4.876   3.938  12.115 -0.6837  1.1078  0.4963
  159DOPC  C21019169   4.986   4.091  12.189 -0.1369  0.0810 -0.1318
  159DOPC  H10R19170   4.960   4.142  12.095 -0.1290 -2.2468 -1.4693
  159DOPC  C21119171   5.058   4.177  12.296 -0.3517  0.2237  0.1048
  159DOPC  H11R19172   5.103   4.115  12.377 -0.5484 -1.0989 -0.7634
  159DOPC  H11S19173   4.999   4.265  12.330 -0.5132  0.2961 -0.3574
  159DOPC  C21219174   5.176   4.229  12.215 -0.1460  0.2076  0.3315
  159DOPC  H12R19175   5.236   4.291  12.284  0.5765 -0.0395 -0.0638
  159DOPC  H12S19176   5.136   4.298  12.137 -1.3361 -2.4113 -1.5293
  159DOPC  C21319177   5.265   4.124  12.141  0.0334  0.1902  0.1385
  159DOPC  H13R19178   5.251   4.123  12.030  1.5772  0.5590 -0.0971
  159DOPC  H13S19179   5.233   4.021  12.166  1.8006 -0.0173  1.7283
  159DOPC  C21419180   5.420   4.119  12.185 -0.2455  0.3340  0.8888
  159DOPC  H14R19181   5.462   4.039  12.121  0.4951  1.8047 -0.5703
  159DOPC  H14S19182   5.418   4.091  12.292 -2.2121  0.0773  0.8252
  159DOPC  C21519183   5.502   4.247  12.147  0.1732 -0.1710  0.4647
  159DOPC  H15R19184   5.440   4.318  12.206 -1.6723 -1.8038  0.5830
  159DOPC  H15S19185   5.497   4.266  12.038 -1.8081  0.2575  0.6012
  159DOPC  C21619186   5.650   4.231  12.176 -0.3643 -1.3816 -1.0309
  159DOPC  H16R19187   5.683   4.166  12.092  0.0010 -0.1940 -1.8307
  159DOPC  H16S19188   5.669   4.184  12.275 -0.4757  1.6385  0.5290
  159DOPC  C21719189   5.720   4.365  12.174  0.1419 -0.0314 -0.3908
  159DOPC  H17R19190   5.694   4.426  12.263 -0.1363 -1.8405  0.8258
  159DOPC  H17S19191   5.691   4.419  12.081  1.6773  2.1883  0.3340
  159DOPC  C21819192   5.877   4.358  12.176  0.0976  0.8858 -0.1995
  159DOPC  H18R19193   5.903   4.313  12.078  0.9566 -1.8495  1.1859
  159DOPC  H18S19194   5.910   4.282  12.249 -0.3831  0.2120 -0.6743
  159DOPC  H18T19195   5.929   4.457  12.174  0.2519  0.8180  0.3502
  159DOPC   C3319196   5.033   3.984  12.805  0.2559  0.4136  0.5456
  159DOPC   H3X19197   5.135   4.023  12.828  0.6338 -0.4790  0.4329
  159DOPC   H3Y19198   4.965   4.002  12.891 -2.3169  2.0891 -1.6484
  159DOPC   C3419199   4.968   4.060  12.685  0.7686 -0.1742 -1.2092
  159DOPC   H4X19200   5.029   4.063  12.592  1.5300 -1.0871 -0.7536
  159DOPC   H4Y19201   4.957   4.161  12.730 -0.4789 -0.3404 -1.1150
  159DOPC   C3519202   4.825   4.027  12.640  0.0900 -0.1088 -0.3712
  159DOPC   H5X19203   4.764   4.025  12.733  0.5223  0.1840 -0.0829
  159DOPC   H5Y19204   4.815   3.924  12.599  0.0225 -0.5434  0.6960
  159DOPC   C3619205   4.769   4.129  12.544  0.0126  0.0209 -0.0572
  159DOPC   H6X19206   4.745   4.222  12.600 -0.2086  0.8110 -1.4093
  159DOPC   H6Y19207   4.844   4.165  12.471 -1.3576 -1.0776 -2.0957
  159DOPC   C3719208   4.635   4.090  12.489  0.3445 -0.4145  0.3190
  159DOPC   H7X19209   4.633   3.996  12.430  1.4541 -0.8676  0.9815
  159DOPC   H7Y19210   4.563   4.072  12.572 -1.6429 -0.6509 -1.3501
  159DOPC   C3819211   4.580   4.210  12.403 -0.0644  0.3432 -0.5355
  159DOPC   H8X19212   4.623   4.300  12.450 -1.7402  0.4582  0.8589
  159DOPC   H8Y19213   4.470   4.214  12.418 -0.1556 -1.1725 -0.6251
  159DOPC   C3919214   4.636   4.202  12.257 -0.6976  0.1443  0.2026
  159DOPC   H9X19215   4.734   4.246  12.235 -1.6693  1.5549 -1.5303
  159DOPC  C31019216   4.579   4.157  12.143  0.6810  0.0515 -0.1683
  159DOPC  H10X19217   4.648   4.151  12.057  2.9120  0.8499  1.4605
  159DOPC  C31119218   4.437   4.104  12.121 -0.5095 -0.0900  0.4461
  159DOPC  H11X19219   4.381   4.200  12.116  0.1226  0.3179  1.0100
  159DOPC  H11Y19220   4.406   4.044  12.210  3.0202 -0.1068  1.8124
  159DOPC  C31219221   4.438   4.027  11.997  0.4774  0.5072  0.5343
  159DOPC  H12X19222   4.515   3.947  11.998 -0.5051 -0.4456  0.9894
  159DOPC  H12Y19223   4.447   4.097  11.911 -0.2072  0.7165  0.6268
  159DOPC  C31319224   4.307   3.945  11.987 -0.0910  0.1194  0.4833
  159DOPC  H13X19225   4.298   3.888  12.082  0.8008  1.0912  1.1671
  159DOPC  H13Y19226   4.222   4.014  11.970  0.5985  0.6195 -1.1331
  159DOPC  C31419227   4.311   3.845  11.866 -0.9019 -0.4819  0.2476
  159DOPC  H14X19228   4.309   3.912  11.778  0.6208  2.5399  2.3569
  159DOPC  H14Y19229   4.405   3.788  11.854 -0.4812  0.2314  0.1171
  159DOPC  C31519230   4.196   3.747  11.863 -0.0037  0.3100 -0.0545
  159DOPC  H15X19231   4.198   3.685  11.770  1.5851  2.4656 -1.5631
  159DOPC  H15Y19232   4.100   3.804  11.860 -1.4922 -2.0653 -2.1224
  159DOPC  C31619233   4.194   3.658  11.985  0.3021  0.0931 -0.2536
  159DOPC  H16X19234   4.295   3.632  12.022  1.2347  0.8726 -2.1394
  159DOPC  H16Y19235   4.157   3.708  12.076  3.3804 -1.8337  2.2854
  159DOPC  C31719236   4.109   3.533  11.974  0.0408  0.3977 -0.0698
  159DOPC  H17X19237   4.000   3.550  11.957 -0.3020 -0.4388  1.1707
  159DOPC  H17Y19238   4.153   3.479  11.888  0.7965 -0.9641  1.1364
  159DOPC  C31819239   4.139   3.435  12.086 -0.2957  0.2298 -0.2594
  159DOPC  H18X19240   4.247   3.417  12.108 -1.2518 -2.0107  3.6237
  159DOPC  H18Y19241   4.105   3.470  12.186  0.4310  1.6481 -0.4825
  159DOPC  H18Z19242   4.093   3.335  12.068 -2.5664  0.7622  1.9450
  160DOPC     N19243   5.793   1.623  13.104 -0.0076  0.1621 -0.3850
  160DOPC   C1219244   5.854   1.492  13.082 -0.0170 -0.6262  0.7423
  160DOPC  H12A19245   5.801   1.422  13.145 -1.1263 -1.5781 -1.1339
  160DOPC  H12B19246   5.952   1.481  13.127 -0.1862 -0.0136  1.2668
  160DOPC   C1319247   5.858   1.734  13.023  0.1209  0.9255 -0.5267
  160DOPC  H13A19248   5.814   1.833  13.024  1.6487  1.7169 -2.8343
  160DOPC  H13B19249   5.963   1.747  13.045 -0.2340  1.2015  1.1086
  160DOPC  H13C19250   5.844   1.701  12.921  1.1089  1.2425 -0.7718
  160DOPC   C1419251   5.818   1.673  13.248  0.1534 -0.9461 -0.3483
  160DOPC  H14A19252   5.765   1.766  13.264 -0.1853 -1.3279  0.8457
  160DOPC  H14B19253   5.781   1.598  13.317  0.4308 -0.8766 -0.1190
  160DOPC  H14C19254   5.923   1.684  13.269 -0.2655  0.2102  1.3789
  160DOPC   C1519255   5.647   1.618  13.085  0.1311 -0.6617  0.1230
  160DOPC  H15A19256   5.594   1.544  13.144 -0.0499 -1.5631 -1.1333
  160DOPC  H15B19257   5.622   1.589  12.984 -2.2843  1.6797 -0.0474
  160DOPC  H15C19258   5.606   1.714  13.113  0.7359 -1.0976  2.7600
  160DOPC   C1119259   5.847   1.443  12.933  0.7843  0.0362  0.5965
  160DOPC  H11A19260   5.882   1.337  12.938 -0.5597 -0.4335  0.2603
  160DOPC  H11B19261   5.741   1.453  12.902  0.8140  1.8616  0.9904
  160DOPC     P19262   6.082   1.507  12.827  0.1342 -0.1352  0.4657
  160DOPC   O1319263   6.143   1.494  12.959 -0.5010  0.3066  0.5062
  160DOPC   O1419264   6.128   1.621  12.744 -0.2356  0.1636 -0.0827
  160DOPC   O1219265   5.927   1.517  12.840 -0.4600  0.1571  0.3036
  160DOPC   O1119266   6.089   1.370  12.743 -0.4638 -0.2393 -0.8005
  160DOPC    C119267   6.022   1.371  12.614 -0.9368  0.1186  0.5653
  160DOPC    HA19268   6.013   1.474  12.575 -0.4283 -0.4154 -1.0023
  160DOPC    HB19269   5.918   1.333  12.630 -0.2929 -2.1942 -0.3699
  160DOPC    C219270   6.101   1.286  12.502 -0.1509 -0.4684 -0.1138
  160DOPC    HS19271   6.106   1.184  12.546 -1.6490  0.1971  1.7699
  160DOPC   O2119272   6.240   1.338  12.495  0.2294  0.3502 -0.2295
  160DOPC   C2119273   6.330   1.254  12.436  0.1961  0.7973 -0.0138
  160DOPC   O2219274   6.302   1.141  12.397 -0.4658 -0.1863 -0.1775
  160DOPC   C2219275   6.469   1.312  12.418 -0.0182 -0.4757 -0.3885
  160DOPC   H2R19276   6.527   1.222  12.447 -0.1741 -1.0104 -1.6779
  160DOPC   H2S19277   6.478   1.401  12.484 -1.4920 -1.3819  1.0915
  160DOPC    C319278   6.028   1.276  12.365 -0.0047  0.0621 -0.3783
  160DOPC    HX19279   5.932   1.221  12.365  1.0075 -1.8345 -2.1479
  160DOPC    HY19280   6.084   1.220  12.288 -1.5862  0.2776 -1.7384
  160DOPC   O3119281   6.015   1.404  12.309  0.3823 -0.1330 -0.0912
  160DOPC   C3119282   5.895   1.466  12.319 -0.8007  0.0740  0.2485
  160DOPC   O3219283   5.798   1.426  12.376  0.1954 -0.1000  0.4854
  160DOPC   C3219284   5.916   1.608  12.270  0.0299 -0.5944  0.2245
  160DOPC   H2X19285   5.993   1.654  12.335 -0.5038  1.6046 -0.6061
  160DOPC   H2Y19286   5.934   1.602  12.161 -0.8396  0.6182 -0.0213
  160DOPC   C2319287   6.509   1.356  12.267 -0.1838  0.4260 -0.3573
  160DOPC   H3R19288   6.510   1.262  12.208 -0.1432 -0.4251  0.9521
  160DOPC   H3S19289   6.614   1.388  12.276 -0.0731  0.2089 -0.8289
  160DOPC   C2419290   6.433   1.480  12.210  0.8312 -0.1344 -0.3038
  160DOPC   H4R19291   6.458   1.569  12.272  1.0337 -0.9274  0.7765
  160DOPC   H4S19292   6.324   1.461  12.224  0.9600 -0.2294  0.6146
  160DOPC   C2519293   6.468   1.517  12.071 -0.4977 -0.2649  0.4128
  160DOPC   H5R19294   6.453   1.439  11.993 -0.6630  0.7254 -0.5646
  160DOPC   H5S19295   6.574   1.551  12.081 -0.7295  0.5203  0.2226
  160DOPC   C2619296   6.397   1.642  12.029 -0.7500 -0.1285  0.3743
  160DOPC   H6R19297   6.398   1.714  12.113  0.8662 -0.9027  1.0572
  160DOPC   H6S19298   6.292   1.615  12.001  0.5199 -2.6966 -2.4901
  160DOPC   C2719299   6.453   1.715  11.904 -0.1467  0.1917  0.1313
  160DOPC   H7R19300   6.547   1.764  11.939  1.5426 -3.0166  0.4394
  160DOPC   H7S19301   6.387   1.800  11.874  0.9078  1.4548  1.2362
  160DOPC   C2819302   6.489   1.635  11.772 -0.4539 -0.2634  0.2896
  160DOPC   H8R19303   6.419   1.550  11.757 -0.7033 -0.4031  2.0867
  160DOPC   H8S19304   6.587   1.585  11.792  0.1690  1.8694  3.1883
  160DOPC   C2919305   6.512   1.729  11.651 -0.4963  0.3900  0.2049
  160DOPC   H9R19306   6.421   1.739  11.591 -0.4485  0.1321  0.0891
  160DOPC  C21019307   6.621   1.807  11.624 -0.4423 -0.0816 -0.0143
  160DOPC  H10R19308   6.623   1.868  11.533  0.2673 -0.7627 -0.4742
  160DOPC  C21119309   6.757   1.803  11.685  0.4134  0.0948 -0.4508
  160DOPC  H11R19310   6.759   1.773  11.792  0.9455 -0.4693 -0.6097
  160DOPC  H11S19311   6.787   1.910  11.694 -0.5722  0.4490 -1.2848
  160DOPC  C21219312   6.868   1.732  11.612 -0.1987 -0.9525 -0.0496
  160DOPC  H12R19313   6.829   1.628  11.603 -1.8971 -0.1513 -4.9565
  160DOPC  H12S19314   6.961   1.733  11.673  0.1551  0.4253 -0.5805
  160DOPC  C21319315   6.909   1.801  11.480  0.4094  0.5520 -0.4769
  160DOPC  H13R19316   6.934   1.908  11.494 -3.6819  1.7206 -0.8950
  160DOPC  H13S19317   6.818   1.791  11.418 -1.6530  1.4817  2.2218
  160DOPC  C21419318   7.023   1.721  11.417 -0.0812 -0.1573 -0.6698
  160DOPC  H14R19319   7.005   1.611  11.413 -0.0062 -0.3561  2.1834
  160DOPC  H14S19320   7.114   1.738  11.478 -1.6662 -0.6152  1.9896
  160DOPC  C21519321   7.047   1.757  11.275 -0.4219  0.2810  0.2436
  160DOPC  H15R19322   7.081   1.863  11.272  0.7133 -0.0746  0.1433
  160DOPC  H15S19323   6.956   1.753  11.211 -1.1148  0.6787  1.1757
  160DOPC  C21619324   7.155   1.673  11.204 -0.0855  0.6698  0.2967
  160DOPC  H16R19325   7.140   1.568  11.238 -0.2502  0.7629  0.5207
  160DOPC  H16S19326   7.260   1.694  11.232  0.5220 -2.2731  0.5504
  160DOPC  C21719327   7.149   1.667  11.050  0.4064 -0.7149  0.4629
  160DOPC  H17R19328   7.233   1.610  11.004 -0.8431 -0.4502 -2.3642
  160DOPC  H17S19329   7.153   1.769  11.006 -1.3707 -0.1071  1.6220
  160DOPC  C21819330   7.017   1.613  10.994  0.3412 -0.4683 -0.5097
  160DOPC  H18R19331   6.926   1.674  11.008  0.8889  0.3034 -0.2950
  160DOPC  H18S19332   6.994   1.515  11.042 -2.8573  1.4224  2.1946
  160DOPC  H18T19333   7.028   1.604  10.883 -0.1305  0.5921 -0.6513
  160DOPC   C3319334   5.791   1.696  12.287 -0.4835 -0.3865  0.1278
  160DOPC   H3X19335   5.763   1.712  12.393 -1.4873 -0.1656 -0.1583
  160DOPC   H3Y19336   5.708   1.642  12.238 -0.4535  0.2875 -0.6985
  160DOPC   C3419337   5.813   1.828  12.216 -0.5305 -0.3605 -0.5365
  160DOPC   H4X19338   5.906   1.876  12.254 -0.6443 -0.2712 -0.3656
  160DOPC   H4Y19339   5.733   1.899  12.246 -2.0530 -2.9087  1.7983
  160DOPC   C3519340   5.820   1.833  12.061  0.2024  0.2928  1.2537
  160DOPC   H5X19341   5.717   1.818  12.023  1.4216 -0.2602 -2.2110
  160DOPC   H5Y19342   5.883   1.746  12.031 -1.3577 -0.3479 -0.3493
  160DOPC   C3619343   5.865   1.959  11.993 -0.7483 -0.0335 -0.1576
  160DOPC   H6X19344   5.817   2.040  12.051  0.7719  0.4356  0.5044
  160DOPC   H6Y19345   5.974   1.979  12.007 -0.7989 -0.1494  0.4348
  160DOPC   C3719346   5.834   1.972  11.848  0.1252 -0.3290  0.1832
  160DOPC   H7X19347   5.723   1.976  11.842 -0.1483 -1.0740  3.1293
  160DOPC   H7Y19348   5.852   2.076  11.813 -1.7954 -0.8469 -2.6740
  160DOPC   C3819349   5.887   1.862  11.753  0.3585  0.3568 -0.6484
  160DOPC   H8X19350   5.865   1.895  11.649  2.4569  1.4891 -0.7843
  160DOPC   H8Y19351   5.832   1.767  11.767 -0.8066  0.9398 -1.0913
  160DOPC   C3919352   6.037   1.842  11.768  0.5687 -0.7045  0.1495
  160DOPC   H9X19353   6.060   1.825  11.874 -1.7830 -1.5078  0.5960
  160DOPC  C31019354   6.135   1.849  11.676 -0.2317  0.4874 -0.7610
  160DOPC  H10X19355   6.239   1.846  11.713 -0.3162  0.3668 -0.5325
  160DOPC  C31119356   6.137   1.902  11.538  0.1430  0.2342  0.0151
  160DOPC  H11X19357   6.030   1.902  11.507  0.2563  0.8163 -0.3886
  160DOPC  H11Y19358   6.196   1.834  11.472  0.3536 -0.2769  0.7205
  160DOPC  C31219359   6.186   2.045  11.529  0.4909  0.7002 -0.0632
  160DOPC  H12X19360   6.232   2.054  11.428 -2.5401 -1.4388 -1.7825
  160DOPC  H12Y19361   6.264   2.066  11.606 -0.6840  0.3267  1.2755
  160DOPC  C31319362   6.076   2.150  11.547 -0.8126 -0.2155 -0.4231
  160DOPC  H13X19363   5.982   2.134  11.490 -0.8409 -0.4659 -0.3038
  160DOPC  H13Y19364   6.037   2.141  11.651  0.4777  0.2805  0.1297
  160DOPC  C31419365   6.134   2.294  11.533 -0.1059  0.5655 -0.4182
  160DOPC  H14X19366   6.202   2.317  11.617 -0.8976 -1.1795  0.7736
  160DOPC  H14Y19367   6.199   2.297  11.443 -0.6068  0.7631 -0.7782
  160DOPC  C31519368   6.022   2.400  11.545 -0.2129 -0.4791  0.8483
  160DOPC  H15X19369   6.063   2.501  11.565  1.0649 -1.1938  2.0218
  160DOPC  H15Y19370   5.958   2.373  11.632 -0.1226 -0.0057  1.0622
  160DOPC  C31619371   5.947   2.421  11.411 -0.7115  0.0451 -0.8415
  160DOPC  H16X19372   5.924   2.322  11.367  1.0803 -0.5018 -0.6215
  160DOPC  H16Y19373   5.853   2.480  11.423 -0.3355  0.2410  1.8985
  160DOPC  C31719374   6.034   2.492  11.300  0.5939  0.0968 -0.3639
  160DOPC  H17X19375   6.071   2.591  11.332  2.6387  0.1848 -2.6970
  160DOPC  H17Y19376   6.124   2.428  11.291  1.6708  1.3988  0.6227
  160DOPC  C31819377   5.957   2.494  11.166  0.0522 -0.3938  0.0316
  160DOPC  H18X19378   5.852   2.527  11.180 -1.0007 -1.9410 -3.2251
  160DOPC  H18Y19379   6.015   2.562  11.101  2.4830 -1.7071  0.6749
  160DOPC  H18Z19380   5.955   2.390  11.127 -2.4423 -2.1825  4.1911
  161DOPC     N19381   2.582   0.004  13.504  0.7068 -0.7887 -0.0129
  161DOPC   C1219382   2.651   0.037  13.368 -0.1494 -0.5209  0.3758
  161DOPC  H12A19383   2.580   0.100  13.315  1.5143  1.7026  0.6603
  161DOPC  H12B19384   2.649  -0.054  13.310 -2.1435 -0.6601  0.5817
  161DOPC   C1319385   2.448  -0.058  13.492  0.0240 -0.1790  0.2936
  161DOPC  H13A19386   2.416  -0.068  13.594 -0.0502  0.7799  0.3701
  161DOPC  H13B19387   2.375  -0.010  13.429  0.9062 -2.8886 -3.1431
  161DOPC  H13C19388   2.454  -0.159  13.453 -0.7300 -0.4538  0.8692
  161DOPC   C1419389   2.571   0.127  13.592  0.1639  0.4261  0.5535
  161DOPC  H14A19390   2.664   0.167  13.631 -0.1085 -0.9257  2.7694
  161DOPC  H14B19391   2.530   0.212  13.540 -0.8443  0.4796  1.3964
  161DOPC  H14C19392   2.504   0.110  13.675  1.1481 -1.5658  1.0073
  161DOPC   C1519393   2.662  -0.094  13.569  0.3897  0.4331 -0.4302
  161DOPC  H15A19394   2.765  -0.075  13.543  0.6915 -1.5110 -0.7990
  161DOPC  H15B19395   2.644  -0.199  13.550 -0.3012  0.7085 -1.3767
  161DOPC  H15C19396   2.648  -0.078  13.675  1.4801  2.2820 -0.5231
  161DOPC   C1119397   2.781   0.122  13.372 -0.1771 -0.4159  0.6608
  161DOPC  H11A19398   2.835   0.092  13.464  0.3720  1.6994  1.0752
  161DOPC  H11B19399   2.838   0.112  13.278  1.2876 -0.2825  1.5167
  161DOPC     P19400   2.673   0.343  13.281  0.0183  0.3368  0.2674
  161DOPC   O1319401   2.695   0.489  13.302 -0.0572 -0.3300  0.1796
  161DOPC   O1419402   2.534   0.292  13.264 -0.2174 -0.1864 -0.1358
  161DOPC   O1219403   2.746   0.261  13.396  0.0044 -0.3823  0.2357
  161DOPC   O1119404   2.754   0.297  13.158  0.1749  0.6045  0.0130
  161DOPC    C119405   2.895   0.319  13.141 -0.2250 -0.8021  0.2535
  161DOPC    HA19406   2.942   0.223  13.170  1.5367  0.3032  1.2016
  161DOPC    HB19407   2.940   0.408  13.189  0.2232 -1.1869  0.5503
  161DOPC    C219408   2.933   0.329  12.985 -0.1823  0.0010  0.3294
  161DOPC    HS19409   2.892   0.431  12.969 -0.3190 -0.0774  0.1704
  161DOPC   O2119410   2.860   0.228  12.911  0.1043  0.0876 -0.1215
  161DOPC   C2119411   2.841   0.260  12.786  0.3177 -0.1263  0.1421
  161DOPC   O2219412   2.851   0.374  12.739 -0.5241  0.1332 -0.0602
  161DOPC   C2219413   2.814   0.136  12.701  0.4119 -0.0643  0.0886
  161DOPC   H2R19414   2.716   0.106  12.744  0.2875  2.5534  1.9152
  161DOPC   H2S19415   2.896   0.064  12.718  1.0775  0.7894  0.5965
  161DOPC    C319416   3.092   0.323  12.951 -0.0720  0.5610 -0.2211
  161DOPC    HX19417   3.141   0.247  13.016 -1.7320 -0.5437 -0.1881
  161DOPC    HY19418   3.129   0.421  12.989 -2.5120  1.4230  0.1753
  161DOPC   O3119419   3.114   0.308  12.805 -0.4690 -0.2762 -0.2784
  161DOPC   C3119420   3.239   0.303  12.775 -0.1572  0.0349 -0.1582
  161DOPC   O3219421   3.329   0.345  12.846  0.0320  0.2845  0.0486
  161DOPC   C3219422   3.263   0.236  12.642  0.7425  0.0197 -0.1869
  161DOPC   H2X19423   3.308   0.137  12.667  1.6137  0.1636 -1.1424
  161DOPC   H2Y19424   3.164   0.221  12.593  0.6900 -2.2976  0.4896
  161DOPC   C2319425   2.792   0.170  12.553  0.0787  0.2477  0.3282
  161DOPC   H3R19426   2.889   0.174  12.498 -0.8248  1.6575 -1.2420
  161DOPC   H3S19427   2.730   0.260  12.538  1.0979  0.9074 -0.0603
  161DOPC   C2419428   2.715   0.066  12.470  0.2121 -0.4182 -0.2454
  161DOPC   H4R19429   2.611   0.069  12.509  0.7618  1.8217  1.2851
  161DOPC   H4S19430   2.764  -0.033  12.488 -1.2556 -0.9487  1.0859
  161DOPC   C2519431   2.717   0.101  12.323 -0.1414 -0.6944 -0.2795
  161DOPC   H5R19432   2.659   0.191  12.294  0.0408 -0.4679  0.0617
  161DOPC   H5S19433   2.658   0.019  12.275 -1.2110 -0.5432  0.7338
  161DOPC   C2619434   2.859   0.085  12.255 -0.3040  0.1689 -0.0499
  161DOPC   H6R19435   2.896  -0.004  12.310 -1.7652 -0.5967 -0.2510
  161DOPC   H6S19436   2.926   0.171  12.277 -0.9661  0.6520  0.1401
  161DOPC   C2719437   2.859   0.059  12.104 -0.4315 -0.1992 -0.1541
  161DOPC   H7R19438   2.785  -0.019  12.072 -0.4217  0.1608 -1.1064
  161DOPC   H7S19439   2.958   0.017  12.076  0.1429  1.5136 -0.8264
  161DOPC   C2819440   2.836   0.187  12.026 -0.1101  0.0170  0.6399
  161DOPC   H8R19441   2.742   0.232  12.065 -0.3736 -1.6117  1.9973
  161DOPC   H8S19442   2.802   0.157  11.924 -1.3160 -0.2947  1.1207
  161DOPC   C2919443   2.964   0.268  12.034 -0.3458  0.1454  0.4139
  161DOPC   H9R19444   2.993   0.297  12.136 -1.6129  0.8208  0.6103
  161DOPC  C21019445   3.033   0.311  11.933  0.1007 -0.3036  0.0608
  161DOPC  H10R19446   3.121   0.374  11.953 -1.0136  1.2852  0.2079
  161DOPC  C21119447   3.002   0.298  11.783 -0.0534 -0.3696  0.6383
  161DOPC  H11R19448   2.959   0.395  11.751  2.5177  0.7928  0.4733
  161DOPC  H11S19449   2.933   0.214  11.758  0.0145  0.2548 -1.9233
  161DOPC  C21219450   3.137   0.291  11.699 -0.3999 -0.1424  0.4988
  161DOPC  H12R19451   3.166   0.184  11.699 -0.8950 -0.2786  0.7619
  161DOPC  H12S19452   3.217   0.358  11.737  1.6684 -1.2864 -1.5801
  161DOPC  C21319453   3.119   0.346  11.549 -0.1114 -0.3510 -0.5555
  161DOPC  H13R19454   3.021   0.302  11.523 -0.7810 -1.7954  3.6131
  161DOPC  H13S19455   3.202   0.306  11.486  1.1502  1.0539  0.1412
  161DOPC  C21419456   3.095   0.493  11.519  0.5056 -0.0448 -0.5040
  161DOPC  H14R19457   3.177   0.559  11.553 -0.2400  1.3067 -1.1895
  161DOPC  H14S19458   3.004   0.526  11.574  0.2616 -1.6171  0.0931
  161DOPC  C21519459   3.079   0.520  11.369  0.1389 -0.7075  0.3006
  161DOPC  H15R19460   2.970   0.527  11.349 -0.0824 -1.9988  0.8940
  161DOPC  H15S19461   3.114   0.434  11.307 -0.0250 -0.6653  0.1498
  161DOPC  C21619462   3.154   0.648  11.324  0.9001 -0.4071  0.4203
  161DOPC  H16R19463   3.256   0.639  11.368  0.5159  0.2070  1.4646
  161DOPC  H16S19464   3.120   0.742  11.373  0.2964 -0.1986 -0.3783
  161DOPC  C21719465   3.140   0.663  11.175  0.3901 -0.4297  0.0545
  161DOPC  H17R19466   3.032   0.663  11.147  1.0994 -1.3349 -3.0702
  161DOPC  H17S19467   3.189   0.575  11.128  2.3997  1.9737 -2.7308
  161DOPC  C21819468   3.207   0.788  11.125 -0.7373 -0.4054  0.3992
  161DOPC  H18R19469   3.318   0.786  11.131 -0.7048 -1.8183 -0.1532
  161DOPC  H18S19470   3.183   0.874  11.191  0.7867  0.6040 -0.3019
  161DOPC  H18T19471   3.176   0.814  11.021  4.9532 -0.1302 -1.5710
  161DOPC   C3319472   3.363   0.306  12.546  0.4436  0.0341 -0.5571
  161DOPC   H3X19473   3.449   0.326  12.613  0.1112  0.3224 -0.2106
  161DOPC   H3Y19474   3.327   0.409  12.523 -0.4157 -0.0252  0.4312
  161DOPC   C3419475   3.402   0.213  12.435 -0.4587  0.5041 -0.1224
  161DOPC   H4X19476   3.319   0.197  12.362 -0.3215 -0.1209 -0.1528
  161DOPC   H4Y19477   3.432   0.114  12.476 -0.6742  0.6110  0.2987
  161DOPC   C3519478   3.508   0.279  12.345 -0.4062 -0.5740 -0.3453
  161DOPC   H5X19479   3.527   0.227  12.248  0.6855 -0.9472  0.0482
  161DOPC   H5Y19480   3.604   0.275  12.401 -0.4322 -3.0651 -0.3502
  161DOPC   C3619481   3.487   0.424  12.305 -0.3074  0.6731 -0.2006
  161DOPC   H6X19482   3.412   0.416  12.223 -0.4502 -0.0955 -0.0021
  161DOPC   H6Y19483   3.467   0.485  12.396  1.0275  1.2534 -0.2867
  161DOPC   C3719484   3.619   0.477  12.246  0.4122  0.7795 -0.6573
  161DOPC   H7X19485   3.614   0.588  12.250  0.2307  0.7218  1.2728
  161DOPC   H7Y19486   3.695   0.439  12.318 -0.3073 -0.9974 -0.7867
  161DOPC   C3819487   3.657   0.424  12.101  0.2607 -0.7808 -0.7950
  161DOPC   H8X19488   3.675   0.315  12.116 -0.9505 -0.7162  1.7443
  161DOPC   H8Y19489   3.761   0.462  12.096  0.1105 -0.4177 -1.1920
  161DOPC   C3919490   3.563   0.468  11.995  0.0063 -0.1829  0.5961
  161DOPC   H9X19491   3.565   0.578  11.992  2.3873 -0.2012 -1.0424
  161DOPC  C31019492   3.482   0.401  11.910  0.1577  0.5720 -0.7763
  161DOPC  H10X19493   3.429   0.456  11.831 -0.7350 -1.9744 -2.0525
  161DOPC  C31119494   3.480   0.254  11.910  0.0933  1.3912  0.1827
  161DOPC  H11X19495   3.378   0.211  11.905  0.8831 -0.5958  0.1871
  161DOPC  H11Y19496   3.528   0.211  12.000 -0.0012 -0.5681 -0.6558
  161DOPC  C31219497   3.552   0.196  11.793  0.1263  0.0806 -0.5559
  161DOPC  H12X19498   3.584   0.096  11.829  0.8878  0.5789  0.1985
  161DOPC  H12Y19499   3.641   0.259  11.770 -0.2255  1.3100  1.2251
  161DOPC  C31319500   3.464   0.183  11.670  1.2828 -0.3149  0.4820
  161DOPC  H13X19501   3.396   0.096  11.684  0.9806 -0.2363 -0.4495
  161DOPC  H13Y19502   3.408   0.278  11.662  0.2748 -0.8876  0.6094
  161DOPC  C31419503   3.544   0.171  11.547 -0.4569  0.2857 -0.1794
  161DOPC  H14X19504   3.594   0.268  11.528 -2.6680  1.6733  0.7318
  161DOPC  H14Y19505   3.614   0.086  11.558 -1.4967 -0.5003  0.5485
  161DOPC  C31519506   3.451   0.140  11.427 -0.4473 -0.4072  0.2103
  161DOPC  H15X19507   3.510   0.133  11.333  0.1403 -3.5104  0.6918
  161DOPC  H15Y19508   3.379   0.223  11.416  1.0376  0.8302 -0.4991
  161DOPC  C31619509   3.367   0.012  11.438 -0.2075 -0.1245  0.3915
  161DOPC  H16X19510   3.437  -0.065  11.477 -1.3204 -0.6116  1.5238
  161DOPC  H16Y19511   3.288   0.027  11.515  1.2481 -1.2782  2.1928
  161DOPC  C31719512   3.299  -0.037  11.314 -0.7041  0.0684  0.3622
  161DOPC  H17X19513   3.379  -0.039  11.236 -0.3073  1.6052  0.6970
  161DOPC  H17Y19514   3.264  -0.142  11.322 -2.4436  0.4838 -1.0580
  161DOPC  C31819515   3.186   0.045  11.267 -0.0757 -0.0662 -0.2148
  161DOPC  H18X19516   3.128  -0.004  11.186 -1.3502  0.3165  0.4322
  161DOPC  H18Y19517   3.115   0.050  11.352  1.8166 -0.2695  1.4646
  161DOPC  H18Z19518   3.231   0.143  11.240  0.5606 -1.1814 -3.6919
  162DOPC     N19519   0.554   0.521  13.390 -0.4945  0.1509 -0.5059
  162DOPC   C1219520   0.688   0.453  13.417 -0.4762  0.0240 -0.1851
  162DOPC  H12A19521   0.757   0.530  13.447 -0.3603 -0.7341  1.6092
  162DOPC  H12B19522   0.727   0.414  13.324  1.6503  0.8218  0.3211
  162DOPC   C1319523   0.455   0.418  13.362 -0.0387 -0.0831  0.0481
  162DOPC  H13A19524   0.482   0.383  13.263  1.6257  3.5266 -0.9581
  162DOPC  H13B19525   0.454   0.338  13.434 -2.8465  0.2784  0.5232
  162DOPC  H13C19526   0.352   0.448  13.351 -0.2400 -1.0752 -1.0131
  162DOPC   C1419527   0.568   0.620  13.282 -0.2186 -0.2985 -0.1630
  162DOPC  H14A19528   0.643   0.689  13.317  0.4100 -1.2509  0.3970
  162DOPC  H14B19529   0.603   0.570  13.193 -2.2639 -0.3907 -0.9686
  162DOPC  H14C19530   0.474   0.669  13.258  0.1383  0.2326 -0.5016
  162DOPC   C1519531   0.508   0.593  13.514 -0.0160 -0.1248  0.3988
  162DOPC  H15A19532   0.568   0.681  13.533  1.7474 -0.9660 -1.0681
  162DOPC  H15B19533   0.530   0.533  13.602 -1.0623 -3.2987 -1.3444
  162DOPC  H15C19534   0.402   0.616  13.510  0.0596  0.5385  1.5780
  162DOPC   C1119535   0.711   0.344  13.531  0.0033  0.7654  0.3633
  162DOPC  H11A19536   0.820   0.332  13.544  0.0545 -0.1065 -0.7029
  162DOPC  H11B19537   0.667   0.379  13.627 -1.5176  0.3876 -0.1628
  162DOPC     P19538   0.683   0.124  13.387 -0.4864 -0.0125 -0.3477
  162DOPC   O1319539   0.627  -0.011  13.413  0.0648  0.0780 -0.2543
  162DOPC   O1419540   0.826   0.131  13.359 -0.2493 -0.6491 -1.2034
  162DOPC   O1219541   0.639   0.211  13.510 -1.0154 -0.2250  0.3661
  162DOPC   O1119542   0.606   0.194  13.271 -0.3888 -0.1884 -0.4523
  162DOPC    C119543   0.514   0.134  13.182 -0.5827 -0.4428  0.2523
  162DOPC    HA19544   0.482   0.212  13.109 -1.6407 -1.1314 -0.0418
  162DOPC    HB19545   0.422   0.108  13.239 -1.7055 -0.6942 -1.5864
  162DOPC    C219546   0.561   0.018  13.093 -0.1647  0.0843 -0.0894
  162DOPC    HS19547   0.558  -0.073  13.157  2.6009  0.7361  1.1136
  162DOPC   O2119548   0.699   0.038  13.056 -0.1018  0.3955 -0.5907
  162DOPC   C2119549   0.769  -0.047  12.983 -0.3863  0.1692 -0.7074
  162DOPC   O2219550   0.724  -0.156  12.946 -0.5773  0.4559  0.8928
  162DOPC   C2219551   0.910  -0.004  12.955 -0.5179 -0.2641 -0.2889
  162DOPC   H2R19552   0.968  -0.094  12.924 -1.0147 -0.9401  0.6750
  162DOPC   H2S19553   0.951   0.043  13.047  1.0364  0.8056 -1.4813
  162DOPC    C319554   0.469  -0.008  12.974 -0.3340 -0.6695  0.4800
  162DOPC    HX19555   0.368  -0.043  13.006 -0.4917 -2.5110 -1.7990
  162DOPC    HY19556   0.509  -0.082  12.901 -1.9100  0.7840 -1.9812
  162DOPC   O3119557   0.455   0.112  12.889  0.2238  0.1909  0.6398
  162DOPC   C3119558   0.353   0.113  12.801 -0.5207 -0.0227  0.6929
  162DOPC   O3219559   0.270   0.026  12.797  0.5087 -0.3041 -0.3065
  162DOPC   C3219560   0.357   0.230  12.706  0.3394 -0.1600 -0.2587
  162DOPC   H2X19561   0.289   0.212  12.620 -0.8077 -0.0111  0.6004
  162DOPC   H2Y19562   0.308   0.314  12.759 -0.8306 -0.6119 -0.6032
  162DOPC   C2319563   0.928   0.104  12.839  0.3009  0.6964  0.3848
  162DOPC   H3R19564   1.034   0.137  12.836  0.6024 -0.2350  0.4161
  162DOPC   H3S19565   0.884   0.197  12.880 -1.3462  1.4592 -2.8051
  162DOPC   C2419566   0.862   0.080  12.706 -0.6122  0.2942  0.3127
  162DOPC   H4R19567   0.754   0.090  12.729 -0.2307  0.2668  2.2452
  162DOPC   H4S19568   0.880  -0.020  12.659 -0.8413 -0.7064  2.2408
  162DOPC   C2519569   0.908   0.187  12.605  0.0363  0.2858  0.3288
  162DOPC   H5R19570   1.019   0.190  12.609  0.0024  2.8834  0.9536
  162DOPC   H5S19571   0.875   0.283  12.648  0.0015  0.0230  0.8887
  162DOPC   C2619572   0.848   0.174  12.466  0.3922  0.1475 -0.4221
  162DOPC   H6R19573   0.738   0.177  12.450 -0.0579 -1.1135  2.0478
  162DOPC   H6S19574   0.849   0.068  12.432  1.0834 -0.3103  0.9531
  162DOPC   C2719575   0.925   0.260  12.370 -0.3891  0.6886 -0.1156
  162DOPC   H7R19576   1.032   0.232  12.365 -0.7183 -0.5713 -0.6049
  162DOPC   H7S19577   0.913   0.363  12.409 -3.7735 -0.2787  1.8019
  162DOPC   C2819578   0.863   0.263  12.230 -0.1204 -0.6112 -0.5815
  162DOPC   H8R19579   0.909   0.344  12.169  0.6421  1.1875  2.1677
  162DOPC   H8S19580   0.763   0.304  12.254  0.6727  0.9036  0.2855
  162DOPC   C2919581   0.872   0.128  12.155  1.0057  0.3232 -0.3250
  162DOPC   H9R19582   0.978   0.101  12.159  0.6683 -1.0021  0.2576
  162DOPC  C21019583   0.775   0.049  12.108  0.3710  0.1495  0.6663
  162DOPC  H10R19584   0.813  -0.033  12.045 -2.2507 -0.4287 -0.3134
  162DOPC  C21119585   0.625   0.082  12.104 -0.8169  0.0953  0.4346
  162DOPC  H11R19586   0.618   0.180  12.157 -1.4556  0.2792  0.0260
  162DOPC  H11S19587   0.565   0.003  12.153 -0.9155 -0.9337 -1.2586
  162DOPC  C21219588   0.567   0.084  11.963  0.1753 -0.2106  0.3469
  162DOPC  H12R19589   0.457   0.092  11.971  0.0578  1.3611 -1.8901
  162DOPC  H12S19590   0.581  -0.010  11.905 -1.7897  0.0279 -0.6053
  162DOPC  C21319591   0.611   0.196  11.867 -0.5008  0.0043  0.1290
  162DOPC  H13R19592   0.713   0.169  11.832 -0.1118  0.2190  1.0517
  162DOPC  H13S19593   0.614   0.293  11.922  0.8970 -1.3589  2.6796
  162DOPC  C21419594   0.526   0.201  11.733 -0.5520  0.0062 -0.5095
  162DOPC  H14R19595   0.424   0.242  11.749  0.9399  3.3112  1.7908
  162DOPC  H14S19596   0.532   0.102  11.684  0.7348 -1.2380  1.9441
  162DOPC  C21519597   0.585   0.298  11.623 -0.3136  0.7345  0.1703
  162DOPC  H15R19598   0.691   0.276  11.599 -0.1880  1.3307  0.1628
  162DOPC  H15S19599   0.573   0.398  11.669  0.0934  1.2060 -0.7329
  162DOPC  C21619600   0.505   0.284  11.494  0.0524  0.0722 -0.7747
  162DOPC  H16R19601   0.396   0.293  11.510  0.3213 -0.2658  1.5723
  162DOPC  H16S19602   0.528   0.182  11.454 -1.7519 -1.5588  2.0298
  162DOPC  C21719603   0.552   0.389  11.389 -0.3010 -0.2626  0.0138
  162DOPC  H17R19604   0.511   0.352  11.292 -0.7259  1.0287 -0.3157
  162DOPC  H17S19605   0.663   0.391  11.392 -0.3360  0.2428  1.4037
  162DOPC  C21819606   0.495   0.528  11.418 -0.5571 -0.0275  0.0174
  162DOPC  H18R19607   0.506   0.605  11.339  1.9609  0.1000  0.4027
  162DOPC  H18S19608   0.543   0.576  11.506  2.3707 -0.4409 -1.2242
  162DOPC  H18T19609   0.386   0.513  11.432 -0.3842 -1.7296 -0.1668
  162DOPC   C3319610   0.493   0.281  12.678  0.0147  0.1423 -0.1935
  162DOPC   H3X19611   0.554   0.199  12.634 -1.6776 -1.4094  0.2440
  162DOPC   H3Y19612   0.540   0.332  12.765 -1.8999  3.1365 -0.7460
  162DOPC   C3419613   0.510   0.393  12.573 -0.0715  0.0502 -0.1668
  162DOPC   H4X19614   0.612   0.438  12.580 -0.5398  1.0299  0.6174
  162DOPC   H4Y19615   0.442   0.479  12.591  0.0064  0.4586 -1.6921
  162DOPC   C3519616   0.476   0.346  12.432 -0.3351 -0.0138  0.4074
  162DOPC   H5X19617   0.376   0.297  12.433 -0.0440 -0.7171 -1.2554
  162DOPC   H5Y19618   0.549   0.267  12.402  0.5820  0.1898  1.9702
  162DOPC   C3619619   0.472   0.461  12.332 -0.1822 -0.9014  0.1351
  162DOPC   H6X19620   0.380   0.521  12.352  0.3461 -0.6508  2.0594
  162DOPC   H6Y19621   0.562   0.524  12.349 -0.0556 -1.0398 -0.0230
  162DOPC   C3719622   0.474   0.421  12.186 -0.4271 -0.5926  0.1396
  162DOPC   H7X19623   0.580   0.408  12.157 -0.0889  1.0660  0.5320
  162DOPC   H7Y19624   0.432   0.318  12.182 -0.2806 -0.6538  0.1707
  162DOPC   C3819625   0.420   0.523  12.084  0.4213  0.0838 -0.1650
  162DOPC   H8X19626   0.505   0.586  12.048  0.5287 -0.0861 -0.2119
  162DOPC   H8Y19627   0.348   0.594  12.129  0.0857 -0.6638  0.5011
  162DOPC   C3919628   0.349   0.450  11.974 -0.3587 -0.4844  0.1492
  162DOPC   H9X19629   0.366   0.341  11.967 -0.8368 -0.4729 -2.0004
  162DOPC  C31019630   0.275   0.505  11.874  0.2311  1.6109 -0.0852
  162DOPC  H10X19631   0.243   0.446  11.788  0.8876 -0.7346  1.1800
  162DOPC  C31119632   0.234   0.646  11.857  0.1889 -0.5391  0.1861
  162DOPC  H11X19633   0.271   0.693  11.763 -0.5861  1.0813  0.6598
  162DOPC  H11Y19634   0.275   0.705  11.942 -0.2660 -0.0368  0.0631
  162DOPC  C31219635   0.087   0.656  11.856 -0.1182 -0.6370  0.0732
  162DOPC  H12X19636   0.058   0.619  11.957  0.3013  0.3268  0.5634
  162DOPC  H12Y19637   0.035   0.590  11.784  1.2918 -2.0760  0.3059
  162DOPC  C31319638   0.035   0.803  11.838 -0.5405  0.3708  0.5680
  162DOPC  H13X19639   0.099   0.874  11.894  1.4738 -1.1331  0.3041
  162DOPC  H13Y19640   0.043   0.838  11.732 -0.1768 -2.2759 -0.3545
  162DOPC  C31419641  -0.118   0.813  11.869  0.1390 -0.5698  0.9349
  162DOPC  H14X19642  -0.170   0.738  11.806  0.9500 -0.4817  0.1477
  162DOPC  H14Y19643  -0.131   0.783  11.976 -1.6003  3.4154  2.0121
  162DOPC  C31519644  -0.168   0.959  11.862  0.0580  0.8182 -0.2688
  162DOPC  H15X19645  -0.105   1.041  11.904  0.0831  0.4158  0.4898
  162DOPC  H15Y19646  -0.263   0.974  11.917 -0.9284 -2.0186 -1.0304
  162DOPC  C31619647  -0.178   1.006  11.712  0.2368 -0.3343  0.2398
  162DOPC  H16X19648  -0.073   1.000  11.677 -0.0228 -2.1641 -0.3571
  162DOPC  H16Y19649  -0.241   0.942  11.646 -1.3730  1.5917 -0.1689
  162DOPC  C31719650  -0.240   1.147  11.688 -0.7644 -0.3390  0.1086
  162DOPC  H17X19651  -0.180   1.211  11.755 -2.9140 -0.4174  2.2598
  162DOPC  H17Y19652  -0.225   1.180  11.582 -1.0662 -3.0798 -0.8637
  162DOPC  C31819653  -0.393   1.153  11.721 -0.2081  0.0495 -0.1860
  162DOPC  H18X19654  -0.420   1.254  11.683 -1.5808 -0.4791 -0.6788
  162DOPC  H18Y19655  -0.460   1.102  11.649 -0.3239  2.2030 -1.7073
  162DOPC  H18Z19656  -0.419   1.142  11.828 -0.3651 -0.0280 -0.2316
  163DOPC     N19657   7.691   3.377  13.252 -0.0424 -0.0307 -0.1879
  163DOPC   C1219658   7.703   3.416  13.106 -0.5517  0.6216 -0.5117
  163DOPC  H12A19659   7.606   3.456  13.083 -0.7847  0.8693  0.8221
  163DOPC  H12B19660   7.727   3.333  13.040 -0.6503  0.6516 -0.5852
  163DOPC   C1319661   7.829   3.335  13.293  0.1575 -0.8330  0.4634
  163DOPC  H13A19662   7.834   3.319  13.400  0.9398 -0.4138  0.4950
  163DOPC  H13B19663   7.850   3.238  13.250 -0.2108 -0.8496  0.3207
  163DOPC  H13C19664   7.907   3.410  13.287 -1.1799  0.6552  1.0146
  163DOPC   C1419665   7.606   3.256  13.276  0.1737  0.3413  0.2607
  163DOPC  H14A19666   7.500   3.270  13.257 -0.3079 -1.7115  1.1712
  163DOPC  H14B19667   7.646   3.189  13.201  0.7539  0.5771  0.3547
  163DOPC  H14C19668   7.635   3.209  13.368 -0.9269  1.6268  1.3055
  163DOPC   C1519669   7.644   3.488  13.337  0.3429 -0.0400  0.3188
  163DOPC  H15A19670   7.539   3.510  13.331  0.2242 -0.7974 -0.5887
  163DOPC  H15B19671   7.697   3.580  13.319  1.5247 -0.9722 -1.1805
  163DOPC  H15C19672   7.656   3.473  13.444  0.4649  1.0456  0.4678
  163DOPC   C1119673   7.797   3.527  13.071 -0.2411  0.0926  0.2533
  163DOPC  H11A19674   7.766   3.590  12.985  0.7165 -0.8230 -0.8015
  163DOPC  H11B19675   7.805   3.596  13.157 -1.1731  0.1752  0.2824
  163DOPC     P19676   7.972   3.381  12.915 -0.2323 -0.2398  0.2675
  163DOPC   O1319677   7.868   3.273  12.900 -0.1716 -0.3074  0.1934
  163DOPC   O1419678   8.115   3.348  12.942  0.0513 -0.1427 -0.6203
  163DOPC   O1219679   7.924   3.474  13.040 -0.3228 -0.1769  0.1455
  163DOPC   O1119680   7.959   3.469  12.793 -0.5139 -0.0401  0.7610
  163DOPC    C119681   8.058   3.536  12.729 -0.6172  0.4555 -0.1902
  163DOPC    HA19682   8.113   3.473  12.657  0.4039 -0.3993  1.2717
  163DOPC    HB19683   8.126   3.573  12.808 -2.4802 -1.5211  2.5480
  163DOPC    C219684   8.015   3.652  12.644  0.6683 -0.6374 -0.1088
  163DOPC    HS19685   8.106   3.700  12.603 -0.0482 -0.0019 -1.0032
  163DOPC   O2119686   7.944   3.745  12.725  0.0304  0.2853  0.4960
  163DOPC   C2119687   8.014   3.815  12.807 -0.2753  0.7369 -0.6556
  163DOPC   O2219688   8.138   3.813  12.810 -0.0342 -0.0052 -0.2044
  163DOPC   C2219689   7.921   3.903  12.892 -0.0708 -0.0354 -0.4244
  163DOPC   H2R19690   7.893   3.841  12.980  0.6013  1.3964  0.8501
  163DOPC   H2S19691   7.830   3.925  12.834 -0.9130 -1.4195  0.3208
  163DOPC    C319692   7.925   3.592  12.535 -0.3758 -0.8219 -0.5167
  163DOPC    HX19693   7.839   3.548  12.590 -0.0297 -0.2987  0.4782
  163DOPC    HY19694   7.988   3.516  12.484  0.2705 -0.4080 -0.3525
  163DOPC   O3119695   7.878   3.694  12.441  0.8213  0.5446  0.1509
  163DOPC   C3119696   7.760   3.755  12.468 -0.0822 -0.4535 -0.1466
  163DOPC   O3219697   7.682   3.707  12.549  0.4124  0.0207 -0.2416
  163DOPC   C3219698   7.741   3.888  12.393 -0.2119  0.1320  1.3862
  163DOPC   H2X19699   7.764   3.962  12.472 -1.1970 -0.7144  2.5056
  163DOPC   H2Y19700   7.814   3.886  12.309  0.0033 -0.1705  1.5757
  163DOPC   C2319701   7.984   4.037  12.958 -0.0254  0.4337  0.3269
  163DOPC   H3R19702   8.077   4.016  13.015  0.4930  3.4174  0.7206
  163DOPC   H3S19703   7.903   4.068  13.027 -0.4074  0.0332  0.0681
  163DOPC   C2419704   8.020   4.150  12.859 -0.1262 -0.1248 -0.3236
  163DOPC   H4R19705   8.043   4.119  12.755  1.0660  0.2474 -0.1882
  163DOPC   H4S19706   8.104   4.208  12.902  1.7842 -4.1008  1.8042
  163DOPC   C2519707   7.903   4.251  12.846 -0.2816  0.8573 -0.1206
  163DOPC   H5R19708   7.873   4.281  12.949  0.7598  1.4937  0.0093
  163DOPC   H5S19709   7.815   4.200  12.801  1.0674 -0.7647 -1.0678
  163DOPC   C2619710   7.930   4.376  12.766 -0.4258 -0.6214  0.2257
  163DOPC   H6R19711   7.836   4.434  12.758  0.0574  0.1805  0.2409
  163DOPC   H6S19712   7.974   4.340  12.670  1.6277  0.5903  0.6588
  163DOPC   C2719713   8.041   4.475  12.804  0.5460  0.2560 -0.3350
  163DOPC   H7R19714   8.136   4.419  12.809  0.5026  0.2263  0.3030
  163DOPC   H7S19715   8.033   4.517  12.907 -0.0694  2.7208 -1.2934
  163DOPC   C2819716   8.034   4.592  12.710  0.2648  0.3111  0.0279
  163DOPC   H8R19717   7.933   4.637  12.713  0.1872  0.4288 -2.3796
  163DOPC   H8S19718   8.032   4.556  12.605 -1.7905  1.3611 -0.3404
  163DOPC   C2919719   8.139   4.704  12.735  0.5597  0.3566 -0.3212
  163DOPC   H9R19720   8.156   4.746  12.835  1.1577 -0.7608  0.0661
  163DOPC  C21019721   8.217   4.756  12.633  0.3666 -0.6700 -0.7664
  163DOPC  H10R19722   8.285   4.838  12.660 -0.7202 -0.2806  0.9291
  163DOPC  C21119723   8.212   4.724  12.485 -0.0121  0.1298  0.7909
  163DOPC  H11R19724   8.178   4.620  12.467  0.0631  0.2803 -0.2750
  163DOPC  H11S19725   8.316   4.724  12.447 -0.4183 -0.2606 -0.3884
  163DOPC  C21219726   8.145   4.831  12.391  0.6294 -0.1622 -0.2780
  163DOPC  H12R19727   8.201   4.925  12.411  1.3725  0.1683 -3.4951
  163DOPC  H12S19728   8.037   4.839  12.413  0.9601  1.7762  0.8610
  163DOPC  C21319729   8.157   4.788  12.247  0.3080  0.1110  0.0851
  163DOPC  H13R19730   8.120   4.683  12.240 -0.2013  0.2785  0.2343
  163DOPC  H13S19731   8.264   4.776  12.217  0.9132 -0.1044  2.1741
  163DOPC  C21419732   8.085   4.887  12.157 -0.1754 -0.2965 -0.5056
  163DOPC  H14R19733   8.136   4.985  12.148 -0.4619  0.2564  2.6739
  163DOPC  H14S19734   7.989   4.917  12.204 -0.3780 -0.3278 -0.8980
  163DOPC  C21519735   8.075   4.824  12.025 -0.0017  0.0728 -0.5721
  163DOPC  H15R19736   8.010   4.736  12.040  0.5188 -0.6358 -2.2712
  163DOPC  H15S19737   8.173   4.794  11.982 -1.3309 -4.0026 -1.1599
  163DOPC  C21619738   8.020   4.919  11.926 -0.1005  0.1002 -0.1422
  163DOPC  H16R19739   8.073   5.016  11.937 -0.6496  0.7909 -2.8692
  163DOPC  H16S19740   7.918   4.955  11.951 -0.1634  0.6052 -1.0942
  163DOPC  C21719741   8.018   4.861  11.782  0.0717 -0.5123 -0.5496
  163DOPC  H17R19742   7.980   4.756  11.776  2.1399 -1.2670 -1.6075
  163DOPC  H17S19743   8.124   4.840  11.756  0.7776 -0.2060  1.8918
  163DOPC  C21819744   7.941   4.943  11.680 -0.7389 -0.6283 -0.3387
  163DOPC  H18R19745   7.842   4.965  11.725  0.4043  2.8558  0.7735
  163DOPC  H18S19746   7.940   4.890  11.582  2.5516 -0.5860 -0.5079
  163DOPC  H18T19747   7.989   5.043  11.675 -1.5110 -0.1694  1.0780
  163DOPC   C3319748   7.597   3.919  12.350  0.5352  0.3485  0.0320
  163DOPC   H3X19749   7.536   3.943  12.439 -0.4661 -1.1669 -0.2210
  163DOPC   H3Y19750   7.561   3.830  12.295  1.6408 -2.3993  3.4082
  163DOPC   C3419751   7.595   4.045  12.262 -0.4656  0.2568  0.6980
  163DOPC   H4X19752   7.632   4.017  12.160  0.1089  0.2878  0.8937
  163DOPC   H4Y19753   7.656   4.125  12.308  0.9694  0.2232 -1.0217
  163DOPC   C3519754   7.449   4.090  12.228  0.3674 -0.7036  0.3824
  163DOPC   H5X19755   7.407   4.140  12.318 -1.0829 -1.5747  0.2191
  163DOPC   H5Y19756   7.383   4.005  12.202 -0.2842 -0.0745 -0.0317
  163DOPC   C3619757   7.443   4.194  12.114 -0.3651 -0.3906  0.0235
  163DOPC   H6X19758   7.518   4.271  12.144 -0.0823 -2.0242  4.1909
  163DOPC   H6Y19759   7.486   4.146  12.024  0.1881 -1.3536  0.7855
  163DOPC   C3719760   7.307   4.253  12.097  0.0384 -0.3275 -0.0285
  163DOPC   H7X19761   7.236   4.173  12.070 -0.5187 -0.1419  0.8555
  163DOPC   H7Y19762   7.281   4.290  12.199  0.9675  1.1366 -0.2886
  163DOPC   C3819763   7.297   4.368  11.995  0.3554  0.9377 -0.4619
  163DOPC   H8X19764   7.360   4.454  12.029  1.1142 -0.0032  0.5633
  163DOPC   H8Y19765   7.191   4.401  11.995 -0.1528 -0.6077 -1.7649
  163DOPC   C3919766   7.335   4.339  11.852  0.6896 -0.0161  0.7492
  163DOPC   H9X19767   7.401   4.253  11.840 -0.1326 -0.5552 -0.0354
  163DOPC  C31019768   7.278   4.378  11.735  0.9997  0.0757 -0.4573
  163DOPC  H10X19769   7.302   4.324  11.642 -0.4299 -1.6443  0.1176
  163DOPC  C31119770   7.180   4.494  11.720 -0.3767 -0.2902  0.0308
  163DOPC  H11X19771   7.218   4.577  11.783 -1.8614  0.9186 -0.5984
  163DOPC  H11Y19772   7.078   4.457  11.746  0.0795 -0.7444  1.2630
  163DOPC  C31219773   7.177   4.567  11.582 -0.5294  0.2356  0.0904
  163DOPC  H12X19774   7.115   4.657  11.603 -2.7946 -1.3609  0.6546
  163DOPC  H12Y19775   7.128   4.498  11.511  0.0225 -0.3162  0.2363
  163DOPC  C31319776   7.314   4.606  11.518  0.6240 -0.3327 -0.3362
  163DOPC  H13X19777   7.380   4.517  11.517  1.4381  0.2526  0.3389
  163DOPC  H13Y19778   7.271   4.635  11.419 -1.5248 -1.0695  0.3124
  163DOPC  C31419779   7.386   4.724  11.590 -0.2227 -0.6996 -0.3100
  163DOPC  H14X19780   7.334   4.823  11.592 -1.3035 -1.2627  1.0151
  163DOPC  H14Y19781   7.394   4.689  11.695  2.1362  1.3263  0.2751
  163DOPC  C31519782   7.524   4.738  11.530 -0.1829 -0.2986  0.5376
  163DOPC  H15X19783   7.569   4.637  11.525  1.5170  0.4508 -0.6023
  163DOPC  H15Y19784   7.580   4.815  11.588 -1.3448  0.2055  1.0134
  163DOPC  C31619785   7.528   4.780  11.379 -0.1035 -0.7413 -0.0268
  163DOPC  H16X19786   7.479   4.701  11.318 -1.7967 -0.1669  0.5290
  163DOPC  H16Y19787   7.461   4.869  11.378  0.9046  0.0397 -0.0609
  163DOPC  C31719788   7.665   4.821  11.318  0.5454  0.3759 -0.2321
  163DOPC  H17X19789   7.645   4.868  11.220  1.5599  0.8757 -0.2095
  163DOPC  H17Y19790   7.715   4.906  11.370  1.5464  1.4369 -2.8050
  163DOPC  C31819791   7.772   4.707  11.313  0.3182 -0.0833  0.0905
  163DOPC  H18X19792   7.860   4.739  11.254 -1.6187 -1.0363 -3.5993
  163DOPC  H18Y19793   7.799   4.670  11.414  2.4327  0.8726 -0.0646
  163DOPC  H18Z19794   7.728   4.625  11.253 -1.2610  2.7604 -2.9459
  164DOPC     N19795   7.421   1.851  13.221 -0.4539  0.3011 -0.2539
  164DOPC   C1219796   7.416   1.971  13.127 -0.3640  0.2864  0.1545
  164DOPC  H12A19797   7.342   1.956  13.050  1.1795 -0.2634 -1.2721
  164DOPC  H12B19798   7.508   1.963  13.072  0.4030 -0.3190  1.4823
  164DOPC   C1319799   7.531   1.872  13.324 -0.1921 -0.0565 -0.4574
  164DOPC  H13A19800   7.630   1.849  13.285  0.5509  2.6244 -0.3286
  164DOPC  H13B19801   7.531   1.972  13.365  1.7078  0.7930 -2.2967
  164DOPC  H13C19802   7.512   1.805  13.406 -0.2818  1.6373  0.9564
  164DOPC   C1419803   7.432   1.726  13.142  0.0854  0.3732 -1.2442
  164DOPC  H14A19804   7.533   1.720  13.106  0.7744  3.7480 -0.1851
  164DOPC  H14B19805   7.402   1.644  13.206 -0.6343  2.0740  0.7291
  164DOPC  H14C19806   7.359   1.725  13.062  0.2915  0.8604 -1.4432
  164DOPC   C1519807   7.289   1.850  13.296 -0.8932 -0.4468  0.2548
  164DOPC  H15A19808   7.306   1.918  13.378 -0.3718 -0.2800  0.0079
  164DOPC  H15B19809   7.254   1.759  13.345 -0.9523  0.2823  1.6215
  164DOPC  H15C19810   7.209   1.879  13.229  0.1825  0.3093 -0.7170
  164DOPC   C1119811   7.393   2.110  13.183 -0.2447  0.2663  0.5818
  164DOPC  H11A19812   7.431   2.111  13.287 -1.2000 -2.3751  1.0332
  164DOPC  H11B19813   7.442   2.190  13.123  1.7560  0.1317  1.9133
  164DOPC     P19814   7.152   2.179  13.075  0.2195  0.5213 -0.3128
  164DOPC   O1319815   7.158   2.323  13.051 -0.0714 -0.4669  0.0502
  164DOPC   O1419816   7.015   2.123  13.109 -0.0976 -0.3087 -0.5879
  164DOPC   O1219817   7.253   2.136  13.191 -0.3955  0.5603 -0.0412
  164DOPC   O1119818   7.204   2.086  12.953 -0.6052 -0.4937 -0.0916
  164DOPC    C119819   7.115   2.032  12.861 -0.0126 -0.7037 -0.0363
  164DOPC    HA19820   7.072   2.114  12.801 -1.2310  0.2585  2.0213
  164DOPC    HB19821   7.022   1.992  12.908 -0.6668  1.6859  0.8170
  164DOPC    C219822   7.185   1.917  12.783 -0.3941 -1.0766 -0.5208
  164DOPC    HS19823   7.228   1.846  12.857  0.2966 -2.2447 -2.0008
  164DOPC   O2119824   7.291   1.969  12.698 -0.1676  0.5684 -0.2590
  164DOPC   C2119825   7.419   1.939  12.725  0.1215 -0.9217 -0.2546
  164DOPC   O2219826   7.458   1.891  12.830  0.3276 -0.3629 -0.1784
  164DOPC   C2219827   7.508   1.973  12.609 -0.3091  0.0201  0.4347
  164DOPC   H2R19828   7.611   1.949  12.644 -0.7809 -1.5632  0.8027
  164DOPC   H2S19829   7.507   2.084  12.599  3.3911  0.2312  0.8718
  164DOPC    C319830   7.085   1.839  12.688 -0.0487  0.0140 -0.4932
  164DOPC    HX19831   7.045   1.914  12.617 -0.2438 -0.0084 -0.4055
  164DOPC    HY19832   6.996   1.810  12.748  0.2194  0.9989  0.4093
  164DOPC   O3119833   7.141   1.731  12.610 -0.8371 -0.5799  0.3867
  164DOPC   C3119834   7.173   1.621  12.678  0.1065  0.4945 -0.5774
  164DOPC   O3219835   7.143   1.608  12.797 -0.7289  0.2315  0.5158
  164DOPC   C3219836   7.239   1.521  12.583 -0.6461  0.1649 -0.8229
  164DOPC   H2X19837   7.234   1.553  12.477  0.4944 -1.7272 -1.4810
  164DOPC   H2Y19838   7.346   1.516  12.612 -1.5248 -2.4595  2.5773
  164DOPC   C2319839   7.469   1.906  12.470 -0.0836 -0.3523  0.2948
  164DOPC   H3R19840   7.359   1.910  12.461  0.0645  0.9443 -1.6384
  164DOPC   H3S19841   7.504   1.801  12.473  1.8288  0.2243 -0.1598
  164DOPC   C2419842   7.530   1.980  12.345 -0.1536  0.3666 -0.7656
  164DOPC   H4R19843   7.637   1.997  12.367 -0.2955  0.9437 -0.5001
  164DOPC   H4S19844   7.486   2.082  12.340 -0.5264  0.3111  0.9546
  164DOPC   C2519845   7.512   1.914  12.209 -0.4142 -0.8357 -0.2431
  164DOPC   H5R19846   7.403   1.903  12.188 -0.8294 -0.4620  1.5194
  164DOPC   H5S19847   7.558   1.814  12.218  1.6611 -0.0526 -1.3803
  164DOPC   C2619848   7.578   1.986  12.092  0.6855  0.5838  0.2277
  164DOPC   H6R19849   7.688   1.972  12.097  0.4710 -3.5193 -2.0350
  164DOPC   H6S19850   7.549   2.093  12.090  1.6387  0.8839  1.2178
  164DOPC   C2719851   7.532   1.928  11.957 -0.2016  0.2288  0.0389
  164DOPC   H7R19852   7.421   1.928  11.948 -0.1018  0.9159 -1.3852
  164DOPC   H7S19853   7.571   1.824  11.958  0.7690  0.5828 -0.1747
  164DOPC   C2819854   7.608   1.993  11.835  0.0425 -0.7792 -0.2738
  164DOPC   H8R19855   7.569   1.922  11.759 -1.3457  1.1440 -1.4636
  164DOPC   H8S19856   7.718   1.982  11.841  0.2701  0.4707 -1.6436
  164DOPC   C2919857   7.577   2.143  11.818 -0.4411 -0.6111 -0.3845
  164DOPC   H9R19858   7.471   2.171  11.821  0.0420  1.4331 -0.7132
  164DOPC  C21019859   7.664   2.242  11.810 -0.6047  0.3733  1.1100
  164DOPC  H10R19860   7.634   2.346  11.828 -0.7460  1.0682 -2.3876
  164DOPC  C21119861   7.811   2.212  11.784  1.0913 -0.0387  0.4089
  164DOPC  H11R19862   7.825   2.117  11.729 -1.4689 -0.5976  0.5838
  164DOPC  H11S19863   7.855   2.200  11.886 -0.8793 -1.5738  1.1378
  164DOPC  C21219864   7.896   2.320  11.707 -0.0539  0.3619 -0.6687
  164DOPC  H12R19865   7.995   2.269  11.707 -1.0267 -1.6285 -0.0003
  164DOPC  H12S19866   7.902   2.407  11.777 -1.3271 -1.1460  1.4146
  164DOPC  C21319867   7.856   2.360  11.566  0.6409  0.3693  0.3296
  164DOPC  H13R19868   7.746   2.376  11.556  0.4004 -1.2904 -0.0961
  164DOPC  H13S19869   7.890   2.273  11.505  0.6406 -0.0231  0.8887
  164DOPC  C21419870   7.920   2.488  11.505 -0.8031  0.6335 -0.6959
  164DOPC  H14R19871   7.887   2.584  11.549 -0.0230  0.9071 -0.6852
  164DOPC  H14S19872   7.888   2.493  11.399 -4.6255  0.5946  0.3091
  164DOPC  C21519873   8.074   2.500  11.504  0.0067 -0.5909  0.3421
  164DOPC  H15R19874   8.113   2.417  11.441  0.7125 -0.7620  1.0016
  164DOPC  H15S19875   8.116   2.489  11.606  2.7419 -2.2114 -0.8624
  164DOPC  C21619876   8.135   2.624  11.429 -0.1052 -0.2157  0.5422
  164DOPC  H16R19877   8.094   2.625  11.326 -0.0445 -1.5060  0.4836
  164DOPC  H16S19878   8.245   2.611  11.421  0.0513 -1.6039  3.4406
  164DOPC  C21719879   8.113   2.751  11.498 -0.3361 -0.8544  0.5306
  164DOPC  H17R19880   8.006   2.771  11.522 -0.1715 -0.4799  0.9734
  164DOPC  H17S19881   8.152   2.821  11.421  0.5813  0.1955  1.9013
  164DOPC  C21819882   8.199   2.774  11.623 -0.6035 -0.3018  0.1862
  164DOPC  H18R19883   8.214   2.680  11.679  1.7030  0.9256  1.7807
  164DOPC  H18S19884   8.164   2.853  11.693 -3.9920 -0.7114 -0.8925
  164DOPC  H18T19885   8.303   2.804  11.598 -0.0510 -1.5469  0.9190
  164DOPC   C3319886   7.188   1.371  12.598  0.3696 -0.1064 -0.3932
  164DOPC   H3X19887   7.153   1.354  12.702 -0.8793  1.4758 -0.5159
  164DOPC   H3Y19888   7.268   1.294  12.604  0.2373 -0.1826  0.7060
  164DOPC   C3419889   7.083   1.322  12.495 -0.1745 -0.0001  0.3531
  164DOPC   H4X19890   7.122   1.316  12.391  0.7874 -0.9184  0.7497
  164DOPC   H4Y19891   6.995   1.390  12.500 -0.4488 -0.2155 -1.0078
  164DOPC   C3519892   7.027   1.173  12.514 -0.0054  0.0113  0.2675
  164DOPC   H5X19893   7.004   1.175  12.623 -1.2377 -0.0476  0.0221
  164DOPC   H5Y19894   7.098   1.091  12.491 -0.1757  0.1960 -0.9474
  164DOPC   C3619895   6.883   1.143  12.459 -0.2838 -0.0741  0.0845
  164DOPC   H6X19896   6.810   1.220  12.491  1.9204  1.5727  1.4121
  164DOPC   H6Y19897   6.882   1.148  12.348 -2.0036  0.8742  0.1083
  164DOPC   C3719898   6.842   0.997  12.500  0.6886  0.0224  0.8351
  164DOPC   H7X19899   6.912   0.925  12.452 -0.4361 -0.0889 -0.7231
  164DOPC   H7Y19900   6.848   0.993  12.611 -1.1652  4.4166  1.2805
  164DOPC   C3819901   6.696   0.954  12.462 -0.4079 -0.6066 -0.5345
  164DOPC   H8X19902   6.635   1.033  12.509  0.3076 -1.0476  1.1993
  164DOPC   H8Y19903   6.678   0.855  12.508  1.4563 -0.9490 -0.4483
  164DOPC   C3919904   6.683   0.959  12.307  0.2370  0.4230  0.0822
  164DOPC   H9X19905   6.680   1.057  12.257 -0.3146 -0.8110 -2.4438
  164DOPC  C31019906   6.688   0.854  12.222 -0.3033 -0.3272  0.0460
  164DOPC  H10X19907   6.681   0.879  12.115  0.0747 -0.9495 -0.1277
  164DOPC  C31119908   6.714   0.707  12.267  0.2150  1.1477  0.9432
  164DOPC  H11X19909   6.716   0.677  12.374 -1.2388 -1.9193  0.2343
  164DOPC  H11Y19910   6.810   0.666  12.229 -0.6883  0.2837 -0.5009
  164DOPC  C31219911   6.617   0.606  12.212  0.4228  0.2590  0.0487
  164DOPC  H12X19912   6.516   0.611  12.258 -0.2452 -1.3267 -1.1647
  164DOPC  H12Y19913   6.658   0.508  12.246  1.5302  0.6903 -0.0147
  164DOPC  C31319914   6.626   0.605  12.061 -0.4151 -0.2675  0.1517
  164DOPC  H13X19915   6.607   0.704  12.016 -0.4219 -0.1161  0.4826
  164DOPC  H13Y19916   6.730   0.576  12.038 -0.2916  1.3229 -1.4248
  164DOPC  C31419917   6.514   0.513  12.001  0.2311 -0.4280  0.5796
  164DOPC  H14X19918   6.434   0.587  11.978 -0.1855 -0.8099  0.7976
  164DOPC  H14Y19919   6.470   0.451  12.081 -2.7507 -0.9364 -1.3065
  164DOPC  C31519920   6.545   0.428  11.880  0.6137 -0.2771  0.8057
  164DOPC  H15X19921   6.619   0.481  11.817  1.0184 -0.8670  0.7768
  164DOPC  H15Y19922   6.449   0.401  11.831 -1.1922  1.4190  3.2076
  164DOPC  C31619923   6.610   0.297  11.916 -0.3195 -0.0981 -0.0856
  164DOPC  H16X19924   6.705   0.316  11.972  0.3982 -0.0888 -1.2775
  164DOPC  H16Y19925   6.550   0.243  11.992 -1.1445  0.5139 -0.2949
  164DOPC  C31719926   6.610   0.195  11.804 -0.4040 -0.5505 -0.1420
  164DOPC  H17X19927   6.670   0.107  11.837  1.5152  0.7916  0.0771
  164DOPC  H17Y19928   6.509   0.155  11.778 -0.0087 -2.9643  1.6738
  164DOPC  C31819929   6.676   0.240  11.668  0.0450 -0.3322 -0.1301
  164DOPC  H18X19930   6.638   0.339  11.636 -1.9331 -1.1807 -0.5392
  164DOPC  H18Y19931   6.787   0.253  11.673  0.1288 -0.4653 -1.3409
  164DOPC  H18Z19932   6.641   0.178  11.583 -0.5119  0.3227 -0.3795
  165DOPC     N19933   3.266   2.344  13.645 -0.5592  0.5077 -0.5590
  165DOPC   C1219934   3.175   2.463  13.672  0.1002  0.4662 -0.8908
  165DOPC  H12A19935   3.200   2.535  13.595  2.1218 -0.3161 -1.0058
  165DOPC  H12B19936   3.203   2.505  13.768 -0.3151 -2.2258  0.4868
  165DOPC   C1319937   3.239   2.296  13.502  0.8047  0.1507 -0.9490
  165DOPC  H13A19938   3.133   2.276  13.491  0.7123 -0.2655  0.4500
  165DOPC  H13B19939   3.268   2.367  13.427 -0.3237  1.7396  0.0458
  165DOPC  H13C19940   3.274   2.195  13.486 -1.4449 -0.6846 -1.0056
  165DOPC   C1419941   3.254   2.234  13.746  0.3511  0.9074  0.7619
  165DOPC  H14A19942   3.294   2.140  13.710  0.0334  1.4212 -0.9974
  165DOPC  H14B19943   3.296   2.261  13.842  2.2207  1.0693 -0.0651
  165DOPC  H14C19944   3.149   2.215  13.759  0.0634  0.3952 -1.8139
  165DOPC   C1519945   3.409   2.392  13.652  0.0383 -0.7060  0.1549
  165DOPC  H15A19946   3.420   2.442  13.747 -0.6351 -0.8313  0.3028
  165DOPC  H15B19947   3.416   2.466  13.574  1.1838  0.3398  1.2059
  165DOPC  H15C19948   3.482   2.315  13.632  0.5384  0.0182 -0.8486
  165DOPC   C1119949   3.021   2.434  13.662  0.1373  0.2992  0.2977
  165DOPC  H11A19950   2.992   2.363  13.742  0.1746  1.5302  1.4446
  165DOPC  H11B19951   2.951   2.516  13.687 -0.6968  0.3945 -2.1069
  165DOPC     P19952   2.891   2.278  13.488  0.1061 -0.3363 -0.2535
  165DOPC   O1319953   2.808   2.314  13.372 -0.1635  0.5183 -0.4873
  165DOPC   O1419954   2.824   2.235  13.614  0.3958  0.4486 -0.2910
  165DOPC   O1219955   2.988   2.400  13.523  0.3169  0.1043  0.3254
  165DOPC   O1119956   2.991   2.162  13.449 -0.7639  0.1157  0.0570
  165DOPC    C119957   2.957   2.078  13.343 -0.2928  0.2580  0.5161
  165DOPC    HA19958   2.876   2.107  13.274  0.8174  2.5068  0.0584
  165DOPC    HB19959   2.926   1.981  13.387  0.9088  0.5867  2.1764
  165DOPC    C219960   3.077   2.034  13.255 -0.0511 -0.7575  0.8678
  165DOPC    HS19961   3.165   2.025  13.323  0.8103 -0.7382 -0.2226
  165DOPC   O2119962   3.088   2.136  13.156 -0.0873  0.0253  0.4098
  165DOPC   C2119963   3.212   2.153  13.118  0.6595  0.2297  0.1251
  165DOPC   O2219964   3.307   2.080  13.152  0.0972  0.7506  0.8919
  165DOPC   C2219965   3.218   2.286  13.029 -0.3150 -0.1565  0.4384
  165DOPC   H2R19966   3.327   2.292  13.008 -1.0404  3.3153 -3.7021
  165DOPC   H2S19967   3.184   2.373  13.090  0.0099 -0.6326  1.3268
  165DOPC    C319968   3.048   1.899  13.182  0.4205  0.2072 -0.6678
  165DOPC    HX19969   3.022   1.834  13.269 -0.6762  2.8514  1.1283
  165DOPC    HY19970   3.139   1.862  13.130 -0.2324  0.7568 -2.2511
  165DOPC   O3119971   2.929   1.908  13.094 -0.3725 -0.4843  0.1659
  165DOPC   C3119972   2.960   1.947  12.966 -0.0767 -0.3725 -0.0298
  165DOPC   O3219973   3.076   1.947  12.917  0.0544  0.4242 -0.0923
  165DOPC   C3219974   2.838   1.989  12.889 -0.2642  0.5988 -0.3019
  165DOPC   H2X19975   2.751   1.924  12.914  0.3003  0.2511  0.8538
  165DOPC   H2Y19976   2.812   2.091  12.924  0.7312  1.0562 -0.8516
  165DOPC   C2319977   3.145   2.282  12.890 -2.1398 -0.4756  0.2642
  165DOPC   H3R19978   3.037   2.292  12.914 -2.3773 -2.4763  0.1908
  165DOPC   H3S19979   3.150   2.184  12.839  0.2866  0.3909 -1.3592
  165DOPC   C2419980   3.193   2.401  12.799 -0.1467  0.6556 -0.5744
  165DOPC   H4R19981   3.298   2.389  12.765 -0.5974 -0.9916 -1.4923
  165DOPC   H4S19982   3.195   2.491  12.864  3.3015 -0.3604  0.9165
  165DOPC   C2519983   3.103   2.428  12.681 -0.3651  0.3893  0.3953
  165DOPC   H5R19984   3.143   2.524  12.641 -2.3345  1.3187  0.5581
  165DOPC   H5S19985   2.994   2.431  12.701 -0.6415  0.7040 -1.0566
  165DOPC   C2619986   3.130   2.317  12.568 -0.0218 -0.6645 -0.8152
  165DOPC   H6R19987   3.084   2.219  12.594 -1.1335  0.6166  2.5302
  165DOPC   H6S19988   3.241   2.308  12.559 -0.1797 -1.4253 -2.3046
  165DOPC   C2719989   3.068   2.366  12.429 -0.4394 -0.0236  0.2650
  165DOPC   H7R19990   3.077   2.296  12.343  2.8311  1.3686 -0.7153
  165DOPC   H7S19991   3.138   2.451  12.411  1.6092 -0.5252  4.6441
  165DOPC   C2819992   2.919   2.394  12.433  0.2411 -0.4187 -0.2402
  165DOPC   H8R19993   2.891   2.475  12.504  0.3336 -0.4659 -0.1483
  165DOPC   H8S19994   2.870   2.305  12.479 -0.2103  1.2096  2.7117
  165DOPC   C2919995   2.863   2.420  12.295  0.1541  1.1121 -0.1450
  165DOPC   H9R19996   2.856   2.332  12.229  1.1241  1.7484 -1.1294
  165DOPC  C21019997   2.823   2.543  12.253  0.1246  0.9518  0.2673
  165DOPC  H10R19998   2.778   2.550  12.153  0.0409 -0.1979  0.2087
  165DOPC  C21119999   2.816   2.675  12.326  0.8698  0.3737  0.6622
  165DOPC  H11R20000   2.824   2.662  12.436  3.3655 -1.3844  0.3482
  165DOPC  H11S20001   2.717   2.719  12.299  0.3160 -1.8099 -1.1648
  165DOPC  C21220002   2.917   2.783  12.296  0.5489  1.1608  0.6290
  165DOPC  H12R20003   3.023   2.751  12.293  0.4975  0.8393 -3.6693
  165DOPC  H12S20004   2.911   2.855  12.380 -0.0563  0.9855  0.7418
  165DOPC  C21320005   2.880   2.841  12.158  0.2415 -0.0622  0.9121
  165DOPC  H13R20006   2.777   2.880  12.166  0.2524  0.2086 -0.1041
  165DOPC  H13S20007   2.880   2.756  12.086  0.3938 -0.1321  0.9941
  165DOPC  C21420008   2.974   2.948  12.094 -0.5099  0.4748 -0.2609
  165DOPC  H14R20009   3.073   2.900  12.082 -0.1215  1.1839  0.0481
  165DOPC  H14S20010   2.990   3.025  12.172  1.8715 -0.9452  0.7399
  165DOPC  C21520011   2.914   3.016  11.965 -0.0160 -0.4459 -0.9105
  165DOPC  H15R20012   2.819   3.069  11.990  0.8847  0.9849 -0.4065
  165DOPC  H15S20013   2.889   2.934  11.894 -0.8725  0.0092 -1.1461
  165DOPC  C21620014   3.024   3.099  11.894  0.0402  0.5798  0.0719
  165DOPC  H16R20015   2.992   3.105  11.788 -0.5054 -0.0849  0.1903
  165DOPC  H16S20016   3.119   3.042  11.897 -1.2340 -1.7880 -1.6936
  165DOPC  C21720017   3.030   3.246  11.944  0.3599  0.8097 -0.1548
  165DOPC  H17R20018   3.079   3.237  12.043  0.7189  0.6868 -0.3433
  165DOPC  H17S20019   2.930   3.292  11.957  0.2314  0.3177  0.6632
  165DOPC  C21820020   3.096   3.330  11.837  0.1827 -0.2266 -0.5874
  165DOPC  H18R20021   3.195   3.290  11.808  0.2736 -2.3572  2.2597
  165DOPC  H18S20022   3.113   3.433  11.877  0.7685 -0.2638 -0.7395
  165DOPC  H18T20023   3.036   3.339  11.744 -0.9646  1.1879  0.2273
  165DOPC   C3320024   2.853   1.984  12.738 -0.3266 -0.8120 -0.1434
  165DOPC   H3X20025   2.869   1.880  12.700 -0.5688 -0.2195 -1.9663
  165DOPC   H3Y20026   2.935   2.050  12.701  0.1426  0.4006  2.8243
  165DOPC   C3420027   2.730   2.039  12.664  0.3518 -0.8663  0.1948
  165DOPC   H4X20028   2.703   2.142  12.697  0.5112 -1.2873  1.7440
  165DOPC   H4Y20029   2.650   1.967  12.691  1.5132 -2.0661  0.5449
  165DOPC   C3520030   2.745   2.030  12.509  0.0098 -0.2774 -0.7472
  165DOPC   H5X20031   2.758   1.923  12.481 -1.6521 -0.2407 -1.7855
  165DOPC   H5Y20032   2.836   2.092  12.496  1.3966 -1.4862  2.3656
  165DOPC   C3620033   2.635   2.090  12.420 -0.2771 -0.0055  0.6952
  165DOPC   H6X20034   2.538   2.053  12.460  0.2621 -0.1004  1.9625
  165DOPC   H6Y20035   2.637   2.201  12.425  2.0166  0.1311 -1.4167
  165DOPC   C3720036   2.670   2.076  12.272  0.2677 -0.9367  0.4846
  165DOPC   H7X20037   2.665   1.969  12.241 -0.4238 -0.4543 -1.1644
  165DOPC   H7Y20038   2.773   2.113  12.249 -0.2635  0.9510  0.9495
  165DOPC   C3820039   2.573   2.163  12.180 -0.2694  0.0900 -0.0804
  165DOPC   H8X20040   2.632   2.193  12.091 -1.3910  0.9268 -0.5722
  165DOPC   H8Y20041   2.542   2.252  12.239  0.6572 -0.5995  1.4929
  165DOPC   C3920042   2.456   2.082  12.142 -0.4029  0.0132 -0.2407
  165DOPC   H9X20043   2.410   2.023  12.222  0.6803  0.3229  0.6288
  165DOPC  C31020044   2.410   2.061  12.017 -0.1634  0.2247 -0.1085
  165DOPC  H10X20045   2.332   1.985  12.006  0.3621 -0.1724 -1.2341
  165DOPC  C31120046   2.449   2.116  11.881  0.7786  0.2472 -0.3483
  165DOPC  H11X20047   2.424   2.037  11.807 -4.2620  1.3014 -0.1103
  165DOPC  H11Y20048   2.549   2.159  11.857  0.6631  0.9425  0.3344
  165DOPC  C31220049   2.354   2.226  11.834  0.2879 -0.1020 -0.2084
  165DOPC  H12X20050   2.366   2.321  11.891  2.1000  0.6322 -1.7027
  165DOPC  H12Y20051   2.248   2.191  11.836  0.8849 -2.0053  0.5117
  165DOPC  C31320052   2.380   2.256  11.688  0.6441  0.0786  0.8348
  165DOPC  H13X20053   2.482   2.291  11.660 -0.1720  1.0555 -1.1019
  165DOPC  H13Y20054   2.362   2.166  11.625 -1.4031  1.2473 -0.3602
  165DOPC  C31420055   2.288   2.368  11.645 -0.7591 -0.3550  0.1807
  165DOPC  H14X20056   2.184   2.341  11.671 -0.5095  0.8419  2.7137
  165DOPC  H14Y20057   2.314   2.456  11.708  1.8990 -1.1169  0.2559
  165DOPC  C31520058   2.302   2.405  11.496 -0.0382  0.1303  0.2366
  165DOPC  H15X20059   2.234   2.488  11.468 -0.0157 -0.5047 -1.9220
  165DOPC  H15Y20060   2.251   2.319  11.447 -0.6828  0.4711  0.2938
  165DOPC  C31620061   2.438   2.420  11.434 -0.5467 -0.4826 -0.0378
  165DOPC  H16X20062   2.501   2.492  11.492  0.1918 -1.6136  0.5989
  165DOPC  H16Y20063   2.487   2.320  11.433  0.2458 -0.1506  1.5390
  165DOPC  C31720064   2.438   2.477  11.288 -0.7294 -0.6489 -0.1311
  165DOPC  H17X20065   2.390   2.395  11.230 -0.4429 -0.8683 -0.0661
  165DOPC  H17Y20066   2.379   2.571  11.286  0.1593 -0.0926 -0.8254
  165DOPC  C31820067   2.573   2.508  11.238  0.9503  0.5960  0.1479
  165DOPC  H18X20068   2.584   2.544  11.133  0.7699 -0.7505 -0.3437
  165DOPC  H18Y20069   2.621   2.592  11.293 -0.9086  1.9601 -0.2042
  165DOPC  H18Z20070   2.642   2.422  11.245 -0.8261 -0.8746  0.1714
  166DOPC     N20071   6.053   4.235  13.554 -0.5228  0.0031 -0.3423
  166DOPC   C1220072   6.160   4.187  13.459 -0.9104 -0.6051  0.1495
  166DOPC  H12A20073   6.148   4.080  13.454 -0.9856 -0.6616  1.3323
  166DOPC  H12B20074   6.257   4.215  13.497 -0.6178  0.5629 -1.3957
  166DOPC   C1320075   6.057   4.390  13.561  0.9392  0.1049  0.4268
  166DOPC  H13A20076   6.062   4.426  13.460  2.6100 -1.2368 -0.0198
  166DOPC  H13B20077   5.967   4.426  13.610  1.4428 -0.0672  1.5201
  166DOPC  H13C20078   6.147   4.424  13.610  1.8012 -2.4910  0.8121
  166DOPC   C1420079   6.069   4.174  13.693 -0.0010  0.1366  0.1223
  166DOPC  H14A20080   6.055   4.067  13.691 -0.7530  0.2383 -1.3838
  166DOPC  H14B20081   6.171   4.182  13.725  0.9411 -2.7003 -1.7293
  166DOPC  H14C20082   5.992   4.216  13.756 -0.0723  1.1932 -0.6472
  166DOPC   C1520083   5.920   4.187  13.499 -0.2210  0.0166  0.2882
  166DOPC  H15A20084   5.902   4.217  13.397  0.6256  0.3746  0.2341
  166DOPC  H15B20085   5.835   4.217  13.559 -1.5377 -0.2980 -1.3620
  166DOPC  H15C20086   5.910   4.080  13.499 -0.1248  0.0073  0.1047
  166DOPC   C1120087   6.162   4.228  13.306 -0.7864  0.4521 -0.5916
  166DOPC  H11A20088   6.144   4.337  13.292 -1.9455  0.2549 -0.7736
  166DOPC  H11B20089   6.260   4.204  13.261 -0.2158  0.8209  0.4369
  166DOPC     P20090   6.047   4.016  13.201 -0.3312  0.3673  0.4699
  166DOPC   O1320091   5.928   3.989  13.118 -0.2692  1.0631 -0.1332
  166DOPC   O1420092   6.065   3.934  13.320  0.9186 -0.0326  0.5360
  166DOPC   O1220093   6.048   4.173  13.239 -0.2569  0.1908 -0.0762
  166DOPC   O1120094   6.171   4.003  13.110 -0.0557  0.1133 -0.7662
  166DOPC    C120095   6.219   4.086  13.010 -0.3634 -0.8413  0.2153
  166DOPC    HA20096   6.322   4.120  13.033  0.1565 -3.0389  1.4523
  166DOPC    HB20097   6.166   4.183  13.022  1.6783  0.7792 -2.7077
  166DOPC    C220098   6.215   4.031  12.870  0.6292  0.1279  0.8206
  166DOPC    HS20099   6.263   4.104  12.802  2.0524 -1.0313  0.5129
  166DOPC   O2120100   6.078   4.005  12.824 -0.3080 -0.1678  0.1113
  166DOPC   C2120101   6.018   4.120  12.788 -0.1300  0.0635 -0.2588
  166DOPC   O2220102   6.072   4.229  12.798 -0.3699  0.0428  0.3362
  166DOPC   C2220103   5.867   4.100  12.761  0.1830  0.0105 -0.0820
  166DOPC   H2R20104   5.840   4.022  12.836 -0.3396 -0.0669 -0.3518
  166DOPC   H2S20105   5.850   4.060  12.659  0.6716  1.8949 -0.9474
  166DOPC    C320106   6.301   3.898  12.858 -0.2481 -0.1240  0.6028
  166DOPC    HX20107   6.271   3.824  12.936  0.4765  0.6363  1.6358
  166DOPC    HY20108   6.407   3.912  12.889  0.7253 -0.2893 -2.3347
  166DOPC   O3120109   6.298   3.839  12.726 -0.0858  0.2297 -0.1574
  166DOPC   C3120110   6.202   3.753  12.698  0.0645 -0.0000  0.4029
  166DOPC   O3220111   6.113   3.723  12.776 -0.2449 -0.7407 -0.1623
  166DOPC   C3220112   6.208   3.740  12.546 -0.4152  0.0156 -0.3635
  166DOPC   H2X20113   6.315   3.757  12.519 -0.9931  1.6596 -1.8203
  166DOPC   H2Y20114   6.176   3.635  12.528 -0.2737 -0.6797  2.9138
  166DOPC   C2320115   5.783   4.233  12.792  0.4882 -0.4934  0.4448
  166DOPC   H3R20116   5.843   4.311  12.842  2.1919 -0.4404 -1.5521
  166DOPC   H3S20117   5.707   4.199  12.866  1.0403 -2.4995  0.1696
  166DOPC   C2420118   5.712   4.283  12.663 -0.0902  0.2249 -0.3419
  166DOPC   H4R20119   5.626   4.346  12.692  0.5993  0.9348  0.2027
  166DOPC   H4S20120   5.682   4.194  12.604 -1.2462  0.6574 -0.4288
  166DOPC   C2520121   5.809   4.375  12.581 -0.2075 -0.0151  0.2696
  166DOPC   H5R20122   5.760   4.394  12.484 -0.5367  1.8790  0.7673
  166DOPC   H5S20123   5.905   4.325  12.553 -1.3307 -2.0675 -0.0863
  166DOPC   C2620124   5.830   4.516  12.646  0.1758 -0.0387 -0.3327
  166DOPC   H6R20125   5.891   4.495  12.736 -0.1525 -0.6572 -0.2490
  166DOPC   H6S20126   5.727   4.545  12.677 -0.8932 -1.8146 -1.9423
  166DOPC   C2720127   5.896   4.623  12.554  0.5044 -0.9102 -0.2195
  166DOPC   H7R20128   5.895   4.709  12.624  2.1283  0.3828 -1.6936
  166DOPC   H7S20129   5.830   4.648  12.468 -0.0630  1.3918  0.7976
  166DOPC   C2820130   6.047   4.586  12.506  0.0160 -0.6314 -0.4845
  166DOPC   H8R20131   6.034   4.502  12.434 -0.2789 -2.4337  1.5685
  166DOPC   H8S20132   6.101   4.548  12.595 -0.5793  1.4668  0.8270
  166DOPC   C2920133   6.124   4.707  12.447  0.0836  0.8271  0.0186
  166DOPC   H9R20134   6.118   4.805  12.497  1.2059  1.9308 -1.8913
  166DOPC  C21020135   6.219   4.691  12.350  0.5218 -0.1774 -0.0293
  166DOPC  H10R20136   6.273   4.782  12.319 -0.3525 -0.3476 -2.1582
  166DOPC  C21120137   6.252   4.560  12.285 -0.2640  0.2811  0.0826
  166DOPC  H11R20138   6.201   4.471  12.327  2.1756 -1.2735 -0.0606
  166DOPC  H11S20139   6.361   4.542  12.293 -0.3652 -0.0832  0.6721
  166DOPC  C21220140   6.208   4.552  12.140 -1.0573 -0.1468  0.3527
  166DOPC  H12R20141   6.102   4.581  12.137 -0.9929  0.0652  0.1778
  166DOPC  H12S20142   6.217   4.451  12.095 -4.1721 -0.9739  1.3406
  166DOPC  C21320143   6.312   4.633  12.056 -0.1888  0.2861 -0.3719
  166DOPC  H13R20144   6.415   4.594  12.072 -0.1545  0.3823 -0.3612
  166DOPC  H13S20145   6.312   4.734  12.101  1.5057  0.4546 -0.6844
  166DOPC  C21420146   6.296   4.655  11.905 -1.0224 -0.0460 -0.1640
  166DOPC  H14R20147   6.268   4.556  11.862  0.3378 -1.8583  2.7706
  166DOPC  H14S20148   6.393   4.690  11.866 -0.3611  0.2867  1.6657
  166DOPC  C21520149   6.173   4.747  11.876 -0.7871 -0.1937  0.0835
  166DOPC  H15R20150   6.188   4.846  11.925  0.6325  0.3508 -1.3691
  166DOPC  H15S20151   6.086   4.696  11.923 -0.4351 -0.3004  0.6335
  166DOPC  C21620152   6.149   4.783  11.729 -0.1588  0.0109 -0.4319
  166DOPC  H16R20153   6.154   4.688  11.670  0.4537 -0.0031 -0.3645
  166DOPC  H16S20154   6.230   4.851  11.695 -0.5872  1.6359  1.6485
  166DOPC  C21720155   6.021   4.860  11.693 -0.4661  0.2460 -0.8558
  166DOPC  H17R20156   5.933   4.797  11.715  0.9581 -1.4503  0.1868
  166DOPC  H17S20157   6.018   4.883  11.584 -0.0551  2.1792 -0.4929
  166DOPC  C21820158   5.997   4.982  11.773  0.0268 -0.0060  0.7135
  166DOPC  H18R20159   5.897   5.019  11.740 -0.4953 -2.0256 -0.1673
  166DOPC  H18S20160   6.060   5.071  11.751  0.1155 -0.4059 -0.7592
  166DOPC  H18T20161   6.004   4.951  11.879 -0.5543 -0.0752  0.7346
  166DOPC   C3320162   6.123   3.846  12.480 -0.6474  0.0087 -0.4643
  166DOPC   H3X20163   6.171   3.861  12.382  1.8724  1.0097  0.8412
  166DOPC   H3Y20164   6.126   3.945  12.532  1.2078 -0.3326  0.1317
  166DOPC   C3420165   5.977   3.790  12.464  0.0217  1.0093  0.7945
  166DOPC   H4X20166   5.931   3.776  12.564 -1.3977 -0.8698 -0.0598
  166DOPC   H4Y20167   5.987   3.687  12.425 -2.4553  1.2963 -0.8303
  166DOPC   C3520168   5.892   3.871  12.364  0.6257 -0.2695 -0.4116
  166DOPC   H5X20169   5.895   3.979  12.390 -1.3285 -0.2267 -0.2272
  166DOPC   H5Y20170   5.783   3.850  12.367  0.7264 -0.7469  0.2601
  166DOPC   C3620171   5.942   3.850  12.224  0.6439 -0.6568  0.5251
  166DOPC   H6X20172   6.048   3.878  12.208  0.2656  0.2841 -0.4657
  166DOPC   H6Y20173   5.927   3.746  12.188  0.1185  0.3180 -2.2659
  166DOPC   C3720174   5.856   3.933  12.119  0.4815  0.6717  0.5229
  166DOPC   H7X20175   5.751   3.934  12.155  0.1796 -2.5590  0.0935
  166DOPC   H7Y20176   5.888   4.039  12.111  0.3586  0.7237  0.7246
  166DOPC   C3820177   5.850   3.879  11.973 -0.2430  0.0469  0.6418
  166DOPC   H8X20178   5.852   3.768  11.984 -0.7374 -0.0246  0.0230
  166DOPC   H8Y20179   5.946   3.904  11.924 -1.2317 -0.4458 -1.6663
  166DOPC   C3920180   5.730   3.918  11.889 -0.7531 -0.4071 -0.4487
  166DOPC   H9X20181   5.635   3.902  11.941  0.1994 -0.4279  1.3488
  166DOPC  C31020182   5.730   3.990  11.772 -0.4878  0.3346 -0.8371
  166DOPC  H10X20183   5.634   4.004  11.721 -1.0491 -0.2887  0.0299
  166DOPC  C31120184   5.853   4.032  11.693 -0.4832  0.2617  0.6113
  166DOPC  H11X20185   5.945   3.987  11.737  0.1424  1.3533  0.4487
  166DOPC  H11Y20186   5.865   4.141  11.678 -0.6091  0.1038 -0.7968
  166DOPC  C31220187   5.866   3.980  11.541 -0.4448  0.8846 -0.0823
  166DOPC  H12X20188   5.848   3.870  11.534  2.9907  0.3247 -2.6182
  166DOPC  H12Y20189   5.974   3.997  11.523  0.3206 -0.7245  2.4663
  166DOPC  C31320190   5.775   4.059  11.439  0.5375  0.2450 -0.0846
  166DOPC  H13X20191   5.666   4.038  11.451  0.3292  0.8766 -0.8071
  166DOPC  H13Y20192   5.793   4.168  11.447  0.2745  0.1996  1.6292
  166DOPC  C31420193   5.811   4.029  11.292 -0.8072  0.4292 -0.7197
  166DOPC  H14X20194   5.807   3.918  11.283  0.7178  0.4101 -1.3835
  166DOPC  H14Y20195   5.732   4.062  11.222  0.2523 -0.4085 -2.3665
  166DOPC  C31520196   5.949   4.086  11.244  0.1913  0.0347 -0.1025
  166DOPC  H15X20197   5.979   4.034  11.151 -1.5211  0.5379 -0.9765
  166DOPC  H15Y20198   6.027   4.041  11.309 -1.8389 -1.4071  1.4851
  166DOPC  C31620199   5.949   4.236  11.223  0.1219 -0.6840  0.1422
  166DOPC  H16X20200   5.884   4.263  11.136  0.5477 -0.6553 -0.1715
  166DOPC  H16Y20201   5.920   4.289  11.316  0.2281 -2.0212  0.9597
  166DOPC  C31720202   6.089   4.290  11.178 -0.0950 -0.2809  0.1544
  166DOPC  H17X20203   6.161   4.278  11.261  1.0322 -1.0764 -0.8942
  166DOPC  H17Y20204   6.127   4.226  11.095  2.6777  1.4939 -0.0721
  166DOPC  C31820205   6.093   4.434  11.120  0.3053  0.2561 -0.4547
  166DOPC  H18X20206   6.033   4.441  11.027 -0.6746 -1.1986  0.0231
  166DOPC  H18Y20207   6.049   4.503  11.195  0.2791  0.4869 -0.6817
  166DOPC  H18Z20208   6.198   4.465  11.108  0.3401 -0.0052 -0.8443
  167DOPC     N20209   3.856   3.246  13.280 -0.2679 -0.1535  0.5533
  167DOPC   C1220210   3.870   3.187  13.137  0.3667  0.2928 -0.6249
  167DOPC  H12A20211   3.795   3.240  13.080 -3.4942  0.1855  3.7628
  167DOPC  H12B20212   3.834   3.085  13.142 -0.8319  0.7052 -0.5340
  167DOPC   C1320213   3.711   3.266  13.312 -0.2342  0.8302 -0.1934
  167DOPC  H13A20214   3.695   3.329  13.398  0.6541  0.2268  0.4345
  167DOPC  H13B20215   3.658   3.305  13.226 -0.1063 -0.9588 -1.1374
  167DOPC  H13C20216   3.672   3.167  13.330  1.2339 -0.1038 -1.8111
  167DOPC   C1420217   3.915   3.383  13.278  0.1352 -0.6590 -0.1365
  167DOPC  H14A20218   3.916   3.429  13.375 -0.5676  0.0810 -0.4649
  167DOPC  H14B20219   4.019   3.377  13.249  0.9142 -2.4712  2.7333
  167DOPC  H14C20220   3.859   3.451  13.214  1.2712  0.6765  0.2386
  167DOPC   C1520221   3.922   3.161  13.384 -0.2431  0.0808 -1.0225
  167DOPC  H15A20222   3.861   3.074  13.403  0.0088  0.0952 -0.1160
  167DOPC  H15B20223   3.934   3.216  13.476  0.1634  0.7276 -1.4543
  167DOPC  H15C20224   4.022   3.127  13.360 -0.0768 -0.3296  0.1934
  167DOPC   C1120225   4.006   3.189  13.071  0.3109 -0.3960 -0.4120
  167DOPC  H11A20226   3.995   3.151  12.967 -0.5067 -0.2327 -0.3903
  167DOPC  H11B20227   4.041   3.293  13.060  0.3153 -0.4136 -0.5659
  167DOPC     P20228   4.106   2.962  13.158 -0.1257  0.5364  0.1982
  167DOPC   O1320229   3.970   2.900  13.144 -0.1002 -0.3007 -0.0741
  167DOPC   O1420230   4.184   2.925  13.276  0.6193  0.7588 -0.2361
  167DOPC   O1220231   4.103   3.121  13.153  1.0839 -0.2376  0.7844
  167DOPC   O1120232   4.186   2.937  13.028 -0.5243 -0.4115  0.0256
  167DOPC    C120233   4.298   3.018  12.991  0.4426  0.2149  0.1724
  167DOPC    HA20234   4.367   3.041  13.074  0.9226  1.7878 -0.6207
  167DOPC    HB20235   4.253   3.115  12.962 -1.2185  0.0783  2.0727
  167DOPC    C220236   4.381   2.956  12.880  0.2151  0.1284  0.0409
  167DOPC    HS20237   4.477   3.012  12.871 -0.1827  1.0995  1.5634
  167DOPC   O2120238   4.327   2.953  12.750  0.5817  0.4719  0.0236
  167DOPC   C2120239   4.293   3.064  12.689  0.4629  0.6066  0.4850
  167DOPC   O2220240   4.304   3.178  12.732  0.4407  0.0244  0.0086
  167DOPC   C2220241   4.273   3.026  12.538  0.6670 -0.2005  0.6768
  167DOPC   H2R20242   4.189   2.956  12.519  1.3507 -0.4437 -1.8575
  167DOPC   H2S20243   4.368   2.985  12.498  0.5573 -0.3174  0.5348
  167DOPC    C320244   4.425   2.813  12.920 -0.2219 -0.1226 -0.0732
  167DOPC    HX20245   4.338   2.746  12.935  1.0475 -1.3914  2.3949
  167DOPC    HY20246   4.482   2.809  13.015  1.4706  0.9209 -0.9940
  167DOPC   O3120247   4.503   2.767  12.807 -0.4401  0.0041  0.0228
  167DOPC   C3120248   4.580   2.660  12.822 -0.4366 -0.1326  0.0395
  167DOPC   O3220249   4.579   2.590  12.921  0.5215 -0.1378 -0.2594
  167DOPC   C3220250   4.659   2.639  12.697 -0.3552  0.8199  0.2978
  167DOPC   H2X20251   4.622   2.708  12.619 -2.4781  3.3222  3.2585
  167DOPC   H2Y20252   4.766   2.662  12.716 -0.5729  0.6600  1.9053
  167DOPC   C2320253   4.256   3.153  12.444  0.0871 -0.1793 -0.3952
  167DOPC   H3R20254   4.348   3.210  12.468  0.4134 -0.8302 -0.0494
  167DOPC   H3S20255   4.167   3.213  12.471  0.6653  0.8163 -0.6647
  167DOPC   C2420256   4.253   3.108  12.296 -0.3740 -0.1192  0.8836
  167DOPC   H4R20257   4.316   3.019  12.276 -0.7455  0.0688 -1.4277
  167DOPC   H4S20258   4.299   3.188  12.234 -0.8858 -0.2919  0.2729
  167DOPC   C2520259   4.119   3.068  12.230 -0.7462  0.0173 -0.1962
  167DOPC   H5R20260   4.043   3.148  12.241 -0.6418  0.0110  0.6796
  167DOPC   H5S20261   4.079   2.987  12.296 -2.1429  1.8147  1.2740
  167DOPC   C2620262   4.136   3.016  12.085 -0.7751  0.4486  0.9649
  167DOPC   H6R20263   4.185   2.916  12.082 -1.0947  0.3089 -0.0997
  167DOPC   H6S20264   4.194   3.089  12.025 -2.2845 -0.4384 -1.7522
  167DOPC   C2720265   3.997   3.005  12.015 -0.2460  0.0836  0.1475
  167DOPC   H7R20266   3.933   3.096  12.014 -1.4514 -0.7235  0.7223
  167DOPC   H7S20267   3.934   2.929  12.066  0.7135 -1.0623 -0.3359
  167DOPC   C2820268   4.020   2.966  11.867 -0.1830 -0.1229 -1.2068
  167DOPC   H8R20269   4.083   3.048  11.826 -1.1903 -0.0225 -2.5905
  167DOPC   H8S20270   3.921   2.971  11.818  0.3822  0.6318 -2.2978
  167DOPC   C2920271   4.071   2.826  11.860 -0.6279  0.6900  0.2179
  167DOPC   H9R20272   4.009   2.750  11.909  0.1300  0.9319  1.5916
  167DOPC  C21020273   4.178   2.787  11.785 -0.3460 -0.3383 -0.4906
  167DOPC  H10R20274   4.204   2.681  11.787 -1.3252 -0.5841  0.3030
  167DOPC  C21120275   4.284   2.879  11.719  0.0411 -0.1546  0.0532
  167DOPC  H11R20276   4.293   2.980  11.763 -0.4589  0.2648 -0.7600
  167DOPC  H11S20277   4.249   2.885  11.613 -1.8201 -0.4550  0.6014
  167DOPC  C21220278   4.424   2.817  11.724 -0.9785 -0.3461 -0.9518
  167DOPC  H12R20279   4.457   2.821  11.830 -1.8659 -2.8789 -0.5115
  167DOPC  H12S20280   4.422   2.711  11.692 -0.5784 -1.7210  3.0169
  167DOPC  C21320281   4.534   2.887  11.635 -0.1465 -0.1015  0.0475
  167DOPC  H13R20282   4.561   2.990  11.667 -2.5835 -0.3264  3.3406
  167DOPC  H13S20283   4.497   2.903  11.532  1.8961 -1.1671 -0.9130
  167DOPC  C21420284   4.649   2.785  11.624  0.1362  0.3449  0.3125
  167DOPC  H14R20285   4.716   2.822  11.544 -0.6773  0.7287 -0.2006
  167DOPC  H14S20286   4.603   2.704  11.562  0.1825  1.5189 -1.3226
  167DOPC  C21520287   4.712   2.750  11.759  0.1129  0.1125 -0.3634
  167DOPC  H15R20288   4.630   2.730  11.832 -0.2687  1.6126 -0.3513
  167DOPC  H15S20289   4.766   2.836  11.802  2.8959  0.0857 -3.4318
  167DOPC  C21620290   4.803   2.624  11.762  0.1048 -0.2500 -0.3981
  167DOPC  H16R20291   4.769   2.549  11.688  2.0362 -0.0547 -1.5749
  167DOPC  H16S20292   4.799   2.563  11.855 -0.6464  0.3056 -0.0577
  167DOPC  C21720293   4.946   2.657  11.736  0.3663  0.1153 -0.1586
  167DOPC  H17R20294   4.989   2.700  11.828 -0.1739 -0.2272  0.2623
  167DOPC  H17S20295   4.957   2.738  11.661  0.4443  1.2231  1.0310
  167DOPC  C21820296   5.024   2.547  11.677  0.3661  0.0429 -0.0921
  167DOPC  H18R20297   5.035   2.462  11.748 -1.5560 -0.0787  0.1035
  167DOPC  H18S20298   5.123   2.580  11.637 -0.3366 -0.8768 -2.8055
  167DOPC  H18T20299   4.957   2.518  11.594 -2.5147 -0.6126  2.2998
  167DOPC   C3320300   4.660   2.495  12.634  0.0433 -1.0129  0.1650
  167DOPC   H3X20301   4.559   2.468  12.597 -0.3927  0.6885  0.0359
  167DOPC   H3Y20302   4.697   2.422  12.709 -0.6725 -0.0938  1.4589
  167DOPC   C3420303   4.754   2.487  12.511  0.2776 -0.1046 -0.6135
  167DOPC   H4X20304   4.854   2.530  12.531 -0.3160  0.9521  0.1745
  167DOPC   H4Y20305   4.708   2.539  12.424 -0.4006 -2.0675 -1.4991
  167DOPC   C3520306   4.764   2.347  12.465  0.2107 -0.0250 -0.1039
  167DOPC   H5X20307   4.666   2.296  12.460 -0.2767  0.7949  0.7400
  167DOPC   H5Y20308   4.819   2.296  12.547  0.3558 -1.0728 -0.8293
  167DOPC   C3620309   4.846   2.341  12.341 -0.2361 -0.2917 -0.1896
  167DOPC   H6X20310   4.915   2.428  12.335  2.5219 -2.4045 -1.2582
  167DOPC   H6Y20311   4.914   2.255  12.360  0.6970  0.4036 -0.2991
  167DOPC   C3720312   4.773   2.310  12.207 -0.1194 -0.0496 -0.3922
  167DOPC   H7X20313   4.743   2.203  12.214 -0.2297  0.0137  0.1472
  167DOPC   H7Y20314   4.670   2.350  12.211  0.2642  0.9949 -0.5109
  167DOPC   C3820315   4.846   2.344  12.074  0.4541 -0.0432  0.0648
  167DOPC   H8X20316   4.864   2.453  12.073 -0.4401  0.2749  3.8906
  167DOPC   H8Y20317   4.779   2.317  11.990  0.2728 -0.9738  0.4918
  167DOPC   C3920318   4.979   2.274  12.073  0.6089 -0.1629  0.0680
  167DOPC   H9X20319   5.049   2.326  12.141 -1.0365  0.5078  1.3238
  167DOPC  C31020320   5.017   2.177  11.986 -0.2748  0.2935  0.7566
  167DOPC  H10X20321   5.114   2.128  11.998 -0.1847  0.1288 -0.5553
  167DOPC  C31120322   4.928   2.110  11.889  0.1901 -0.0068  0.2279
  167DOPC  H11X20323   4.834   2.070  11.931 -0.0203 -0.8137 -0.9667
  167DOPC  H11Y20324   4.982   2.019  11.856  0.6867 -0.2293  1.6022
  167DOPC  C31220325   4.900   2.212  11.776 -0.7071  0.3436  0.0975
  167DOPC  H12X20326   4.971   2.191  11.693  1.2759  0.3214  1.7041
  167DOPC  H12Y20327   4.928   2.316  11.802  0.3041 -0.1426  1.0502
  167DOPC  C31320328   4.762   2.214  11.723 -0.0152 -0.0276 -0.3955
  167DOPC  H13X20329   4.711   2.115  11.735 -0.0337  0.2194  1.9089
  167DOPC  H13Y20330   4.703   2.287  11.781  2.7978  2.6230 -0.6753
  167DOPC  C31420331   4.756   2.267  11.577 -0.5613  0.3636 -0.6224
  167DOPC  H14X20332   4.810   2.364  11.582  0.9380 -0.5210  1.4087
  167DOPC  H14Y20333   4.809   2.191  11.515 -1.0157 -0.9788  0.5849
  167DOPC  C31520334   4.619   2.288  11.527  0.1832 -0.2515  0.2357
  167DOPC  H15X20335   4.573   2.371  11.585  0.7849  0.5008 -0.3405
  167DOPC  H15Y20336   4.561   2.197  11.553 -1.4705  1.2895  2.3451
  167DOPC  C31620337   4.605   2.329  11.379 -0.2369  1.0456 -0.0281
  167DOPC  H16X20338   4.669   2.416  11.351 -0.9672  1.1631 -1.4431
  167DOPC  H16Y20339   4.635   2.244  11.313  0.6530  1.3414 -0.0269
  167DOPC  C31720340   4.460   2.354  11.342  0.4097 -0.2825 -0.4949
  167DOPC  H17X20341   4.407   2.439  11.390  0.4905 -1.9269  2.7403
  167DOPC  H17Y20342   4.474   2.388  11.237  1.8336  1.9252  0.3387
  167DOPC  C31820343   4.369   2.234  11.347 -0.0663  0.0761 -0.5518
  167DOPC  H18X20344   4.430   2.149  11.309 -0.2591  0.5886 -2.1003
  167DOPC  H18Y20345   4.336   2.218  11.452  0.0938 -2.2277 -0.8144
  167DOPC  H18Z20346   4.277   2.256  11.289 -1.3789 -0.9282  1.0799
  168DOPC     N20347   8.417   0.360  13.316  0.4510 -0.7449 -0.4727
  168DOPC   C1220348   8.316   0.396  13.207  0.6042 -0.3623  1.3776
  168DOPC  H12A20349   8.283   0.499  13.218  0.4266 -0.1555 -0.7016
  168DOPC  H12B20350   8.220   0.351  13.230 -0.2205  1.0940  0.9310
  168DOPC   C1320351   8.421   0.211  13.317 -0.7437  0.0714 -0.9495
  168DOPC  H13A20352   8.443   0.175  13.217  0.0056 -0.5473 -0.5689
  168DOPC  H13B20353   8.490   0.170  13.389 -0.2012 -1.4327 -2.2495
  168DOPC  H13C20354   8.325   0.169  13.343 -0.5655  1.4558  2.4672
  168DOPC   C1420355   8.369   0.416  13.448 -0.2294  0.1212  0.2031
  168DOPC  H14A20356   8.437   0.370  13.518  0.8300 -1.3336 -1.7075
  168DOPC  H14B20357   8.381   0.523  13.454  0.1535  0.1218 -0.5869
  168DOPC  H14C20358   8.269   0.392  13.482  0.3267 -1.2718  0.9557
  168DOPC   C1520359   8.549   0.416  13.287 -0.1323  0.3790  0.1343
  168DOPC  H15A20360   8.562   0.518  13.319  3.2019  0.5580 -1.4189
  168DOPC  H15B20361   8.568   0.394  13.183  1.8430 -2.7516  1.0023
  168DOPC  H15C20362   8.622   0.354  13.337 -0.0431  0.3786  0.0043
  168DOPC   C1120363   8.346   0.360  13.054 -0.1908 -0.0500  0.1391
  168DOPC  H11A20364   8.398   0.262  13.064 -0.5352 -0.3843 -1.1889
  168DOPC  H11B20365   8.250   0.358  12.999 -0.5086  3.1195  0.4248
  168DOPC     P20366   8.392   0.600  12.983  0.3307 -0.3592 -0.0159
  168DOPC   O1320367   8.483   0.675  13.073 -0.2121 -0.6100  0.5164
  168DOPC   O1420368   8.246   0.613  13.005 -1.0539  0.4931  0.1912
  168DOPC   O1220369   8.439   0.456  13.001 -0.0010 -0.3591 -0.4041
  168DOPC   O1120370   8.420   0.627  12.832  0.4920  0.0524 -0.3094
  168DOPC    C120371   8.359   0.576  12.718 -0.3396  0.6997 -0.1247
  168DOPC    HA20372   8.342   0.666  12.656  2.4020  2.2662  1.2027
  168DOPC    HB20373   8.261   0.528  12.739  0.8453 -2.5530 -1.3433
  168DOPC    C220374   8.444   0.483  12.633 -0.1221  0.3143  0.0687
  168DOPC    HS20375   8.401   0.490  12.532  2.2378  0.3869 -1.0053
  168DOPC   O2120376   8.450   0.349  12.688  0.6446 -0.3605  0.2601
  168DOPC   C2120377   8.345   0.276  12.696  0.7905  0.0531 -0.3237
  168DOPC   O2220378   8.231   0.314  12.678  0.1163  0.3019  0.6114
  168DOPC   C2220379   8.388   0.140  12.752 -0.5488  0.2601  0.1392
  168DOPC   H2R20380   8.412   0.165  12.857  1.0719 -0.8244  0.0612
  168DOPC   H2S20381   8.477   0.106  12.696 -1.3360 -1.1343 -0.3203
  168DOPC    C320382   8.590   0.531  12.626 -0.3615 -0.2220  0.2170
  168DOPC    HX20383   8.653   0.463  12.565  1.1596  0.0843  1.4062
  168DOPC    HY20384   8.634   0.527  12.727  1.8223  2.0387 -0.5415
  168DOPC   O3120385   8.589   0.664  12.568  0.7044 -0.6387  0.3222
  168DOPC   C3120386   8.691   0.744  12.600 -0.6666  0.2803  0.1158
  168DOPC   O3220387   8.787   0.713  12.672  0.1936 -0.2028  0.5131
  168DOPC   C3220388   8.685   0.864  12.508  0.1393 -0.0273 -0.0520
  168DOPC   H2X20389   8.602   0.929  12.542 -1.5784 -1.2103 -1.7088
  168DOPC   H2Y20390   8.776   0.927  12.512  1.6524 -2.1594  0.8787
  168DOPC   C2320391   8.276   0.030  12.751 -0.8316 -0.3500  0.2418
  168DOPC   H3R20392   8.179   0.069  12.788 -0.6383 -0.3540  0.7648
  168DOPC   H3S20393   8.310  -0.057  12.811  2.4569  1.2707  1.0192
  168DOPC   C2420394   8.247  -0.015  12.600 -0.1542 -0.2468 -0.6360
  168DOPC   H4R20395   8.340  -0.030  12.543  1.5153 -0.5217  1.9930
  168DOPC   H4S20396   8.195   0.072  12.553 -0.9839  0.5728  1.6573
  168DOPC   C2520397   8.155  -0.136  12.593  0.3768  0.3243 -0.0262
  168DOPC   H5R20398   8.049  -0.107  12.612  0.5285  3.1249 -2.6955
  168DOPC   H5S20399   8.184  -0.197  12.682 -1.0280  0.0696  0.2844
  168DOPC   C2620400   8.182  -0.211  12.460  0.3504  0.1716 -0.0456
  168DOPC   H6R20401   8.282  -0.259  12.469 -1.3181 -3.7252 -0.2816
  168DOPC   H6S20402   8.184  -0.133  12.381 -2.1693 -0.2820 -0.6397
  168DOPC   C2720403   8.088  -0.327  12.429 -0.5931  0.1396  0.9393
  168DOPC   H7R20404   7.982  -0.295  12.427 -1.5059 -2.5634  1.2277
  168DOPC   H7S20405   8.100  -0.403  12.509 -4.4358 -0.2581  1.2929
  168DOPC   C2820406   8.122  -0.392  12.295 -0.0667 -0.2321  0.3977
  168DOPC   H8R20407   8.229  -0.423  12.298  0.3268  1.1136  1.0518
  168DOPC   H8S20408   8.119  -0.315  12.214  0.6317  0.6795  1.2128
  168DOPC   C2920409   8.042  -0.515  12.281  0.4737  0.5091 -0.2402
  168DOPC   H9R20410   8.067  -0.600  12.347 -2.0893 -1.2258 -1.3352
  168DOPC  C21020411   7.939  -0.534  12.189 -0.5173 -0.4171 -0.1380
  168DOPC  H10R20412   7.871  -0.621  12.188 -2.0225  0.7113  0.4417
  168DOPC  C21120413   7.898  -0.446  12.076 -0.3823  0.7977  0.4351
  168DOPC  H11R20414   7.934  -0.343  12.092  1.3204  1.1126 -4.0866
  168DOPC  H11S20415   7.787  -0.437  12.068 -0.2773  0.4691 -2.0491
  168DOPC  C21220416   7.967  -0.467  11.935 -0.6210 -0.5495 -0.8108
  168DOPC  H12R20417   8.073  -0.489  11.957  0.9208  4.5418 -1.9329
  168DOPC  H12S20418   7.969  -0.365  11.892 -0.5545  0.2887  1.0952
  168DOPC  C21320419   7.897  -0.558  11.837 -0.2007  0.0360  0.5579
  168DOPC  H13R20420   7.817  -0.500  11.787 -0.8331 -1.0471  0.2883
  168DOPC  H13S20421   7.848  -0.634  11.901 -0.0361 -1.8461 -1.4290
  168DOPC  C21420422   7.988  -0.607  11.726  0.5249 -0.2065 -0.3029
  168DOPC  H14R20423   8.083  -0.642  11.771 -0.3459 -1.0976  0.9341
  168DOPC  H14S20424   8.005  -0.525  11.653 -1.9688  0.8281  0.1745
  168DOPC  C21520425   7.921  -0.723  11.646  0.0591 -0.1056 -0.0744
  168DOPC  H15R20426   7.815  -0.697  11.626  0.6224  2.6742  0.1705
  168DOPC  H15S20427   7.925  -0.812  11.713  1.1684  0.5857  0.8142
  168DOPC  C21620428   7.979  -0.767  11.509  0.1711  0.2076 -0.1076
  168DOPC  H16R20429   8.089  -0.773  11.516  0.2449 -0.1709 -1.3377
  168DOPC  H16S20430   7.961  -0.690  11.432 -0.2876 -1.3755 -1.6469
  168DOPC  C21720431   7.920  -0.899  11.461 -0.0660  0.5765 -0.1403
  168DOPC  H17R20432   7.811  -0.880  11.452 -0.1163  0.2832 -0.1409
  168DOPC  H17S20433   7.936  -0.967  11.547 -0.9517  1.6684  0.9310
  168DOPC  C21820434   7.980  -0.949  11.329  0.0357 -0.2856 -0.7191
  168DOPC  H18R20435   7.961  -1.057  11.313 -0.9747 -0.0300 -1.3781
  168DOPC  H18S20436   8.090  -0.936  11.339  0.2074 -2.8581  2.2478
  168DOPC  H18T20437   7.940  -0.887  11.246 -0.3233  1.1597  0.4968
  168DOPC   C3320438   8.652   0.830  12.353  0.2748  0.3104 -0.1539
  168DOPC   H3X20439   8.546   0.797  12.351  0.6007 -0.8253  0.2419
  168DOPC   H3Y20440   8.722   0.749  12.321 -1.4888 -1.0215 -0.8170
  168DOPC   C3420441   8.659   0.965  12.281  0.0981  0.1457 -0.4840
  168DOPC   H4X20442   8.762   1.008  12.290 -0.3794  1.0523  0.9883
  168DOPC   H4Y20443   8.598   1.043  12.331  1.8375  1.2963 -0.0499
  168DOPC   C3520444   8.613   0.963  12.134  0.4773 -1.0511  0.1574
  168DOPC   H5X20445   8.509   0.925  12.131 -0.0148 -0.0516  2.5756
  168DOPC   H5Y20446   8.681   0.899  12.074  2.8676  0.1917  1.3707
  168DOPC   C3620447   8.607   1.107  12.069 -0.3026  0.2146 -0.5253
  168DOPC   H6X20448   8.699   1.167  12.084 -1.4325  1.7172  0.6219
  168DOPC   H6Y20449   8.599   1.100  11.958  1.1586  0.0335 -0.6435
  168DOPC   C3720450   8.486   1.197  12.104 -0.7602 -0.0590 -0.0887
  168DOPC   H7X20451   8.396   1.134  12.088 -1.4115  0.7974  0.1558
  168DOPC   H7Y20452   8.479   1.231  12.210  3.0286  0.1996  0.2257
  168DOPC   C3820453   8.488   1.325  12.023 -0.5187 -0.2031 -0.0770
  168DOPC   H8X20454   8.491   1.298  11.915 -0.9310 -2.6378  0.4632
  168DOPC   H8Y20455   8.585   1.377  12.034  0.6228 -1.4871 -2.9386
  168DOPC   C3920456   8.375   1.416  12.047  0.2532 -0.0775 -0.4823
  168DOPC   H9X20457   8.316   1.389  12.137  2.0618  0.2960  0.8712
  168DOPC  C31020458   8.329   1.509  11.959 -0.3530  0.0521 -0.6931
  168DOPC  H10X20459   8.235   1.556  11.990 -1.0033 -1.5376 -0.1183
  168DOPC  C31120460   8.392   1.542  11.823  0.5675  0.7364 -0.1601
  168DOPC  H11X20461   8.308   1.525  11.753 -1.0859  1.9126  1.4286
  168DOPC  H11Y20462   8.470   1.471  11.789  0.0551 -0.5696  1.2836
  168DOPC  C31220463   8.453   1.681  11.808 -0.1512  0.5731 -0.2600
  168DOPC  H12X20464   8.541   1.699  11.874 -1.1002  0.6064  1.0436
  168DOPC  H12Y20465   8.380   1.759  11.840 -0.5778  1.3001 -2.7770
  168DOPC  C31320466   8.501   1.707  11.671 -0.2153 -0.2957  0.5695
  168DOPC  H13X20467   8.514   1.611  11.617  0.7762  0.2326 -0.1606
  168DOPC  H13Y20468   8.422   1.760  11.614  0.7832 -0.3997 -0.9753
  168DOPC  C31420469   8.636   1.775  11.667  1.2252 -0.0303 -0.1681
  168DOPC  H14X20470   8.623   1.874  11.717 -0.2534 -0.0003 -0.5676
  168DOPC  H14Y20471   8.712   1.713  11.718  0.0981 -0.9578  0.4144
  168DOPC  C31520472   8.683   1.807  11.520  0.8640 -0.9085  0.0396
  168DOPC  H15X20473   8.787   1.846  11.527  0.4387  0.0479  1.3537
  168DOPC  H15Y20474   8.623   1.885  11.470  2.5401  0.5176  0.1807
  168DOPC  C31620475   8.685   1.678  11.433  0.8366  0.1638 -0.5229
  168DOPC  H16X20476   8.742   1.599  11.487  0.6167 -0.0136 -0.5469
  168DOPC  H16Y20477   8.577   1.651  11.425  0.1918  2.4944 -0.3972
  168DOPC  C31720478   8.733   1.701  11.287 -0.1598 -0.0476 -0.2362
  168DOPC  H17X20479   8.843   1.720  11.288 -0.3779  1.4849  1.4182
  168DOPC  H17Y20480   8.702   1.605  11.241 -1.6439 -0.2694  1.1289
  168DOPC  C31820481   8.662   1.821  11.224  0.0538  0.3125 -0.0268
  168DOPC  H18X20482   8.678   1.817  11.114 -0.3104 -1.8548 -0.0492
  168DOPC  H18Y20483   8.554   1.814  11.252  0.2158  0.5921  0.7060
  168DOPC  H18Z20484   8.711   1.918  11.249 -0.1530  0.2853  0.5036
  169DOPC     N20485   7.096   3.163  13.058  0.3699 -0.2710 -0.2319
  169DOPC   C1220486   7.083   3.184  12.904  0.2442 -0.1010  0.0587
  169DOPC  H12A20487   7.076   3.085  12.862  1.3566  0.1385 -0.7505
  169DOPC  H12B20488   7.167   3.233  12.858 -0.3013 -0.8663 -1.8594
  169DOPC   C1320489   7.227   3.114  13.086 -0.8796  0.6132 -0.2020
  169DOPC  H13A20490   7.249   3.019  13.039  0.0093  1.0575 -0.7164
  169DOPC  H13B20491   7.316   3.174  13.069  0.1424 -0.5499  0.8140
  169DOPC  H13C20492   7.227   3.091  13.192  2.0484  1.8187  0.1552
  169DOPC   C1420493   6.986   3.064  13.096 -0.6920  0.4672  0.9690
  169DOPC  H14A20494   6.990   3.044  13.202  0.5899  1.2743  1.0936
  169DOPC  H14B20495   6.892   3.116  13.081 -1.8847 -2.0241 -0.9576
  169DOPC  H14C20496   6.992   2.976  13.033  0.8326  0.7004  0.7470
  169DOPC   C1520497   7.074   3.292  13.121 -0.1701  0.3315 -0.2140
  169DOPC  H15A20498   6.982   3.342  13.094 -0.0677  1.5239  1.4554
  169DOPC  H15B20499   7.160   3.357  13.113  0.5236 -0.0761  2.6746
  169DOPC  H15C20500   7.058   3.279  13.227 -2.4540  1.0027 -0.4202
  169DOPC   C1120501   6.954   3.248  12.843 -0.0076 -0.5318 -0.3536
  169DOPC  H11A20502   6.956   3.356  12.872  1.1378 -0.6685  0.1436
  169DOPC  H11B20503   6.969   3.255  12.733 -0.6787  0.1365 -0.4108
  169DOPC     P20504   6.766   3.070  12.813 -0.2638  0.2374  0.0166
  169DOPC   O1320505   6.637   3.042  12.884 -0.1446 -0.4850  0.1480
  169DOPC   O1420506   6.878   2.968  12.813  0.1535 -0.3404  0.0044
  169DOPC   O1220507   6.828   3.193  12.882 -0.0905  0.7339  0.2296
  169DOPC   O1120508   6.731   3.126  12.666 -1.4003 -0.4156 -0.4023
  169DOPC    C120509   6.679   3.256  12.643  0.3626  0.2993  0.6541
  169DOPC    HA20510   6.734   3.331  12.703  0.1560  0.3369  0.8007
  169DOPC    HB20511   6.573   3.256  12.678 -0.1675  0.5667 -0.8659
  169DOPC    C220512   6.662   3.294  12.487 -0.2317 -0.5515 -0.5930
  169DOPC    HS20513   6.644   3.403  12.477  0.0149 -0.3563  0.8135
  169DOPC   O2120514   6.562   3.209  12.427 -0.5108 -0.1381  0.0264
  169DOPC   C2120515   6.447   3.273  12.405  0.4015 -0.2450  0.0484
  169DOPC   O2220516   6.422   3.387  12.434 -0.2600 -0.3172  0.2470
  169DOPC   C2220517   6.355   3.176  12.330  0.1422  0.0395 -0.2072
  169DOPC   H2R20518   6.285   3.120  12.396 -0.4857  0.4549 -0.5068
  169DOPC   H2S20519   6.420   3.098  12.287  0.3093 -1.6012  2.7297
  169DOPC    C320520   6.804   3.263  12.426  0.3477 -0.7148 -0.0477
  169DOPC    HX20521   6.827   3.155  12.437  0.7336 -0.7248 -0.8646
  169DOPC    HY20522   6.875   3.316  12.494  2.1390 -0.1378 -2.2410
  169DOPC   O3120523   6.805   3.313  12.294  0.2486  0.7750  0.1078
  169DOPC   C3120524   6.891   3.398  12.256  0.8211  0.2258  0.3232
  169DOPC   O3220525   6.971   3.457  12.322 -0.2428  0.5999 -0.6643
  169DOPC   C3220526   6.871   3.412  12.106 -0.1529 -0.9698 -0.1287
  169DOPC   H2X20527   6.775   3.361  12.084 -1.3753  1.0098  0.4290
  169DOPC   H2Y20528   6.859   3.517  12.071 -0.2462 -0.4489  1.3950
  169DOPC   C2320529   6.282   3.237  12.209  0.8689  0.1121  0.6828
  169DOPC   H3R20530   6.336   3.323  12.163 -0.1562  0.0153 -0.7966
  169DOPC   H3S20531   6.178   3.270  12.227  0.3982 -1.0957  0.2736
  169DOPC   C2420532   6.263   3.139  12.094 -0.3865 -0.0874 -0.3831
  169DOPC   H4R20533   6.361   3.098  12.060  0.6798  1.3844  0.7794
  169DOPC   H4S20534   6.232   3.199  12.006  2.8555  0.9049 -0.9653
  169DOPC   C2520535   6.140   3.052  12.113  0.1109  0.0907 -0.1453
  169DOPC   H5R20536   6.058   3.126  12.110 -2.2112 -2.2230  1.4728
  169DOPC   H5S20537   6.150   2.997  12.209 -0.6432  0.6126  0.2418
  169DOPC   C2620538   6.119   2.951  12.003  0.3776  0.3153  0.2169
  169DOPC   H6R20539   6.218   2.900  11.997 -0.1968 -0.9497  0.9678
  169DOPC   H6S20540   6.104   2.998  11.903  0.3414  1.8031  0.9065
  169DOPC   C2720541   6.009   2.845  12.016  0.5619 -0.0718  0.1476
  169DOPC   H7R20542   6.046   2.762  12.080  0.5943 -0.7310 -0.7083
  169DOPC   H7S20543   5.973   2.806  11.918 -1.9043  2.0345  0.1044
  169DOPC   C2820544   5.877   2.904  12.070  0.3260  0.4968 -0.1905
  169DOPC   H8R20545   5.844   2.987  12.004 -1.8208 -1.4800 -1.7731
  169DOPC   H8S20546   5.913   2.930  12.171 -0.4903 -2.6513  1.0380
  169DOPC   C2920547   5.769   2.797  12.085 -0.2485 -0.2863  0.7456
  169DOPC   H9R20548   5.788   2.727  12.168  1.3029  0.3973  1.0133
  169DOPC  C21020549   5.659   2.787  12.005 -0.4669 -0.5999  0.3493
  169DOPC  H10R20550   5.592   2.704  12.030 -2.0278  0.7207  0.7833
  169DOPC  C21120551   5.624   2.874  11.886  0.0640  0.0233 -0.9492
  169DOPC  H11R20552   5.724   2.894  11.842  0.3078  1.6278  0.2370
  169DOPC  H11S20553   5.583   2.973  11.917 -0.0852 -0.2788 -0.1577
  169DOPC  C21220554   5.521   2.797  11.793 -0.9748 -0.0842 -0.2806
  169DOPC  H12R20555   5.484   2.856  11.706 -2.8869 -1.5551 -0.5444
  169DOPC  H12S20556   5.439   2.788  11.868  1.6766  2.1159  3.2168
  169DOPC  C21320557   5.552   2.658  11.739 -0.4359 -0.4008 -0.6093
  169DOPC  H13R20558   5.576   2.589  11.824 -1.8893  0.8745  0.9066
  169DOPC  H13S20559   5.655   2.665  11.697 -1.2438 -3.2315 -3.3974
  169DOPC  C21420560   5.454   2.602  11.631 -0.2020  0.0950 -0.5837
  169DOPC  H14R20561   5.489   2.667  11.549  0.4524  1.7101  0.9113
  169DOPC  H14S20562   5.353   2.627  11.670  0.4028 -0.3270  1.3903
  169DOPC  C21520563   5.468   2.453  11.598 -0.1133  0.1184  0.3969
  169DOPC  H15R20564   5.576   2.430  11.582 -0.3191 -0.6310  0.0309
  169DOPC  H15S20565   5.417   2.433  11.501  2.2829 -0.1119 -0.8839
  169DOPC  C21620566   5.412   2.366  11.710  0.1451 -0.0031 -0.4493
  169DOPC  H16R20567   5.310   2.410  11.722  1.1334  2.4188 -0.2409
  169DOPC  H16S20568   5.459   2.366  11.811 -0.4843 -1.4589 -0.1322
  169DOPC  C21720569   5.403   2.218  11.671  0.0254 -0.3522  0.3625
  169DOPC  H17R20570   5.471   2.158  11.736 -1.7860 -0.3417  2.3748
  169DOPC  H17S20571   5.421   2.213  11.561 -2.5963 -1.4579 -0.0730
  169DOPC  C21820572   5.267   2.149  11.683  0.2951 -0.1295  0.1768
  169DOPC  H18R20573   5.278   2.041  11.660  1.8717 -0.0094  0.2405
  169DOPC  H18S20574   5.190   2.202  11.622 -0.1065  0.8767  1.5279
  169DOPC  H18T20575   5.219   2.142  11.782 -1.3037 -1.8405 -0.6570
  169DOPC   C3320576   6.981   3.354  12.018 -0.1028  0.0403 -0.3205
  169DOPC   H3X20577   7.009   3.256  12.063  3.8906  1.7005  1.2703
  169DOPC   H3Y20578   7.073   3.416  12.025 -0.7170  0.8479  1.1684
  169DOPC   C3420579   6.936   3.335  11.874 -0.3047  0.1111  0.0675
  169DOPC   H4X20580   6.827   3.314  11.866 -0.6893  2.1000 -0.5408
  169DOPC   H4Y20581   7.003   3.259  11.828  0.0748 -0.2500  1.1953
  169DOPC   C3520582   6.960   3.465  11.790  0.2047  0.2869 -0.3903
  169DOPC   H5X20583   7.068   3.487  11.806  0.7038 -1.9944 -0.3289
  169DOPC   H5Y20584   6.900   3.550  11.829  1.2403  0.4817  0.8745
  169DOPC   C3620585   6.929   3.451  11.647 -0.1209  0.8290 -0.0510
  169DOPC   H6X20586   6.990   3.364  11.616  1.2724  1.5890  0.4482
  169DOPC   H6Y20587   6.824   3.417  11.643 -0.0747  0.7256 -0.3672
  169DOPC   C3720588   6.936   3.579  11.571  0.6760  0.0480 -0.7610
  169DOPC   H7X20589   6.899   3.562  11.468 -1.5477 -1.0642  0.1829
  169DOPC   H7Y20590   6.878   3.658  11.623  2.0619  0.9380 -0.4987
  169DOPC   C3820591   7.079   3.625  11.553 -0.1839  0.6228 -0.1786
  169DOPC   H8X20592   7.147   3.543  11.522  1.0183  0.6505  2.1860
  169DOPC   H8Y20593   7.115   3.657  11.653  1.3297  0.9306 -0.7957
  169DOPC   C3920594   7.109   3.748  11.467  0.2544 -0.2347  0.8269
  169DOPC   H9X20595   7.034   3.830  11.469  2.1181  1.5756  2.9673
  169DOPC  C31020596   7.213   3.761  11.383 -0.0112  0.6167 -0.2979
  169DOPC  H10X20597   7.218   3.848  11.315 -0.2211  0.4340 -0.5548
  169DOPC  C31120598   7.337   3.674  11.389  0.1038  0.4167 -0.2117
  169DOPC  H11X20599   7.362   3.630  11.290  0.1638 -2.1566  0.8696
  169DOPC  H11Y20600   7.321   3.581  11.447  0.5105  0.7716  0.4719
  169DOPC  C31220601   7.467   3.750  11.431 -0.3619  0.5153  0.2538
  169DOPC  H12X20602   7.486   3.835  11.362  2.1232 -1.4758 -1.7238
  169DOPC  H12Y20603   7.557   3.687  11.415  0.4049  1.7619 -0.5874
  169DOPC  C31320604   7.460   3.797  11.577 -0.0640  1.1462 -0.5520
  169DOPC  H13X20605   7.376   3.866  11.600  1.8359  2.5210  2.8899
  169DOPC  H13Y20606   7.442   3.704  11.636 -0.9009  0.8699 -1.2146
  169DOPC  C31420607   7.592   3.858  11.615 -0.5159  0.3799 -0.0826
  169DOPC  H14X20608   7.669   3.779  11.600  0.0132  0.4840  1.8234
  169DOPC  H14Y20609   7.619   3.940  11.546  2.0477 -0.1206  0.2376
  169DOPC  C31520610   7.624   3.940  11.741  0.4258  0.1485 -0.8057
  169DOPC  H15X20611   7.554   4.026  11.742  1.2184  0.8220 -1.6276
  169DOPC  H15Y20612   7.733   3.965  11.741  0.3961  0.3554  0.8181
  169DOPC  C31620613   7.591   3.859  11.865  0.1231 -0.3067  0.3752
  169DOPC  H16X20614   7.551   3.917  11.951  0.1793 -0.6327  0.6269
  169DOPC  H16Y20615   7.507   3.789  11.846  0.0344 -0.3865  1.0320
  169DOPC  C31720616   7.711   3.783  11.909 -0.3300 -1.1677 -0.1013
  169DOPC  H17X20617   7.731   3.710  11.829 -1.6934  0.1752 -1.7538
  169DOPC  H17Y20618   7.798   3.851  11.920 -0.1292 -1.2125 -1.3518
  169DOPC  C31820619   7.676   3.711  12.040 -0.8746 -0.2897  0.0770
  169DOPC  H18X20620   7.761   3.665  12.095 -2.0319  0.0882  2.3055
  169DOPC  H18Y20621   7.623   3.772  12.116  0.5995 -0.8356  1.6037
  169DOPC  H18Z20622   7.611   3.623  12.018 -0.2885 -1.4554  2.6338
  170DOPC     N20623   4.998   1.135  13.149  0.0764 -0.6842 -0.1379
  170DOPC   C1220624   4.891   1.145  13.043  0.1984 -0.4826 -0.0869
  170DOPC  H12A20625   4.804   1.190  13.088 -0.4081  1.7718 -3.1544
  170DOPC  H12B20626   4.857   1.050  13.005 -0.0879 -0.8501  1.0639
  170DOPC   C1320627   5.126   1.070  13.104  0.0509  0.6336 -0.0628
  170DOPC  H13A20628   5.204   1.084  13.176  2.3000  0.1704 -2.2688
  170DOPC  H13B20629   5.106   0.965  13.088 -1.0010  0.5891  1.3942
  170DOPC  H13C20630   5.152   1.108  13.006 -0.0190  2.3326  0.5372
  170DOPC   C1420631   4.935   1.058  13.263  0.3340  0.4780  0.4492
  170DOPC  H14A20632   4.931   0.954  13.234 -0.1828  0.1316  1.7037
  170DOPC  H14B20633   4.996   1.064  13.353  0.6684 -0.0575  0.2652
  170DOPC  H14C20634   4.834   1.089  13.283 -0.3785 -1.8222  0.6760
  170DOPC   C1520635   5.039   1.272  13.211 -0.1323  0.6481  0.0084
  170DOPC  H15A20636   5.081   1.343  13.142 -0.6821 -0.5942 -1.6767
  170DOPC  H15B20637   5.105   1.253  13.295 -0.9237  0.3031  0.5605
  170DOPC  H15C20638   4.945   1.320  13.231  0.3604  1.9418 -0.6549
  170DOPC   C1120639   4.929   1.228  12.922 -0.4073 -0.0477  0.4158
  170DOPC  H11A20640   4.840   1.235  12.856 -1.5408 -2.8858  1.4627
  170DOPC  H11B20641   4.952   1.328  12.965 -0.8213  0.3733 -0.3176
  170DOPC     P20642   5.028   1.037  12.767  0.0378  0.0136  0.1491
  170DOPC   O1320643   4.888   0.995  12.778 -0.3294 -0.4734  0.7094
  170DOPC   O1420644   5.133   0.949  12.817 -0.0760 -0.0972 -0.2507
  170DOPC   O1220645   5.041   1.178  12.840 -0.0737  0.0954 -0.5295
  170DOPC   O1120646   5.066   1.078  12.617 -0.4561 -0.3951 -0.7554
  170DOPC    C120647   4.991   1.192  12.565  0.1244  0.6416 -0.2167
  170DOPC    HA20648   4.994   1.287  12.622  0.1559  1.0241 -0.8495
  170DOPC    HB20649   4.881   1.180  12.571  0.0927  1.0395  0.0279
  170DOPC    C220650   5.015   1.202  12.414  0.2927  0.2958  0.9179
  170DOPC    HS20651   5.031   1.102  12.368 -0.2086  0.6426 -0.0416
  170DOPC   O2120652   5.128   1.286  12.399  0.1674  0.0250 -0.1154
  170DOPC   C2120653   5.245   1.219  12.400 -0.0337 -0.2195  0.6487
  170DOPC   O2220654   5.251   1.099  12.381  0.2685 -0.0119 -0.1600
  170DOPC   C2220655   5.357   1.323  12.410 -0.2483 -0.4787  0.6780
  170DOPC   H2R20656   5.447   1.271  12.449  0.1462 -1.3300 -1.2126
  170DOPC   H2S20657   5.311   1.400  12.475  0.0724  0.3495 -0.0477
  170DOPC    C320658   4.897   1.257  12.326  0.0524  0.2471  0.1203
  170DOPC    HX20659   4.925   1.257  12.219 -1.9906  1.2061 -0.4533
  170DOPC    HY20660   4.877   1.362  12.356 -2.2869  0.0649 -0.6031
  170DOPC   O3120661   4.773   1.190  12.351 -0.2813  0.1078 -0.2565
  170DOPC   C3120662   4.763   1.081  12.263  0.0219 -0.4065 -0.8066
  170DOPC   O3220663   4.845   1.047  12.188 -0.1898  0.3466  0.4004
  170DOPC   C3220664   4.632   1.014  12.290 -0.2681 -0.2067  0.1114
  170DOPC   H2X20665   4.638   0.960  12.387 -0.8736  0.4938  0.5565
  170DOPC   H2Y20666   4.546   1.082  12.310  0.9077  2.2188 -2.4251
  170DOPC   C2320667   5.392   1.386  12.271 -0.0999  0.1947 -0.5858
  170DOPC   H3R20668   5.435   1.489  12.265  0.2406  0.2296  1.5861
  170DOPC   H3S20669   5.295   1.394  12.217 -0.7081  1.1622  0.6004
  170DOPC   C2420670   5.481   1.298  12.187  0.5678  0.7806 -0.0327
  170DOPC   H4R20671   5.429   1.200  12.184  2.2045 -0.1569  0.9587
  170DOPC   H4S20672   5.587   1.293  12.220  0.1093  2.4832  1.9645
  170DOPC   C2520673   5.477   1.356  12.047  0.1074 -0.7599  0.2711
  170DOPC   H5R20674   5.508   1.462  12.052  0.5919 -0.9479  3.9569
  170DOPC   H5S20675   5.372   1.353  12.010  0.3951 -1.0794 -0.5503
  170DOPC   C2620676   5.573   1.281  11.949  0.3827  0.5166  0.1252
  170DOPC   H6R20677   5.536   1.176  11.948  2.6975 -0.3501  0.2410
  170DOPC   H6S20678   5.668   1.266  12.003 -0.3953  0.5281  1.5392
  170DOPC   C2720679   5.578   1.342  11.805 -0.8145  0.0086  0.4383
  170DOPC   H7R20680   5.626   1.441  11.813 -0.6914 -0.0780  0.8207
  170DOPC   H7S20681   5.472   1.356  11.774 -0.2382  0.2863 -1.4866
  170DOPC   C2820682   5.638   1.261  11.689  0.3684  0.3214  0.6303
  170DOPC   H8R20683   5.642   1.333  11.604 -1.1471  0.4995  0.6896
  170DOPC   H8S20684   5.564   1.186  11.655  0.1586  0.3758  0.9616
  170DOPC   C2920685   5.781   1.223  11.720 -0.1413  0.4631  0.2368
  170DOPC   H9R20686   5.864   1.289  11.690 -0.6095  1.3242  0.7960
  170DOPC  C21020687   5.818   1.101  11.763 -0.2428  0.2403 -0.1940
  170DOPC  H10R20688   5.923   1.079  11.787 -0.7670 -0.6944  1.3631
  170DOPC  C21120689   5.727   0.995  11.810 -0.5037 -0.0812  0.4333
  170DOPC  H11R20690   5.652   1.027  11.886  0.1303  1.6618  0.3781
  170DOPC  H11S20691   5.786   0.927  11.875 -2.1839 -1.0378  1.0201
  170DOPC  C21220692   5.677   0.901  11.703  0.6526  0.0769 -0.9675
  170DOPC  H12R20693   5.617   0.962  11.632 -0.9686 -1.6635 -1.1513
  170DOPC  H12S20694   5.611   0.821  11.741  3.9016 -1.0989  2.8451
  170DOPC  C21320695   5.785   0.827  11.614 -0.4949  0.0546 -0.2325
  170DOPC  H13R20696   5.854   0.794  11.694  1.2869 -0.0801 -1.7580
  170DOPC  H13S20697   5.832   0.905  11.550 -0.0291  0.6261  0.7743
  170DOPC  C21420698   5.731   0.716  11.532 -0.0038  0.3668  0.4143
  170DOPC  H14R20699   5.685   0.639  11.597  0.6200 -0.3376  0.0400
  170DOPC  H14S20700   5.806   0.669  11.464 -2.4549  0.0711 -2.2943
  170DOPC  C21520701   5.633   0.765  11.428  0.0658  0.0430  0.3106
  170DOPC  H15R20702   5.667   0.856  11.374 -1.5393 -0.1155 -1.0355
  170DOPC  H15S20703   5.543   0.803  11.482  0.2053  1.4185 -0.3782
  170DOPC  C21620704   5.595   0.657  11.329 -0.4326 -1.2330  0.3294
  170DOPC  H16R20705   5.565   0.562  11.378 -1.7426 -1.3773 -0.7161
  170DOPC  H16S20706   5.685   0.632  11.269 -0.0942 -1.1498  0.7909
  170DOPC  C21720707   5.476   0.703  11.243 -0.6946 -0.1204  0.8490
  170DOPC  H17R20708   5.479   0.647  11.147 -1.2882 -0.5409  1.0733
  170DOPC  H17S20709   5.478   0.808  11.206 -0.0532 -0.5157 -0.3029
  170DOPC  C21820710   5.341   0.692  11.310  0.2406  0.2683  0.1073
  170DOPC  H18R20711   5.314   0.586  11.331 -0.8172  0.3034 -0.9482
  170DOPC  H18S20712   5.273   0.733  11.233  1.3326  1.2320 -0.3630
  170DOPC  H18T20713   5.344   0.752  11.404  1.2069  1.5815 -0.7279
  170DOPC   C3320714   4.595   0.914  12.182 -0.0459  0.0888  0.7450
  170DOPC   H3X20715   4.630   0.957  12.085  2.6663 -0.2966  1.4727
  170DOPC   H3Y20716   4.486   0.895  12.177  0.1834 -1.4044  1.0554
  170DOPC   C3420717   4.654   0.771  12.199 -0.0904 -0.3730  0.3983
  170DOPC   H4X20718   4.629   0.733  12.300 -1.8286 -0.4231 -0.0196
  170DOPC   H4Y20719   4.764   0.777  12.186  0.0738 -0.8841  1.4660
  170DOPC   C3520720   4.593   0.677  12.096 -0.0651 -0.4906  0.2026
  170DOPC   H5X20721   4.482   0.687  12.090  0.0912  0.7918 -1.0228
  170DOPC   H5Y20722   4.632   0.575  12.116  0.0888 -0.4244  0.2411
  170DOPC   C3620723   4.626   0.723  11.951  0.5524  0.8456 -0.1948
  170DOPC   H6X20724   4.597   0.824  11.916  0.1783  0.2898 -1.5818
  170DOPC   H6Y20725   4.737   0.714  11.943  0.4644  0.5334 -1.2176
  170DOPC   C3720726   4.564   0.623  11.845 -0.1720 -0.8131 -0.2641
  170DOPC   H7X20727   4.580   0.515  11.866 -4.4255 -1.5683 -0.0711
  170DOPC   H7Y20728   4.454   0.630  11.858 -0.0885 -1.3606  0.8921
  170DOPC   C3820729   4.605   0.664  11.702 -0.0215 -0.6361  0.8527
  170DOPC   H8X20730   4.715   0.679  11.703  0.1427 -1.5486 -0.3275
  170DOPC   H8Y20731   4.568   0.767  11.685 -0.6117 -0.8828  0.6224
  170DOPC   C3920732   4.595   0.572  11.591  0.0881  0.5859 -0.0711
  170DOPC   H9X20733   4.691   0.549  11.542  0.8279  2.0177  0.6478
  170DOPC  C31020734   4.484   0.511  11.545  0.4605  0.2664  0.1476
  170DOPC  H10X20735   4.482   0.445  11.457 -1.5689 -0.3770  0.6179
  170DOPC  C31120736   4.341   0.544  11.591 -0.1543  0.5705  0.4452
  170DOPC  H11X20737   4.339   0.654  11.610  0.0470  1.2421 -2.7893
  170DOPC  H11Y20738   4.307   0.489  11.681 -0.8183  1.4801  0.7693
  170DOPC  C31220739   4.243   0.513  11.471 -0.0858  0.1748  0.6393
  170DOPC  H12X20740   4.144   0.551  11.502 -0.2046 -0.5012  1.1019
  170DOPC  H12Y20741   4.228   0.405  11.452  0.5692  0.5272 -2.3708
  170DOPC  C31320742   4.289   0.571  11.332 -0.7149 -0.4027 -0.1277
  170DOPC  H13X20743   4.327   0.670  11.365 -0.4449 -0.6890  0.4329
  170DOPC  H13Y20744   4.377   0.515  11.294  0.0634 -1.3243  2.8046
  170DOPC  C31420745   4.181   0.569  11.226 -0.7730 -0.0033 -0.0272
  170DOPC  H14X20746   4.232   0.611  11.137  1.4500  4.1992  2.8258
  170DOPC  H14Y20747   4.155   0.464  11.204  1.3416 -0.6198  0.1730
  170DOPC  C31520748   4.055   0.650  11.271 -0.1135  0.6783 -0.1751
  170DOPC  H15X20749   4.087   0.745  11.318 -0.0203 -0.1104  1.3959
  170DOPC  H15Y20750   3.993   0.593  11.343  0.5376  0.1906  0.0031
  170DOPC  C31620751   3.956   0.685  11.151  0.1277 -1.2096 -0.7879
  170DOPC  H16X20752   3.978   0.619  11.064 -1.8446 -1.2198 -1.3252
  170DOPC  H16Y20753   3.849   0.667  11.178 -0.2812 -0.6702 -1.9721
  170DOPC  C31720754   3.985   0.827  11.098 -0.0696 -0.0075  0.0358
  170DOPC  H17X20755   4.007   0.895  11.184 -1.8163 -0.2830  0.7443
  170DOPC  H17Y20756   4.075   0.826  11.033 -0.2697 -0.0279 -0.2407
  170DOPC  C31820757   3.875   0.886  11.022 -0.2570 -0.3951  0.7035
  170DOPC  H18X20758   3.773   0.877  11.067 -0.0333 -1.0144  1.0998
  170DOPC  H18Y20759   3.897   0.993  11.004  1.4250 -0.4191  2.3447
  170DOPC  H18Z20760   3.850   0.824  10.932 -0.6512 -0.5115  0.8886
  171DOPC     N20761   1.621   4.894   9.438 -0.1948  0.4634 -0.4587
  171DOPC   C1220762   1.722   4.798   9.497  0.5180  0.4772  0.8377
  171DOPC  H12A20763   1.816   4.808   9.444 -0.7032  3.5082 -1.0061
  171DOPC  H12B20764   1.682   4.700   9.479  0.2196  1.0842 -2.2776
  171DOPC   C1320765   1.666   5.034   9.467  0.2311  0.5962 -0.4094
  171DOPC  H13A20766   1.583   5.102   9.463 -0.5712 -0.3517 -0.2903
  171DOPC  H13B20767   1.692   5.045   9.571  2.4637 -1.6021 -0.6488
  171DOPC  H13C20768   1.752   5.064   9.408 -0.8668  2.9075 -0.9331
  171DOPC   C1420769   1.493   4.890   9.513 -0.2382  0.3832  0.5272
  171DOPC  H14A20770   1.424   4.960   9.469  2.3610  2.1123 -1.0971
  171DOPC  H14B20771   1.451   4.791   9.514  1.8716 -0.5957 -0.9127
  171DOPC  H14C20772   1.516   4.917   9.615  0.8778 -1.6581  0.8813
  171DOPC   C1520773   1.613   4.863   9.289 -0.0806 -0.2361  0.6438
  171DOPC  H15A20774   1.547   4.931   9.238  1.3432 -0.2705 -1.3677
  171DOPC  H15B20775   1.575   4.764   9.269 -1.8615  0.2408  1.4812
  171DOPC  H15C20776   1.704   4.873   9.232 -2.2593 -2.5745 -3.7360
  171DOPC   C1120777   1.746   4.801   9.651 -0.1681 -0.5138 -0.2690
  171DOPC  H11A20778   1.817   4.719   9.676  0.4374  0.4174  1.2272
  171DOPC  H11B20779   1.803   4.891   9.684 -0.2807 -1.0823  1.5960
  171DOPC     P20780   1.556   4.639   9.731 -0.2101 -0.1162 -0.5171
  171DOPC   O1320781   1.617   4.559   9.623  0.2939  0.3585  0.0668
  171DOPC   O1420782   1.412   4.655   9.712 -0.5647  0.3816 -0.9483
  171DOPC   O1220783   1.635   4.776   9.739 -0.1210  0.1485  0.4504
  171DOPC   O1120784   1.579   4.576   9.880  0.0518 -0.3155  0.6356
  171DOPC    C120785   1.700   4.593   9.954  0.3929 -0.5225  0.2567
  171DOPC    HA20786   1.788   4.609   9.888  1.1752 -0.7547  1.2198
  171DOPC    HB20787   1.729   4.502  10.011  1.9938 -0.3199 -0.1848
  171DOPC    C220788   1.693   4.705  10.056  0.1071  0.4539  0.6653
  171DOPC    HS20789   1.680   4.803  10.004  0.1675 -0.1367 -0.4960
  171DOPC   O2120790   1.805   4.695  10.143 -0.1465  0.6856 -0.3209
  171DOPC   C2120791   1.905   4.776  10.109  0.4006  0.3181  0.4716
  171DOPC   O2220792   1.907   4.855  10.010  0.1539 -0.3103 -0.7285
  171DOPC   C2220793   2.003   4.771  10.220 -0.8115 -0.2842 -0.4780
  171DOPC   H2R20794   2.097   4.727  10.179 -1.4943 -3.2203  0.8074
  171DOPC   H2S20795   1.975   4.704  10.304  2.6395 -0.8717  0.3509
  171DOPC    C320796   1.566   4.689  10.139 -0.5386 -0.3374  0.3413
  171DOPC    HX20797   1.574   4.601  10.206 -0.7039 -2.2154 -1.9765
  171DOPC    HY20798   1.480   4.661  10.075 -0.5191  0.2167  0.0614
  171DOPC   O3120799   1.539   4.813  10.203 -0.4295  0.3528 -0.6388
  171DOPC   C3120800   1.470   4.905  10.137  0.0242  0.0896 -0.0901
  171DOPC   O3220801   1.431   4.891  10.025 -0.1034 -0.2953  0.0069
  171DOPC   C3220802   1.433   5.028  10.230  0.5797  0.4872 -0.5232
  171DOPC   H2X20803   1.418   5.125  10.177 -0.0511  0.9202  0.4217
  171DOPC   H2Y20804   1.342   4.996  10.284 -0.1372  1.3142 -1.2034
  171DOPC   C2320805   2.041   4.910  10.284  0.2587 -0.5900 -0.1069
  171DOPC   H3R20806   2.059   4.977  10.197 -1.2182 -1.4258 -1.0866
  171DOPC   H3S20807   2.132   4.908  10.348  0.3857 -0.4320 -0.2810
  171DOPC   C2420808   1.933   4.962  10.373 -0.8146  0.7943  0.1172
  171DOPC   H4R20809   1.829   4.966  10.334 -1.2970 -0.0679  1.2531
  171DOPC   H4S20810   1.965   5.063  10.407  1.4207 -0.3564  1.7105
  171DOPC   C2520811   1.939   4.870  10.502  0.0107 -0.4210  0.0683
  171DOPC   H5R20812   2.038   4.820  10.511 -0.5567 -1.5664  0.1600
  171DOPC   H5S20813   1.871   4.783  10.487 -0.4439  0.2634 -2.3380
  171DOPC   C2620814   1.885   4.941  10.629  0.1132  0.5322 -0.6369
  171DOPC   H6R20815   1.905   4.881  10.720  1.0399 -0.6968 -1.6014
  171DOPC   H6S20816   1.778   4.961  10.610  0.3366  1.1418 -1.3064
  171DOPC   C2720817   1.943   5.073  10.683  0.4065 -0.1324 -0.7883
  171DOPC   H7R20818   1.934   5.131  10.588 -0.4798 -1.1962 -1.3844
  171DOPC   H7S20819   2.050   5.057  10.708 -0.2069 -1.3714  1.2507
  171DOPC   C2820820   1.859   5.129  10.801  0.6962  0.2954 -0.2038
  171DOPC   H8R20821   1.875   5.078  10.898 -1.5166  0.9221  0.5580
  171DOPC   H8S20822   1.754   5.100  10.783  1.1336  0.0930 -2.9784
  171DOPC   C2920823   1.878   5.281  10.818 -0.5521 -1.2148  0.0997
  171DOPC   H9R20824   1.882   5.332  10.721 -0.0179  0.7804  1.1093
  171DOPC  C21020825   1.877   5.354  10.929  0.2488  0.7974 -0.0182
  171DOPC  H10R20826   1.909   5.459  10.921  0.8318  0.4928 -2.3510
  171DOPC  C21120827   1.873   5.290  11.062  0.2485  0.2280 -0.1208
  171DOPC  H11R20828   1.976   5.280  11.103 -0.3572 -3.1757  0.9473
  171DOPC  H11S20829   1.833   5.187  11.050  0.5891  0.2427 -1.5404
  171DOPC  C21220830   1.782   5.359  11.160  0.2930  0.6504  0.9563
  171DOPC  H12R20831   1.772   5.294  11.249 -1.5458 -0.2205  0.1705
  171DOPC  H12S20832   1.681   5.368  11.113  0.8226  1.7513 -0.0218
  171DOPC  C21320833   1.828   5.507  11.207 -0.1524 -0.9365 -0.2925
  171DOPC  H13R20834   1.831   5.574  11.119 -2.0443  2.1177  1.7837
  171DOPC  H13S20835   1.933   5.498  11.243 -0.1368  1.9389  0.5601
  171DOPC  C21420836   1.736   5.560  11.319  0.8679  0.5721 -0.2685
  171DOPC  H14R20837   1.736   5.510  11.418  1.8541  1.9044  0.4476
  171DOPC  H14S20838   1.634   5.550  11.275  2.5002  1.1458 -4.6714
  171DOPC  C21520839   1.753   5.712  11.343  0.6010  0.7634 -0.2377
  171DOPC  H15R20840   1.766   5.769  11.249  0.1892  2.2007  0.5402
  171DOPC  H15S20841   1.850   5.729  11.394  1.6517  0.1536 -1.9504
  171DOPC  C21620842   1.633   5.777  11.414  1.0699  0.2892  0.0866
  171DOPC  H16R20843   1.623   5.727  11.513 -0.4014  0.1413 -0.1195
  171DOPC  H16S20844   1.544   5.755  11.352  0.2462  1.5667  0.7736
  171DOPC  C21720845   1.651   5.924  11.428  0.4148  0.2683  0.4888
  171DOPC  H17R20846   1.642   5.957  11.322 -0.3924 -0.7135  0.2341
  171DOPC  H17S20847   1.752   5.959  11.457  0.0004 -0.0025  2.3945
  171DOPC  C21820848   1.537   6.000  11.503 -0.2792  0.3227 -0.3437
  171DOPC  H18R20849   1.462   5.927  11.540  0.6664 -0.3277  0.3359
  171DOPC  H18S20850   1.478   6.074  11.444 -0.5688 -0.8480 -1.5558
  171DOPC  H18T20851   1.582   6.052  11.591 -0.0420  0.1642 -0.3711
  171DOPC   C3320852   1.538   5.042  10.344  0.5715  0.0601  0.2741
  171DOPC   H3X20853   1.631   5.061  10.286  0.6454  0.2355  0.4501
  171DOPC   H3Y20854   1.535   4.948  10.404  0.9161  0.2295  0.5602
  171DOPC   C3420855   1.497   5.159  10.433  0.8750  0.0457 -0.2190
  171DOPC   H4X20856   1.394   5.137  10.467  1.1427  0.5162  0.9435
  171DOPC   H4Y20857   1.481   5.257  10.383  0.5951  0.8715  1.4168
  171DOPC   C3520858   1.584   5.189  10.553 -0.4478 -0.1482 -0.3397
  171DOPC   H5X20859   1.684   5.205  10.509 -0.6746  0.4963 -0.6340
  171DOPC   H5Y20860   1.581   5.098  10.617  3.5987 -1.7877 -2.1387
  171DOPC   C3620861   1.558   5.320  10.621 -0.2450 -0.4425  0.4852
  171DOPC   H6X20862   1.627   5.337  10.707  1.9486  0.9316 -1.4123
  171DOPC   H6Y20863   1.586   5.401  10.551  1.0644  0.9921  2.5291
  171DOPC   C3720864   1.413   5.320  10.669  0.3295  0.5054  0.4279
  171DOPC   H7X20865   1.347   5.341  10.582  1.4916  1.4035 -0.2694
  171DOPC   H7Y20866   1.389   5.220  10.709  3.2525  0.0866  1.3743
  171DOPC   C3820867   1.398   5.421  10.777  0.6651 -0.2730 -0.4039
  171DOPC   H8X20868   1.433   5.519  10.739 -0.6252  0.4416  0.1696
  171DOPC   H8Y20869   1.475   5.389  10.851 -2.3793 -2.3627  2.1074
  171DOPC   C3920870   1.255   5.428  10.828  0.3230  0.1673  1.0081
  171DOPC   H9X20871   1.181   5.475  10.761 -0.0221 -1.1714  0.3982
  171DOPC  C31020872   1.208   5.399  10.949 -0.3597 -0.3883 -0.2148
  171DOPC  H10X20873   1.099   5.397  10.963 -0.4619 -0.9936 -0.9805
  171DOPC  C31120874   1.282   5.334  11.063  0.0589 -0.6141 -0.6099
  171DOPC  H11X20875   1.374   5.281  11.030  1.2346  1.7580 -1.3371
  171DOPC  H11Y20876   1.212   5.265  11.115 -0.3260 -0.6812 -1.2107
  171DOPC  C31220877   1.325   5.436  11.175 -0.3545  0.2055 -0.0800
  171DOPC  H12X20878   1.232   5.490  11.201 -1.3433 -1.7743  0.6905
  171DOPC  H12Y20879   1.396   5.517  11.147  0.7676 -0.1769  1.4641
  171DOPC  C31320880   1.384   5.382  11.308  0.2187  0.5049 -0.6484
  171DOPC  H13X20881   1.488   5.346  11.295 -0.6515 -1.6447 -2.4904
  171DOPC  H13Y20882   1.380   5.467  11.379 -1.5230 -0.1721  0.1167
  171DOPC  C31420883   1.316   5.256  11.362  0.3096 -0.3271 -0.3596
  171DOPC  H14X20884   1.205   5.258  11.368  0.2843 -1.3327 -0.3491
  171DOPC  H14Y20885   1.343   5.178  11.287 -0.1152  1.0512 -2.0008
  171DOPC  C31520886   1.376   5.217  11.498  0.4281 -0.2097 -0.6498
  171DOPC  H15X20887   1.350   5.113  11.528  0.5436 -0.3227 -0.9390
  171DOPC  H15Y20888   1.332   5.283  11.577  1.6592 -0.3246  0.1553
  171DOPC  C31620889   1.531   5.239  11.517  0.0009  0.4500 -0.3107
  171DOPC  H16X20890   1.584   5.181  11.438  1.1846 -1.9084  2.0431
  171DOPC  H16Y20891   1.546   5.347  11.495 -3.7654  1.5063  1.5450
  171DOPC  C31720892   1.587   5.204  11.660  0.4218  0.2991  0.0808
  171DOPC  H17X20893   1.543   5.267  11.740 -0.3823 -1.4934  1.1028
  171DOPC  H17Y20894   1.545   5.101  11.667 -1.1837  0.7607 -1.8845
  171DOPC  C31820895   1.742   5.212  11.675 -0.7936  0.4253  0.2396
  171DOPC  H18X20896   1.776   5.219  11.780 -2.4109 -0.8138  0.8786
  171DOPC  H18Y20897   1.784   5.130  11.612 -1.1426 -0.2110  0.8196
  171DOPC  H18Z20898   1.765   5.307  11.622  1.7299  0.8405  1.9251
  172DOPC     N20899   1.010   5.414   9.124 -0.1560 -0.3524 -0.3230
  172DOPC   C1220900   1.014   5.360   9.265 -0.6577  0.0863 -0.1862
  172DOPC  H12A20901   0.980   5.258   9.259 -2.9196  0.8206 -1.3588
  172DOPC  H12B20902   0.939   5.410   9.324 -2.6342 -0.4125 -2.1188
  172DOPC   C1320903   1.010   5.566   9.120  0.1102 -0.1312  0.3239
  172DOPC  H13A20904   0.998   5.601   9.018 -0.3235  0.5744  0.6125
  172DOPC  H13B20905   0.936   5.604   9.189  0.6703 -0.1645  0.9531
  172DOPC  H13C20906   1.105   5.607   9.150 -0.5390  2.2057 -0.6183
  172DOPC   C1420907   0.878   5.368   9.056  0.0787  0.1673 -0.1294
  172DOPC  H14A20908   0.791   5.414   9.100  2.2154  0.6093  4.0759
  172DOPC  H14B20909   0.885   5.390   8.950  0.2235 -0.7261 -0.3145
  172DOPC  H14C20910   0.878   5.261   9.066  0.8697  0.3133  1.7306
  172DOPC   C1520911   1.125   5.366   9.039 -0.2137  0.6330  0.0968
  172DOPC  H15A20912   1.217   5.413   9.071 -0.2081  0.7201 -0.0472
  172DOPC  H15B20913   1.121   5.395   8.935 -0.2650  0.2797  0.0016
  172DOPC  H15C20914   1.131   5.258   9.041 -0.3145  0.6063 -0.9491
  172DOPC   C1120915   1.148   5.373   9.337 -0.1813 -0.6585 -0.8011
  172DOPC  H11A20916   1.145   5.318   9.434 -1.5985 -0.8607 -0.9374
  172DOPC  H11B20917   1.228   5.327   9.275  1.3543  0.4721  0.2754
  172DOPC     P20918   1.099   5.600   9.466  0.1829  0.2335 -0.0207
  172DOPC   O1320919   0.953   5.591   9.448 -0.0672  0.1543 -0.1127
  172DOPC   O1420920   1.157   5.732   9.472 -0.0381 -0.3923  0.5700
  172DOPC   O1220921   1.176   5.513   9.356  0.1761 -0.0937  0.0328
  172DOPC   O1120922   1.126   5.525   9.601  0.3328  0.4479 -0.4124
  172DOPC    C120923   1.263   5.503   9.636  0.1624  0.0622  0.0541
  172DOPC    HA20924   1.321   5.596   9.622 -1.3948  1.1983  0.8865
  172DOPC    HB20925   1.306   5.427   9.567 -2.9816 -0.0036 -2.0725
  172DOPC    C220926   1.283   5.452   9.782  0.0191  0.1693 -0.7905
  172DOPC    HS20927   1.386   5.410   9.784  0.8244  2.0066  1.4284
  172DOPC   O2120928   1.180   5.349   9.800  0.6334  0.0035  0.0129
  172DOPC   C2120929   1.200   5.258   9.891 -0.0449 -1.0047 -0.6585
  172DOPC   O2220930   1.304   5.253   9.953 -0.1759 -0.3004  0.7745
  172DOPC   C2220931   1.084   5.170   9.918 -0.6250 -0.0164 -0.2094
  172DOPC   H2R20932   1.091   5.091   9.840  1.7645  2.2458 -2.5098
  172DOPC   H2S20933   0.994   5.232   9.902 -0.2825  0.5164 -0.0954
  172DOPC    C320934   1.263   5.573   9.879 -0.0749  0.1619 -0.4628
  172DOPC    HX20935   1.158   5.608   9.869 -0.1944  0.5613  1.7339
  172DOPC    HY20936   1.326   5.657   9.841 -0.1891  0.1389 -0.7058
  172DOPC   O3120937   1.286   5.538  10.016  0.1318 -0.8408  0.7323
  172DOPC   C3120938   1.421   5.554  10.048  0.3773  0.2819 -0.1833
  172DOPC   O3220939   1.502   5.612   9.982 -0.2584  0.2398 -0.5269
  172DOPC   C3220940   1.453   5.486  10.185  0.0543  0.0068 -0.1993
  172DOPC   H2X20941   1.398   5.529  10.272 -0.8333 -1.7892  0.1729
  172DOPC   H2Y20942   1.407   5.385  10.178 -0.1978  0.2339 -3.0480
  172DOPC   C2320943   1.109   5.107  10.052 -0.7847  0.2223 -0.6014
  172DOPC   H3R20944   1.210   5.063  10.045 -1.9408 -2.4599 -2.1479
  172DOPC   H3S20945   1.041   5.020  10.057 -0.5957  0.0822 -0.4689
  172DOPC   C2420946   1.075   5.193  10.179 -0.0198  0.0409 -0.6473
  172DOPC   H4R20947   1.004   5.274  10.152  0.3490 -0.0993 -2.1458
  172DOPC   H4S20948   1.168   5.249  10.200 -2.4081  4.1309 -0.0340
  172DOPC   C2520949   1.036   5.115  10.294  0.1779  0.2978 -0.2597
  172DOPC   H5R20950   1.106   5.031  10.311  0.0835  0.3025  0.1619
  172DOPC   H5S20951   0.934   5.071  10.283  0.5217 -0.5358 -0.2021
  172DOPC   C2620952   1.018   5.199  10.417 -0.4543  0.3922  0.6808
  172DOPC   H6R20953   0.944   5.280  10.399  0.6845  0.8070 -2.6819
  172DOPC   H6S20954   1.119   5.243  10.430  0.4543 -1.8031  1.5084
  172DOPC   C2720955   0.989   5.112  10.541  0.3534  0.2552  0.1373
  172DOPC   H7R20956   0.921   5.027  10.521  0.2322  0.6949 -1.5233
  172DOPC   H7S20957   0.935   5.175  10.615 -1.3018 -0.8271 -0.0978
  172DOPC   C2820958   1.120   5.072  10.605  0.0503  0.4251  0.7693
  172DOPC   H8R20959   1.161   5.170  10.635 -2.6539  1.2861  1.8839
  172DOPC   H8S20960   1.189   5.024  10.532  0.2878 -1.1388  1.9628
  172DOPC   C2920961   1.107   4.990  10.728  0.6303 -0.2419 -0.1658
  172DOPC   H9R20962   1.011   4.995  10.782  0.7156  2.0400 -0.1393
  172DOPC  C21020963   1.201   4.908  10.780 -0.3813 -0.3949 -0.3461
  172DOPC  H10R20964   1.189   4.842  10.868  0.0219 -0.0104  0.0025
  172DOPC  C21120965   1.339   4.908  10.722 -0.1986 -0.8872 -0.3106
  172DOPC  H11R20966   1.414   4.921  10.802 -1.1881 -0.8527  0.6325
  172DOPC  H11S20967   1.359   4.993  10.654  0.2303 -0.7244  0.0214
  172DOPC  C21220968   1.369   4.776  10.649  1.0124 -0.3157  0.3325
  172DOPC  H12R20969   1.310   4.792  10.556  1.7087 -0.6130 -0.1691
  172DOPC  H12S20970   1.329   4.688  10.704  0.1306  0.5924  1.1827
  172DOPC  C21320971   1.517   4.751  10.634 -0.6423  0.8030  0.3780
  172DOPC  H13R20972   1.564   4.747  10.735  0.2836 -0.9963 -0.0814
  172DOPC  H13S20973   1.566   4.842  10.593  1.7627 -0.5732 -0.0190
  172DOPC  C21420974   1.563   4.633  10.543  0.4120 -0.4788  0.6371
  172DOPC  H14R20975   1.674   4.632  10.554  0.4680  1.1330  0.5025
  172DOPC  H14S20976   1.544   4.662  10.438 -0.6778  1.0903  1.2211
  172DOPC  C21520977   1.498   4.492  10.578 -0.7660  0.0554  0.5622
  172DOPC  H15R20978   1.391   4.508  10.555 -0.7321  0.3165  0.5798
  172DOPC  H15S20979   1.496   4.480  10.689 -2.2608  2.8516  0.9451
  172DOPC  C21620980   1.566   4.369  10.507 -0.1586  0.0180  0.6440
  172DOPC  H16R20981   1.602   4.298  10.585  2.5048  0.5359 -0.0187
  172DOPC  H16S20982   1.656   4.401  10.451 -1.0523  2.2409  0.3739
  172DOPC  C21720983   1.484   4.304  10.393  0.0017  0.4169  0.1482
  172DOPC  H17R20984   1.473   4.372  10.307 -0.4320 -2.8773 -2.6284
  172DOPC  H17S20985   1.380   4.298  10.432  0.8166 -0.5386  2.4063
  172DOPC  C21820986   1.551   4.171  10.349  0.0820  0.6106  0.1001
  172DOPC  H18R20987   1.490   4.117  10.273 -0.2968  0.8789  0.2111
  172DOPC  H18S20988   1.552   4.098  10.433  1.5468 -0.3055 -0.6562
  172DOPC  H18T20989   1.647   4.187  10.295 -0.0719 -1.1516 -0.7718
  172DOPC   C3320990   1.607   5.486  10.225 -0.5997  0.5416  0.4964
  172DOPC   H3X20991   1.665   5.431  10.148  1.0235 -0.2959  2.2440
  172DOPC   H3Y20992   1.612   5.423  10.316  0.2731 -1.2976 -0.7663
  172DOPC   C3420993   1.676   5.621  10.242  0.3722  0.4442  0.2160
  172DOPC   H4X20994   1.618   5.669  10.324  0.5823 -0.1125  0.6977
  172DOPC   H4Y20995   1.679   5.681  10.149  0.1239 -0.1997 -0.2243
  172DOPC   C3520996   1.823   5.604  10.286 -0.4981 -0.0814 -0.2122
  172DOPC   H5X20997   1.881   5.697  10.271  1.0892 -1.0502 -0.3086
  172DOPC   H5Y20998   1.870   5.522  10.227 -0.8351 -0.0646 -0.5073
  172DOPC   C3620999   1.838   5.562  10.435 -0.1312  0.4548  1.2397
  172DOPC   H6X21000   1.770   5.479  10.462 -0.8997  0.9177  0.7635
  172DOPC   H6Y21001   1.941   5.521  10.448 -0.5801 -1.0068  0.4898
  172DOPC   C3721002   1.832   5.676  10.537 -0.0177 -0.0836 -0.3554
  172DOPC   H7X21003   1.884   5.771  10.513 -0.8861  0.6041  0.4165
  172DOPC   H7Y21004   1.728   5.714  10.538  1.0302  3.0192 -0.7540
  172DOPC   C3821005   1.866   5.634  10.678  0.3902  0.4016  0.9737
  172DOPC   H8X21006   1.976   5.625  10.678  0.4556  0.9543  2.1199
  172DOPC   H8Y21007   1.813   5.539  10.700  0.4218  0.0342 -0.4879
  172DOPC   C3921008   1.837   5.739  10.781 -0.2015 -0.4788 -0.0318
  172DOPC   H9X21009   1.894   5.833  10.775 -1.6091  0.4681  0.7865
  172DOPC  C31021010   1.743   5.749  10.870 -0.4193 -0.3307  0.2227
  172DOPC  H10X21011   1.756   5.828  10.946  0.5002 -0.4114  0.1613
  172DOPC  C31121012   1.633   5.659  10.890  0.1598  0.0922  0.3630
  172DOPC  H11X21013   1.647   5.584  10.970 -0.1137 -1.5604 -1.0761
  172DOPC  H11Y21014   1.616   5.596  10.800 -0.2231 -3.6717  2.8623
  172DOPC  C31221015   1.499   5.734  10.924 -0.0571 -0.0417  0.5585
  172DOPC  H12X21016   1.417   5.660  10.931  0.5923 -1.1341 -2.0580
  172DOPC  H12Y21017   1.479   5.804  10.840  2.0830 -0.1688 -0.1199
  172DOPC  C31321018   1.508   5.801  11.053 -0.0361  0.2904 -0.2684
  172DOPC  H13X21019   1.539   5.732  11.135  2.6180  1.6289 -0.0489
  172DOPC  H13Y21020   1.583   5.883  11.046 -0.9353  1.2504  0.7312
  172DOPC  C31421021   1.366   5.859  11.071  0.3230 -0.5211  0.6452
  172DOPC  H14X21022   1.339   5.907  10.975  2.2705  2.9276  1.6415
  172DOPC  H14Y21023   1.302   5.770  11.091 -0.8224  0.5814  2.1069
  172DOPC  C31521024   1.354   5.965  11.185 -0.1637 -0.8035  0.9064
  172DOPC  H15X21025   1.428   6.048  11.180 -1.5387  0.3837 -1.0692
  172DOPC  H15Y21026   1.363   5.911  11.281  1.8896 -1.3894  0.4361
  172DOPC  C31621027   1.220   6.036  11.178  0.0668  0.0797 -0.2170
  172DOPC  H16X21028   1.197   6.067  11.074  0.2446 -0.7989 -0.5288
  172DOPC  H16Y21029   1.134   5.969  11.200 -0.7196 -0.0128 -3.0791
  172DOPC  C31721030   1.223   6.155  11.269  0.1899 -0.6894 -0.3928
  172DOPC  H17X21031   1.245   6.107  11.366  1.6091 -1.2824 -0.9798
  172DOPC  H17Y21032   1.309   6.225  11.258  0.6614 -1.3227 -0.7994
  172DOPC  C31821033   1.090   6.244  11.258 -0.8138 -0.4172 -0.3303
  172DOPC  H18X21034   1.059   6.283  11.159 -1.3420  1.8390  0.6335
  172DOPC  H18Y21035   1.008   6.181  11.299  1.1611 -1.9598  1.4494
  172DOPC  H18Z21036   1.086   6.337  11.319 -1.8799  0.8148 -2.1744
  173DOPC     N21037   7.803   4.396   9.280 -0.1958  0.8730  0.1732
  173DOPC   C1221038   7.677   4.481   9.286  0.3124 -0.2099  0.2273
  173DOPC  H12A21039   7.674   4.545   9.199  1.4834 -0.8861 -0.3375
  173DOPC  H12B21040   7.681   4.560   9.361  0.3684  1.1618 -1.1687
  173DOPC   C1321041   7.799   4.287   9.169 -0.1367  0.4973 -0.6270
  173DOPC  H13A21042   7.798   4.327   9.069 -0.5296  2.4926  0.1214
  173DOPC  H13B21043   7.885   4.223   9.181 -1.0074 -0.6837 -0.5169
  173DOPC  H13C21044   7.714   4.222   9.182 -0.2070  0.4066 -1.5100
  173DOPC   C1421045   7.814   4.318   9.412 -0.4820 -0.2968  0.2751
  173DOPC  H14A21046   7.825   4.388   9.493  0.0649 -0.2551  0.1649
  173DOPC  H14B21047   7.722   4.263   9.428  0.0354 -1.5563 -0.9671
  173DOPC  H14C21048   7.906   4.263   9.405  2.1608  3.8836 -3.7880
  173DOPC   C1521049   7.927   4.484   9.262  0.2432  0.2179 -0.3204
  173DOPC  H15A21050   8.020   4.429   9.265  0.7382  1.0943  1.7928
  173DOPC  H15B21051   7.934   4.561   9.337  0.8444  2.0180 -2.1513
  173DOPC  H15C21052   7.918   4.539   9.170  0.4250 -0.4959 -0.7737
  173DOPC   C1121053   7.543   4.412   9.310  0.2714 -0.2157 -0.0333
  173DOPC  H11A21054   7.471   4.496   9.297 -0.9112 -1.4766 -2.2060
  173DOPC  H11B21055   7.533   4.339   9.227  0.6987  1.3542 -1.5316
  173DOPC     P21056   7.453   4.224   9.480 -0.2085  0.1603 -0.1735
  173DOPC   O1321057   7.528   4.161   9.588  0.0557 -0.1029  0.0976
  173DOPC   O1421058   7.422   4.138   9.360 -0.1930  0.1294  0.0454
  173DOPC   O1221059   7.528   4.358   9.442  0.5798  0.1341  0.7109
  173DOPC   O1121060   7.313   4.286   9.536  0.2744  0.6243  0.6459
  173DOPC    C121061   7.274   4.421   9.529  1.0057 -0.3624 -0.5223
  173DOPC    HA21062   7.163   4.427   9.535  0.9030 -1.6814 -0.9293
  173DOPC    HB21063   7.302   4.466   9.431  1.6599 -0.4571 -0.3826
  173DOPC    C221064   7.333   4.511   9.644 -0.3380 -0.0122  0.1697
  173DOPC    HS21065   7.443   4.498   9.638 -0.6282 -3.1352 -0.3293
  173DOPC   O2121066   7.271   4.467   9.761  0.6518 -0.5157  0.3473
  173DOPC   C2121067   7.352   4.458   9.868 -0.6032 -0.1111 -0.1292
  173DOPC   O2221068   7.471   4.486   9.873  0.4521  0.0801 -0.0894
  173DOPC   C2221069   7.290   4.387   9.989  0.2096 -0.2020 -0.3333
  173DOPC   H2R21070   7.364   4.368  10.071 -0.5772 -2.1057 -0.0070
  173DOPC   H2S21071   7.265   4.287   9.948  2.0362 -0.4717 -0.9030
  173DOPC    C321072   7.296   4.660   9.627  0.2459  0.0928  0.0683
  173DOPC    HX21073   7.186   4.674   9.635  0.3632  0.0880  2.2120
  173DOPC    HY21074   7.324   4.676   9.521 -2.2395 -1.3490 -0.8800
  173DOPC   O3121075   7.380   4.738   9.712 -0.0652  0.4048  0.0644
  173DOPC   C3121076   7.322   4.786   9.816  1.1370  0.0837  0.1043
  173DOPC   O3221077   7.203   4.773   9.840 -0.5211 -0.6876 -0.2463
  173DOPC   C3221078   7.419   4.868   9.899 -0.2263 -0.3097  0.3697
  173DOPC   H2X21079   7.450   4.805   9.985  0.3155  1.7213  1.7638
  173DOPC   H2Y21080   7.503   4.891   9.830 -0.3858 -2.0361 -0.4530
  173DOPC   C2321081   7.167   4.470  10.045 -0.0405  0.1741  0.1563
  173DOPC   H3R21082   7.101   4.402  10.104  2.9093 -4.8639 -1.7865
  173DOPC   H3S21083   7.099   4.504   9.964  2.1782  1.7105 -1.1554
  173DOPC   C2421084   7.194   4.591  10.133 -0.4964  0.4778 -0.3946
  173DOPC   H4R21085   7.109   4.600  10.204  0.4917  2.2385  0.6385
  173DOPC   H4S21086   7.184   4.686  10.076  0.4994 -0.1078 -1.5743
  173DOPC   C2521087   7.324   4.578  10.216 -0.0063  0.5349 -0.0741
  173DOPC   H5R21088   7.412   4.598  10.151 -0.1544  0.3508 -0.3318
  173DOPC   H5S21089   7.333   4.474  10.254 -1.3996  0.2233 -0.5477
  173DOPC   C2621090   7.330   4.680  10.325  0.5865  0.4116 -0.4349
  173DOPC   H6R21091   7.233   4.674  10.379 -0.0818  1.6489 -1.4450
  173DOPC   H6S21092   7.327   4.780  10.277 -2.2709  2.4247  3.4455
  173DOPC   C2721093   7.456   4.684  10.410  0.0584  0.4473 -0.1411
  173DOPC   H7R21094   7.551   4.714  10.361 -1.0897  0.0714 -2.7579
  173DOPC   H7S21095   7.462   4.582  10.456  0.6155  0.6884  0.3347
  173DOPC   C2821096   7.436   4.783  10.531  0.6358  0.4063  0.3792
  173DOPC   H8R21097   7.335   4.758  10.570  0.5915 -1.6035 -0.8956
  173DOPC   H8S21098   7.422   4.881  10.481 -0.8605 -0.7328 -1.5749
  173DOPC   C2921099   7.535   4.779  10.652  0.0652  0.8820  0.5229
  173DOPC   H9R21100   7.640   4.793  10.622  0.3691 -0.6106  0.8595
  173DOPC  C21021101   7.510   4.768  10.782  0.2783 -0.1621 -0.2781
  173DOPC  H10R21102   7.598   4.772  10.848  0.1203 -1.8493  0.0767
  173DOPC  C21121103   7.376   4.758  10.847 -0.4625 -0.2311  0.2595
  173DOPC  H11R21104   7.297   4.818  10.796  0.4569  1.4425  0.7439
  173DOPC  H11S21105   7.381   4.815  10.942 -1.3007  2.1125 -1.0152
  173DOPC  C21221106   7.314   4.612  10.880 -1.1019 -0.4355  0.5088
  173DOPC  H12R21107   7.405   4.556  10.912  0.5178  1.0791 -1.1730
  173DOPC  H12S21108   7.288   4.571  10.780 -2.9570  0.4219  0.6110
  173DOPC  C21321109   7.205   4.620  10.984  0.0381 -0.1075  0.5387
  173DOPC  H13R21110   7.111   4.668  10.950  1.0786  0.3245 -1.9011
  173DOPC  H13S21111   7.248   4.661  11.078  0.6884 -0.4393  0.3944
  173DOPC  C21421112   7.174   4.474  11.034  0.1466  0.0802 -0.0371
  173DOPC  H14R21113   7.109   4.471  11.124  0.2324 -0.6955  0.0046
  173DOPC  H14S21114   7.270   4.425  11.059  0.0881 -0.6778 -1.2281
  173DOPC  C21521115   7.108   4.389  10.928  0.1421  0.4460  0.1987
  173DOPC  H15R21116   7.174   4.358  10.844  0.5204  0.6127  0.4351
  173DOPC  H15S21117   7.027   4.445  10.877  1.1822  1.9125  0.0938
  173DOPC  C21621118   7.055   4.257  10.989  0.0228 -0.0840  0.3203
  173DOPC  H16R21119   6.969   4.280  11.055 -0.5139  2.8243 -1.2501
  173DOPC  H16S21120   7.131   4.202  11.049  1.5420  1.6831  0.1017
  173DOPC  C21721121   6.998   4.157  10.889 -0.4682 -0.2505  0.2290
  173DOPC  H17R21122   7.076   4.147  10.810 -1.9514  0.6593 -1.4353
  173DOPC  H17S21123   6.912   4.193  10.828 -1.2163 -0.9061  0.8702
  173DOPC  C21821124   6.943   4.025  10.940  0.2858  1.0846 -0.3179
  173DOPC  H18R21125   7.016   3.979  11.010  0.5812  0.9226 -0.7261
  173DOPC  H18S21126   6.912   3.955  10.859 -1.6650  1.7050 -0.1726
  173DOPC  H18T21127   6.852   4.045  11.001  0.6911  2.2128 -0.0712
  173DOPC   C3321128   7.358   5.003   9.955 -0.1981  0.4025  0.6691
  173DOPC   H3X21129   7.268   4.969  10.011  0.1602 -1.3725  0.2116
  173DOPC   H3Y21130   7.311   5.061   9.873  0.8275  1.1695  0.6070
  173DOPC   C3421131   7.452   5.098  10.034  0.2071 -0.7923 -0.7271
  173DOPC   H4X21132   7.380   5.171  10.077  0.4254 -1.2628  0.4711
  173DOPC   H4Y21133   7.518   5.157   9.967  1.1055 -2.1784 -1.1098
  173DOPC   C3521134   7.532   5.034  10.149  0.3720  0.3618  0.0979
  173DOPC   H5X21135   7.586   4.951  10.097  1.7080  2.9381 -2.9448
  173DOPC   H5Y21136   7.468   4.971  10.215 -2.5560 -1.3065 -3.8919
  173DOPC   C3621137   7.637   5.123  10.221 -0.2427 -0.1575 -0.1433
  173DOPC   H6X21138   7.679   5.184  10.138  0.0252  0.7967  0.6622
  173DOPC   H6Y21139   7.581   5.187  10.293  0.5010 -2.7605  3.0161
  173DOPC   C3721140   7.746   5.048  10.295 -0.5781 -0.1607 -0.5118
  173DOPC   H7X21141   7.702   5.004  10.387  1.8007  0.2786  0.9076
  173DOPC   H7Y21142   7.783   4.963  10.233  0.9515  0.4659 -0.4930
  173DOPC   C3821143   7.855   5.137  10.344 -0.4906  0.3649  0.4277
  173DOPC   H8X21144   7.910   5.164  10.251  1.5154  2.4533  2.0991
  173DOPC   H8Y21145   7.921   5.081  10.414  1.4169  0.4269 -1.2309
  173DOPC   C3921146   7.809   5.263  10.409  0.2929  0.0806 -0.1495
  173DOPC   H9X21147   7.821   5.355  10.350 -1.7322  0.1374 -0.5489
  173DOPC  C31021148   7.752   5.273  10.532 -0.5937 -0.1001 -0.4198
  173DOPC  H10X21149   7.711   5.366  10.574  0.0446 -0.3104  0.7031
  173DOPC  C31121150   7.744   5.166  10.637 -0.4618 -0.0522  0.0544
  173DOPC  H11X21151   7.763   5.063  10.599 -0.0186  0.8883 -2.4474
  173DOPC  H11Y21152   7.645   5.170  10.686 -1.2757  2.0419 -1.6107
  173DOPC  C31221153   7.854   5.186  10.741 -0.5099  0.0549 -0.6244
  173DOPC  H12X21154   7.842   5.286  10.789 -0.6261 -0.9382  1.5296
  173DOPC  H12Y21155   7.949   5.193  10.684  0.9291 -0.1612  1.6247
  173DOPC  C31321156   7.862   5.076  10.847 -0.5396 -0.6749  0.0515
  173DOPC  H13X21157   7.758   5.065  10.885 -0.7812  0.6677 -0.1847
  173DOPC  H13Y21158   7.904   4.982  10.805 -0.7229 -1.0127  0.6227
  173DOPC  C31421159   7.949   5.116  10.966  0.3973  0.5688  0.0851
  173DOPC  H14X21160   8.054   5.133  10.933  0.0384  1.2999 -0.7021
  173DOPC  H14Y21161   7.900   5.203  11.014  0.7456 -0.1956  1.8976
  173DOPC  C31521162   7.943   5.000  11.075  0.0153  0.0670 -0.4354
  173DOPC  H15X21163   7.993   4.910  11.033 -0.7766  0.1261 -1.5592
  173DOPC  H15Y21164   7.833   4.982  11.082 -0.2022  1.5773  0.4576
  173DOPC  C31621165   7.999   5.047  11.212  0.0702  0.6179  0.4406
  173DOPC  H16X21166   8.031   5.153  11.202  1.3694  0.1144 -1.3376
  173DOPC  H16Y21167   7.920   5.027  11.287  0.3236  1.7649  1.0265
  173DOPC  C31721168   8.122   4.964  11.259  0.4999  0.2756 -0.5160
  173DOPC  H17X21169   8.146   5.008  11.358 -0.3934  0.7581 -0.4943
  173DOPC  H17Y21170   8.091   4.860  11.280  2.1918  0.0426  0.9625
  173DOPC  C31821171   8.243   4.967  11.174  0.6147  0.8830 -0.3193
  173DOPC  H18X21172   8.330   4.942  11.238 -0.1514  1.0157  0.8076
  173DOPC  H18Y21173   8.236   4.887  11.097 -1.8525  1.9827 -1.3468
  173DOPC  H18Z21174   8.242   5.063  11.118  0.3098  1.1976  0.2231
  174DOPC     N21175   1.837   5.566   9.400  0.9161  0.1698  0.3575
  174DOPC   C1221176   1.894   5.597   9.541  0.0408 -0.1282 -0.2528
  174DOPC  H12A21177   1.853   5.527   9.612  0.4193 -1.6927 -1.5165
  174DOPC  H12B21178   1.856   5.696   9.559  2.1439  0.8531 -0.8790
  174DOPC   C1321179   1.908   5.653   9.304  0.5303 -0.2288  0.0042
  174DOPC  H13A21180   1.899   5.621   9.201 -0.1081  0.4045 -0.1432
  174DOPC  H13B21181   1.870   5.754   9.301 -0.5169 -0.6224 -0.4273
  174DOPC  H13C21182   2.015   5.645   9.317  0.9163  3.0805 -0.0532
  174DOPC   C1421183   1.691   5.595   9.401  0.3565 -0.1303 -0.8976
  174DOPC  H14A21184   1.666   5.691   9.445 -0.6552 -0.6529 -0.2819
  174DOPC  H14B21185   1.651   5.583   9.301  0.9725 -2.8502 -0.9011
  174DOPC  H14C21186   1.646   5.511   9.452 -1.8074  2.5727  2.0337
  174DOPC   C1521187   1.860   5.418   9.385 -0.1495 -0.0819 -0.3040
  174DOPC  H15A21188   1.966   5.406   9.397  0.1310 -0.3325 -2.6093
  174DOPC  H15B21189   1.843   5.377   9.286  1.9231  1.2956 -1.2840
  174DOPC  H15C21190   1.815   5.355   9.460 -0.7716 -0.6964 -1.1674
  174DOPC   C1121191   2.040   5.599   9.555  0.3595  0.1503 -0.2831
  174DOPC  H11A21192   2.077   5.684   9.494  0.9160 -0.7989 -1.3207
  174DOPC  H11B21193   2.067   5.615   9.662  0.6308  1.7915 -0.5726
  174DOPC     P21194   2.252   5.478   9.436 -0.1157 -0.0342 -0.4651
  174DOPC   O1321195   2.265   5.599   9.352 -0.0597  0.2175  0.3643
  174DOPC   O1421196   2.283   5.348   9.374 -0.2644 -0.0376  0.5481
  174DOPC   O1221197   2.106   5.486   9.509  0.5035 -0.1179 -0.2477
  174DOPC   O1121198   2.337   5.504   9.573  0.6756  0.8271 -0.1654
  174DOPC    C121199   2.361   5.400   9.670 -0.3568 -0.3384 -0.1516
  174DOPC    HA21200   2.465   5.407   9.707 -0.8053 -2.3736  1.7540
  174DOPC    HB21201   2.357   5.296   9.631 -1.7985 -0.3586 -0.0364
  174DOPC    C221202   2.253   5.412   9.783 -0.0401  0.4790 -0.0192
  174DOPC    HS21203   2.154   5.409   9.733 -0.1835  0.0744  0.2858
  174DOPC   O2121204   2.275   5.536   9.857  0.2603 -0.4381  0.0621
  174DOPC   C2121205   2.183   5.576   9.942 -0.2173 -0.0362 -0.5909
  174DOPC   O2221206   2.071   5.529   9.950  0.1215 -0.3225  0.1988
  174DOPC   C2221207   2.247   5.686  10.030  0.4351  0.5925 -0.1230
  174DOPC   H2R21208   2.249   5.783   9.975  0.7791  1.7322  1.7872
  174DOPC   H2S21209   2.354   5.665  10.049  1.2218  3.2607 -1.1149
  174DOPC    C321210   2.253   5.280   9.878 -0.5649 -0.3415  0.4309
  174DOPC    HX21211   2.259   5.186   9.819 -0.7733 -0.5452  0.7298
  174DOPC    HY21212   2.152   5.270   9.924  0.3402 -3.5244  1.9892
  174DOPC   O3121213   2.354   5.288   9.977 -0.1266 -0.8007 -0.2166
  174DOPC   C3121214   2.467   5.229   9.949 -0.4687  0.0299  0.0451
  174DOPC   O3221215   2.496   5.183   9.840 -0.0845  0.0695 -0.5014
  174DOPC   C3221216   2.544   5.228  10.078 -0.1304 -0.0331 -0.0178
  174DOPC   H2X21217   2.563   5.332  10.111 -0.8211 -0.0771  0.5474
  174DOPC   H2Y21218   2.477   5.192  10.159  0.3701  1.7940  1.2741
  174DOPC   C2321219   2.176   5.698  10.164 -0.3059 -0.7332  0.1138
  174DOPC   H3R21220   2.066   5.713  10.152 -0.6237 -0.1350  2.9865
  174DOPC   H3S21221   2.214   5.788  10.216 -1.1969 -0.6153  0.5805
  174DOPC   C2421222   2.196   5.583  10.264  0.0140 -0.1898  1.0149
  174DOPC   H4R21223   2.135   5.500  10.223  1.7679 -0.8910 -0.3016
  174DOPC   H4S21224   2.152   5.609  10.363 -0.2344  2.2228  0.3443
  174DOPC   C2521225   2.342   5.539  10.284  0.2420 -0.1455 -0.3644
  174DOPC   H5R21226   2.403   5.614  10.339 -1.7355  1.7866 -0.6631
  174DOPC   H5S21227   2.387   5.516  10.185 -2.6084 -0.6011 -1.6433
  174DOPC   C2621228   2.352   5.413  10.373 -0.1647  0.3192 -0.5240
  174DOPC   H6R21229   2.454   5.370  10.368  0.6751  2.1745 -0.3081
  174DOPC   H6S21230   2.283   5.341  10.324 -1.3225  1.5381 -0.7642
  174DOPC   C2721231   2.309   5.429  10.516  0.3145  0.1828  0.2526
  174DOPC   H7R21232   2.200   5.448  10.529 -0.0199 -1.7700  0.7040
  174DOPC   H7S21233   2.366   5.509  10.566 -0.6423  0.3003  1.1779
  174DOPC   C2821234   2.362   5.302  10.597  0.5856  0.5235  0.2638
  174DOPC   H8R21235   2.468   5.320  10.622  0.9294 -1.1576  0.1110
  174DOPC   H8S21236   2.371   5.220  10.522 -0.6228  0.6939 -0.0910
  174DOPC   C2921237   2.275   5.256  10.715  0.1472 -0.5417 -0.2726
  174DOPC   H9R21238   2.179   5.217  10.678  0.7086 -1.6423 -0.6043
  174DOPC  C21021239   2.292   5.272  10.848  0.4988 -0.1832 -0.3218
  174DOPC  H10R21240   2.214   5.239  10.918  0.4237 -1.9066 -1.1694
  174DOPC  C21121241   2.408   5.336  10.921  0.4876 -0.0380  0.3365
  174DOPC  H11R21242   2.359   5.414  10.983 -1.1347  0.4337 -1.4326
  174DOPC  H11S21243   2.474   5.398  10.856 -1.1663  1.4430 -0.0362
  174DOPC  C21221244   2.475   5.247  11.029  0.1042 -0.1015 -0.6510
  174DOPC  H12R21245   2.404   5.229  11.113  0.4682  0.2784 -0.2589
  174DOPC  H12S21246   2.556   5.314  11.065  0.4079 -1.0858  0.5685
  174DOPC  C21321247   2.534   5.122  10.969  0.2312  0.2260  0.1315
  174DOPC  H13R21248   2.460   5.070  10.906 -1.2264  1.0646  1.0969
  174DOPC  H13S21249   2.546   5.045  11.049  0.6248  0.8545  0.6918
  174DOPC  C21421250   2.661   5.140  10.879 -0.0169 -0.4714 -0.2954
  174DOPC  H14R21251   2.740   5.198  10.931  0.2475 -0.9477 -0.1635
  174DOPC  H14S21252   2.623   5.192  10.788  1.6936 -1.3288 -1.5412
  174DOPC  C21521253   2.727   5.011  10.833  0.3382  0.2044  0.2284
  174DOPC  H15R21254   2.784   4.972  10.920 -1.1762 -1.5638  0.4766
  174DOPC  H15S21255   2.809   5.032  10.761  2.1755  0.3737  2.2628
  174DOPC  C21621256   2.630   4.912  10.782 -0.0521  0.1858 -0.4591
  174DOPC  H16R21257   2.567   4.871  10.864  1.0765 -0.3818  0.1546
  174DOPC  H16S21258   2.693   4.825  10.751  0.0342  0.0391  0.1147
  174DOPC  C21721259   2.542   4.950  10.661 -0.5929  0.5198  0.5602
  174DOPC  H17R21260   2.470   5.030  10.689 -1.4734 -0.7494  2.0913
  174DOPC  H17S21261   2.477   4.862  10.641 -0.5795  0.0823  2.3263
  174DOPC  C21821262   2.620   4.988  10.531  0.0298  0.2229 -0.1752
  174DOPC  H18R21263   2.645   5.097  10.529 -2.3265  0.8116 -0.1882
  174DOPC  H18S21264   2.558   4.965  10.441  0.9296  0.0099 -0.7556
  174DOPC  H18T21265   2.710   4.927  10.509 -0.0573  1.0136 -3.1908
  174DOPC   C3321266   2.685   5.166  10.070 -0.1809 -0.2091  0.2691
  174DOPC   H3X21267   2.743   5.214   9.989 -0.1414 -0.5533  0.0929
  174DOPC   H3Y21268   2.671   5.058  10.050  0.0876  0.1030 -1.8548
  174DOPC   C3421269   2.771   5.194  10.202  0.5233 -0.1650  0.0812
  174DOPC   H4X21270   2.723   5.157  10.296  2.9294 -2.5067  0.4998
  174DOPC   H4Y21271   2.768   5.305  10.199 -2.3490 -0.1677 -0.8053
  174DOPC   C3521272   2.915   5.141  10.206  0.0223 -0.0895 -0.0266
  174DOPC   H5X21273   2.989   5.209  10.156 -1.0792 -0.3569 -2.1313
  174DOPC   H5Y21274   2.903   5.042  10.158 -0.7577  0.1609 -0.3577
  174DOPC   C3621275   2.968   5.139  10.351  0.6469  0.3354 -0.6766
  174DOPC   H6X21276   2.937   5.226  10.414 -1.7339 -1.6772  1.1365
  174DOPC   H6Y21277   2.908   5.059  10.400  0.9843  0.7845  0.5258
  174DOPC   C3721278   3.112   5.105  10.368 -0.4731 -0.2840 -0.0031
  174DOPC   H7X21279   3.123   5.015  10.305 -6.9753 -0.2967 -1.7726
  174DOPC   H7Y21280   3.171   5.181  10.313 -2.3928  2.0332  0.9625
  174DOPC   C3821281   3.174   5.086  10.512 -0.3037 -0.7176 -0.3943
  174DOPC   H8X21282   3.164   5.184  10.563  0.5332 -1.5643  1.4467
  174DOPC   H8Y21283   3.284   5.074  10.500 -0.5923 -1.1382 -3.7346
  174DOPC   C3921284   3.100   4.983  10.597 -0.9812  0.3697  0.3122
  174DOPC   H9X21285   2.998   5.017  10.624 -0.8607  0.7522  0.2937
  174DOPC  C31021286   3.149   4.868  10.649  0.3847 -0.4039 -0.2875
  174DOPC  H10X21287   3.089   4.814  10.724  2.4518 -2.3865  0.0470
  174DOPC  C31121288   3.289   4.817  10.626 -0.6101  0.5060  0.2649
  174DOPC  H11X21289   3.339   4.864  10.539 -0.7524 -0.2646 -0.2465
  174DOPC  H11Y21290   3.281   4.715  10.584 -0.0627  0.6412 -0.1728
  174DOPC  C31221291   3.383   4.822  10.745 -0.2146  0.1064  0.5683
  174DOPC  H12X21292   3.397   4.922  10.792  0.2703 -0.2574  1.2220
  174DOPC  H12Y21293   3.478   4.782  10.706 -0.6994  1.1242 -1.8113
  174DOPC  C31321294   3.339   4.721  10.849 -0.0440 -0.1438  0.4337
  174DOPC  H13X21295   3.242   4.756  10.892 -0.6219  0.4625 -1.2570
  174DOPC  H13Y21296   3.316   4.632  10.786 -0.3884  0.1392  0.1522
  174DOPC  C31421297   3.446   4.688  10.951  0.1132  0.5691 -0.5303
  174DOPC  H14X21298   3.410   4.597  11.004 -0.3861  0.3248 -1.2694
  174DOPC  H14Y21299   3.541   4.664  10.899 -1.7124  1.5544 -4.7460
  174DOPC  C31521300   3.461   4.797  11.054 -0.1537  0.1611  0.0564
  174DOPC  H15X21301   3.362   4.815  11.101  0.2908 -0.7287  1.3897
  174DOPC  H15Y21302   3.501   4.887  11.001  0.3741 -0.5167 -0.7181
  174DOPC  C31621303   3.564   4.752  11.159 -0.3219 -0.4013 -0.3596
  174DOPC  H16X21304   3.558   4.644  11.182  2.2343 -0.7036 -0.7746
  174DOPC  H16Y21305   3.660   4.762  11.103 -0.1440 -0.4166 -0.0588
  174DOPC  C31721306   3.579   4.852  11.273 -0.1699  0.4603 -0.1941
  174DOPC  H17X21307   3.494   4.835  11.343 -1.6255 -0.1990 -2.0202
  174DOPC  H17Y21308   3.667   4.826  11.335  1.3212  1.9297 -1.5858
  174DOPC  C31821309   3.577   5.000  11.236 -0.4604 -0.2872  0.4361
  174DOPC  H18X21310   3.472   5.037  11.231  0.3754  2.1018 -1.3118
  174DOPC  H18Y21311   3.629   5.055  11.317  0.1597 -0.0261 -0.1314
  174DOPC  H18Z21312   3.632   5.025  11.143  0.3417 -1.1460  0.6656
  175DOPC     N21313   0.987   6.676   9.067  0.2549  0.4265  0.7813
  175DOPC   C1221314   0.988   6.803   9.156 -0.4207  0.7360  0.0006
  175DOPC  H12A21315   1.012   6.894   9.104  1.3261  0.3364  0.0641
  175DOPC  H12B21316   1.060   6.781   9.233  1.1931 -1.0422 -1.9084
  175DOPC   C1321317   0.874   6.669   8.975  0.8160 -0.2576 -0.0173
  175DOPC  H13A21318   0.880   6.729   8.886 -4.0845  0.8216  0.0989
  175DOPC  H13B21319   0.864   6.569   8.934  1.9657 -1.0267  1.4698
  175DOPC  H13C21320   0.779   6.686   9.024  0.7449 -1.1356  0.1600
  175DOPC   C1421321   0.996   6.555   9.152 -0.3411 -0.1484 -0.2001
  175DOPC  H14A21322   0.995   6.460   9.102  0.7624 -0.9317  1.1782
  175DOPC  H14B21323   1.097   6.546   9.190  0.1316 -0.7041 -1.5424
  175DOPC  H14C21324   0.925   6.553   9.234  0.0343  0.5128  0.1494
  175DOPC   C1521325   1.108   6.678   8.986 -0.4061 -0.4154  0.7660
  175DOPC  H15A21326   1.116   6.591   8.923  2.8747  0.2557  0.0711
  175DOPC  H15B21327   1.201   6.684   9.041  0.5774  0.3682 -0.8823
  175DOPC  H15C21328   1.127   6.767   8.927  0.2352 -0.2455  1.2193
  175DOPC   C1121329   0.865   6.832   9.242  0.4784  0.3005 -0.0292
  175DOPC  H11A21330   0.884   6.935   9.277  0.7843  0.1352  0.2971
  175DOPC  H11B21331   0.777   6.838   9.174  1.6626 -2.9398 -2.0832
  175DOPC     P21332   0.936   6.732   9.468 -0.3812 -0.2506  0.1396
  175DOPC   O1321333   1.012   6.856   9.480  0.8143 -0.6358  0.8694
  175DOPC   O1421334   1.020   6.610   9.474 -0.0522 -0.1678 -0.6135
  175DOPC   O1221335   0.845   6.730   9.342 -0.0416  0.6297 -0.2132
  175DOPC   O1121336   0.820   6.725   9.576  0.4696  0.1480  0.2192
  175DOPC    C121337   0.711   6.814   9.564  0.5007 -0.3257 -0.1148
  175DOPC    HA21338   0.644   6.787   9.480 -1.1072 -0.7425  1.2491
  175DOPC    HB21339   0.748   6.917   9.547 -1.2727  0.4302  0.4310
  175DOPC    C221340   0.621   6.801   9.685 -0.0442 -0.2820  0.6544
  175DOPC    HS21341   0.542   6.879   9.684 -0.1064 -0.1730 -3.6986
  175DOPC   O2121342   0.696   6.797   9.811  0.0148 -0.2720  0.2965
  175DOPC   C2121343   0.761   6.910   9.833 -0.1214  0.0000  0.7090
  175DOPC   O2221344   0.740   7.024   9.793  0.1684 -0.7423 -0.5131
  175DOPC   C2221345   0.867   6.877   9.941  0.0851 -0.0948 -0.5004
  175DOPC   H2R21346   0.950   6.825   9.889 -1.3585 -2.2256 -0.8063
  175DOPC   H2S21347   0.832   6.799  10.011  2.9594 -0.4450  0.7037
  175DOPC    C321348   0.534   6.667   9.662  0.3282  0.5108 -0.7597
  175DOPC    HX21349   0.618   6.598   9.638  1.7132  1.3582  1.3472
  175DOPC    HY21350   0.468   6.676   9.573  1.1950 -1.1302 -1.6085
  175DOPC   O3121351   0.451   6.628   9.779 -0.1165  0.1853  0.2428
  175DOPC   C3121352   0.513   6.545   9.859  0.2527  0.1209  0.0881
  175DOPC   O3221353   0.619   6.489   9.836  0.1911 -0.0613 -0.2884
  175DOPC   C3221354   0.425   6.515   9.972  1.0325  0.4002 -0.5946
  175DOPC   H2X21355   0.429   6.598  10.046  0.1273 -1.0191  1.1414
  175DOPC   H2Y21356   0.323   6.503   9.931 -0.3588  2.0011  2.1240
  175DOPC   C2321357   0.922   7.005  10.013  0.0966  0.0789  1.2146
  175DOPC   H3R21358   0.861   7.051  10.093  0.1718 -0.6217  1.6826
  175DOPC   H3S21359   0.934   7.086   9.938 -1.0027 -0.6296  0.2376
  175DOPC   C2421360   1.058   6.980  10.076  0.3082 -0.1124 -0.0521
  175DOPC   H4R21361   1.092   7.079  10.113  0.5337 -0.7997  1.6933
  175DOPC   H4S21362   1.134   6.952  10.000  0.7179 -1.3673  0.7830
  175DOPC   C2521363   1.046   6.879  10.194  0.3618 -1.4339 -0.2469
  175DOPC   H5R21364   1.013   6.782  10.151 -0.7891 -1.2133  0.1096
  175DOPC   H5S21365   0.971   6.913  10.268  0.8049 -0.0280 -0.4128
  175DOPC   C2621366   1.197   6.848  10.245  0.9178  0.0146 -0.9234
  175DOPC   H6R21367   1.274   6.834  10.167  2.1919  1.4546  0.0020
  175DOPC   H6S21368   1.191   6.760  10.313  0.1160  0.6609 -0.1222
  175DOPC   C2721369   1.241   6.965  10.329  0.8237  0.1851  0.3514
  175DOPC   H7R21370   1.175   6.975  10.418 -0.1519 -2.7156  0.0645
  175DOPC   H7S21371   1.226   7.054  10.264 -0.3926 -0.9283 -0.9373
  175DOPC   C2821372   1.389   6.966  10.383  0.7133 -0.7313 -0.4486
  175DOPC   H8R21373   1.421   7.069  10.411  0.3204 -0.8832  0.6127
  175DOPC   H8S21374   1.455   6.940  10.297  2.4588  0.8833  0.3151
  175DOPC   C2921375   1.411   6.859  10.483 -0.8247 -0.6272  0.4376
  175DOPC   H9R21376   1.390   6.760  10.439  0.4024 -0.3087 -0.9783
  175DOPC  C21021377   1.457   6.879  10.610  0.9462 -0.0770  0.5742
  175DOPC  H10R21378   1.476   6.797  10.680 -0.1626  1.2145  2.5074
  175DOPC  C21121379   1.480   7.014  10.674  0.4145 -0.3027 -0.0268
  175DOPC  H11R21380   1.436   7.095  10.611 -2.3802 -1.2143  0.6141
  175DOPC  H11S21381   1.587   7.033  10.699  0.4928 -0.2496 -0.3902
  175DOPC  C21221382   1.407   7.003  10.813 -0.1498  0.0037 -0.0340
  175DOPC  H12R21383   1.302   6.966  10.805 -0.5287  1.0497  0.0094
  175DOPC  H12S21384   1.401   7.105  10.856  0.9431 -0.0242  0.2097
  175DOPC  C21321385   1.487   6.912  10.906 -0.0761 -0.3509  0.1735
  175DOPC  H13R21386   1.594   6.939  10.899 -0.3439  1.0635  1.1504
  175DOPC  H13S21387   1.485   6.804  10.879 -1.8054 -0.3747  0.2654
  175DOPC  C21421388   1.442   6.914  11.049 -0.5616 -0.0940 -0.8154
  175DOPC  H14R21389   1.337   6.880  11.059 -0.4254 -0.8519 -1.9089
  175DOPC  H14S21390   1.440   7.019  11.088  0.1393 -0.4904  0.3478
  175DOPC  C21521391   1.542   6.835  11.140 -0.6289 -0.7177  0.0153
  175DOPC  H15R21392   1.627   6.901  11.168 -1.4510 -0.2386  1.4842
  175DOPC  H15S21393   1.595   6.752  11.089  1.6255  0.2833  0.5918
  175DOPC  C21621394   1.482   6.787  11.276 -0.4812 -0.4060 -0.2230
  175DOPC  H16R21395   1.439   6.871  11.336 -0.7666 -0.7728  0.0929
  175DOPC  H16S21396   1.565   6.741  11.334 -0.5035 -2.1022 -1.4504
  175DOPC  C21721397   1.380   6.678  11.262  0.1149  0.1867 -0.1359
  175DOPC  H17R21398   1.307   6.689  11.178 -2.0961  0.9396  1.7767
  175DOPC  H17S21399   1.308   6.691  11.345 -0.9441 -2.0183 -0.6440
  175DOPC  C21821400   1.448   6.537  11.270 -0.0930 -0.5050  0.4238
  175DOPC  H18R21401   1.376   6.453  11.283 -0.9223  0.1646  0.2383
  175DOPC  H18S21402   1.524   6.532  11.351  0.3566 -2.1008 -0.0565
  175DOPC  H18T21403   1.503   6.529  11.174  1.2424  1.4561  0.9673
  175DOPC   C3321404   0.472   6.394  10.052  0.4161  0.5335 -0.3666
  175DOPC   H3X21405   0.582   6.400  10.068  0.4706  0.3007 -0.6292
  175DOPC   H3Y21406   0.452   6.303   9.991  0.2168  1.4154 -1.6498
  175DOPC   C3421407   0.396   6.361  10.178  0.3155 -0.8521 -0.0554
  175DOPC   H4X21408   0.424   6.261  10.216 -0.5880 -1.7358 -1.6311
  175DOPC   H4Y21409   0.290   6.354  10.147  0.6997 -0.9032 -1.3938
  175DOPC   C3521410   0.414   6.454  10.304 -0.5885 -0.2931  1.5099
  175DOPC   H5X21411   0.381   6.560  10.300  0.8657  0.2416  2.8456
  175DOPC   H5Y21412   0.524   6.454  10.314 -0.5284  1.7284  1.2425
  175DOPC   C3621413   0.358   6.378  10.423  0.5959 -0.0313  0.5972
  175DOPC   H6X21414   0.248   6.390  10.409  0.9449  2.1735 -0.5824
  175DOPC   H6Y21415   0.393   6.272  10.423 -0.1143 -0.2780 -0.2703
  175DOPC   C3721416   0.390   6.442  10.558  0.3267 -0.1029  0.5743
  175DOPC   H7X21417   0.498   6.435  10.582  0.6670 -0.0772 -0.9050
  175DOPC   H7Y21418   0.378   6.552  10.548  0.9606  0.1528  2.3079
  175DOPC   C3821419   0.296   6.371  10.655  0.0921  0.2546 -0.1383
  175DOPC   H8X21420   0.293   6.260  10.658  0.4437  0.2606  0.7908
  175DOPC   H8Y21421   0.189   6.394  10.633  0.3290  0.3760 -1.2131
  175DOPC   C3921422   0.321   6.407  10.800  0.9289 -0.1938  0.7797
  175DOPC   H9X21423   0.425   6.397  10.832  0.9211 -0.5910  0.6886
  175DOPC  C31021424   0.244   6.454  10.895 -0.1952 -0.1025 -0.3572
  175DOPC  H10X21425   0.282   6.474  10.996 -4.1043  2.2812  0.8388
  175DOPC  C31121426   0.095   6.477  10.900 -0.1409  0.3843  0.0220
  175DOPC  H11X21427   0.064   6.413  10.985  1.3034 -1.1088 -0.5179
  175DOPC  H11Y21428   0.036   6.437  10.815 -0.8968 -0.4769  0.9243
  175DOPC  C31221429   0.041   6.614  10.933 -1.3016  0.1787 -0.3320
  175DOPC  H12X21430   0.075   6.678  10.849 -1.2823  2.4365  1.2904
  175DOPC  H12Y21431   0.092   6.655  11.023  1.1512  1.0049 -1.9795
  175DOPC  C31321432  -0.108   6.633  10.955  0.3443  0.6157  0.6886
  175DOPC  H13X21433  -0.132   6.573  11.045 -1.4963  2.2436  1.3404
  175DOPC  H13Y21434  -0.136   6.734  10.992 -3.4173 -0.3945  0.9936
  175DOPC  C31421435  -0.191   6.591  10.833 -0.2034 -0.4328 -0.2477
  175DOPC  H14X21436  -0.174   6.673  10.759  1.3212 -0.9042 -0.4657
  175DOPC  H14Y21437  -0.163   6.494  10.786 -2.7324 -1.8826  1.0620
  175DOPC  C31521438  -0.342   6.583  10.865  0.0454  0.6865 -0.7166
  175DOPC  H15X21439  -0.366   6.658  10.944 -0.0136  0.4100 -0.4696
  175DOPC  H15Y21440  -0.361   6.484  10.910  0.3174  0.6866 -0.5998
  175DOPC  C31621441  -0.445   6.607  10.753 -0.8083  0.4744 -1.0563
  175DOPC  H16X21442  -0.452   6.718  10.745  1.1768  0.8014  0.6105
  175DOPC  H16Y21443  -0.402   6.559  10.663 -2.4019 -0.2705 -1.4379
  175DOPC  C31721444  -0.588   6.564  10.777  0.2236  0.9160  0.7206
  175DOPC  H17X21445  -0.603   6.454  10.775  0.8751  0.8178 -1.5899
  175DOPC  H17Y21446  -0.622   6.599  10.877 -4.3752 -0.8337  0.0480
  175DOPC  C31821447  -0.688   6.620  10.666 -0.0016 -0.5010  0.5449
  175DOPC  H18X21448  -0.674   6.561  10.573 -2.0381  1.2885 -0.9955
  175DOPC  H18Y21449  -0.793   6.609  10.698 -0.3568 -0.8418 -0.6855
  175DOPC  H18Z21450  -0.667   6.727  10.646  1.7345 -0.3783  2.6054
  176DOPC     N21451   2.919   3.507   9.208 -0.1714  0.3239 -0.1522
  176DOPC   C1221452   3.029   3.408   9.236 -0.7159  0.9631  0.0835
  176DOPC  H12A21453   3.131   3.439   9.219 -0.3335 -0.9736 -1.5655
  176DOPC  H12B21454   3.023   3.327   9.165 -1.7660 -0.3851  1.6271
  176DOPC   C1321455   2.946   3.594   9.087  0.4856  0.0558 -0.5791
  176DOPC  H13A21456   3.030   3.658   9.108 -1.0652  1.3406  2.1847
  176DOPC  H13B21457   2.979   3.524   9.011 -0.2832 -0.4893 -0.4316
  176DOPC  H13C21458   2.864   3.652   9.047 -0.3458 -0.8339 -0.2261
  176DOPC   C1421459   2.902   3.594   9.329  0.7403 -0.0932  0.3865
  176DOPC  H14A21460   2.994   3.646   9.346  1.1042 -0.6986  0.3149
  176DOPC  H14B21461   2.830   3.674   9.314  0.7022  0.3336  2.5283
  176DOPC  H14C21462   2.876   3.535   9.416 -1.3558 -1.9370 -1.3583
  176DOPC   C1521463   2.793   3.434   9.185 -0.0727  0.0152  0.2621
  176DOPC  H15A21464   2.800   3.356   9.109 -0.6598  0.2506 -0.0387
  176DOPC  H15B21465   2.709   3.493   9.153  0.6436  1.3208  0.7446
  176DOPC  H15C21466   2.764   3.381   9.274 -0.3264  1.5515  1.1136
  176DOPC   C1121467   3.044   3.351   9.382 -0.2557 -0.5182 -0.1671
  176DOPC  H11A21468   3.123   3.275   9.364  0.8885  0.6207  0.0137
  176DOPC  H11B21469   3.084   3.426   9.452  1.6386 -1.0133 -0.6619
  176DOPC     P21470   2.878   3.307   9.580 -0.4150  0.1518 -0.1351
  176DOPC   O1321471   2.791   3.196   9.615  0.7537 -0.1232 -0.7808
  176DOPC   O1421472   2.818   3.442   9.576  0.4599  0.1012 -0.3512
  176DOPC   O1221473   2.944   3.277   9.439  0.9937  0.3942 -0.4592
  176DOPC   O1121474   3.015   3.317   9.666  0.4905 -0.2152  0.1821
  176DOPC    C121475   3.086   3.191   9.684 -0.3700 -0.6470 -0.0298
  176DOPC    HA21476   3.191   3.216   9.709 -0.5889  2.4279 -1.7331
  176DOPC    HB21477   3.083   3.126   9.594 -3.4741  2.1698 -2.1925
  176DOPC    C221478   3.029   3.103   9.805  0.0876 -0.5079  0.9383
  176DOPC    HS21479   2.927   3.094   9.762  0.8053  0.4845 -1.0739
  176DOPC   O2121480   3.041   3.168   9.930  0.1819 -0.5480 -0.0826
  176DOPC   C2121481   2.930   3.176  10.000  0.7857 -0.5182 -0.2033
  176DOPC   O2221482   2.832   3.105   9.988  0.7159 -0.6613  0.0304
  176DOPC   C2221483   2.948   3.288  10.098 -0.3338  0.1557  0.1857
  176DOPC   H2R21484   3.002   3.374  10.052 -1.2616  0.3970 -0.4936
  176DOPC   H2S21485   3.008   3.258  10.186 -0.9061  0.7382  0.7859
  176DOPC    C321486   3.094   2.963   9.821  0.7921 -0.5935  0.1717
  176DOPC    HX21487   3.194   2.977   9.868  0.6740 -0.4411  0.3752
  176DOPC    HY21488   3.109   2.924   9.717 -1.5141  0.8816 -0.7816
  176DOPC   O3121489   3.022   2.870   9.909 -0.0684  0.7243 -0.0933
  176DOPC   C3121490   2.917   2.807   9.852  0.0689 -0.1821  0.4658
  176DOPC   O3221491   2.882   2.820   9.736  0.1591  0.2551 -0.1991
  176DOPC   C3221492   2.863   2.704   9.957  0.5538 -0.3559  0.5636
  176DOPC   H2X21493   2.894   2.749  10.053  2.5299  1.4676 -0.8296
  176DOPC   H2Y21494   2.756   2.689   9.932  0.6553 -0.4334  0.1734
  176DOPC   C2321495   2.804   3.343  10.131 -0.1745  0.4203 -0.4488
  176DOPC   H3R21496   2.824   3.419  10.211  1.5319  0.0830 -0.5151
  176DOPC   H3S21497   2.739   3.264  10.173  1.3139 -1.3511 -1.3293
  176DOPC   C2421498   2.734   3.415  10.021  0.2723  0.4737  0.0564
  176DOPC   H4R21499   2.688   3.340   9.952  0.3425  0.2375  0.2638
  176DOPC   H4S21500   2.806   3.482   9.970  1.1239 -1.3168 -1.2248
  176DOPC   C2521501   2.616   3.496  10.072  0.2124  0.0803 -0.5647
  176DOPC   H5R21502   2.643   3.578  10.142  0.3126  2.1505 -2.8661
  176DOPC   H5S21503   2.544   3.425  10.118 -0.4668  0.1221 -1.5254
  176DOPC   C2621504   2.552   3.575   9.952  0.0990 -0.2546  0.8941
  176DOPC   H6R21505   2.496   3.502   9.890  0.6866 -1.1439  1.3903
  176DOPC   H6S21506   2.629   3.620   9.887  0.3073 -1.1446  0.5127
  176DOPC   C2721507   2.452   3.676  10.009  0.1528  0.2794 -0.1483
  176DOPC   H7R21508   2.384   3.610  10.065  0.7069  0.5397  0.8597
  176DOPC   H7S21509   2.376   3.720   9.941  0.5244 -0.2970 -0.9586
  176DOPC   C2821510   2.517   3.790  10.091  0.1067 -0.1851  1.1417
  176DOPC   H8R21511   2.613   3.766  10.142  0.9089 -1.0949 -0.6949
  176DOPC   H8S21512   2.443   3.829  10.164 -0.4684  3.0650 -0.9527
  176DOPC   C2921513   2.551   3.891   9.986 -1.1400 -0.5379  0.3298
  176DOPC   H9R21514   2.543   3.859   9.881 -0.4250 -1.0288  0.4166
  176DOPC  C21021515   2.567   4.026  10.002 -0.1660 -0.0646 -0.2367
  176DOPC  H10R21516   2.578   4.084   9.909  1.7645  1.3670  0.8098
  176DOPC  C21121517   2.555   4.105  10.133 -0.1252 -0.4837  0.3876
  176DOPC  H11R21518   2.642   4.175  10.141  0.3175 -0.9253 -0.4263
  176DOPC  H11S21519   2.553   4.044  10.226 -0.2844 -0.3400  0.4782
  176DOPC  C21221520   2.426   4.192  10.147 -0.4447 -0.3733  0.1155
  176DOPC  H12R21521   2.334   4.130  10.135  0.3530 -1.4520 -0.5991
  176DOPC  H12S21522   2.434   4.266  10.066  1.7790 -0.0081  0.6142
  176DOPC  C21321523   2.421   4.272  10.277  0.6475 -0.4445 -1.0307
  176DOPC  H13R21524   2.324   4.328  10.279  1.2594  0.6272 -0.2284
  176DOPC  H13S21525   2.505   4.344  10.274  2.0430 -1.9243  0.3475
  176DOPC  C21421526   2.433   4.196  10.407  0.5797  0.5858 -0.4141
  176DOPC  H14R21527   2.409   4.256  10.497 -1.1128 -0.9048  0.1959
  176DOPC  H14S21528   2.538   4.165  10.425 -0.2712 -2.1346  0.3590
  176DOPC  C21521529   2.350   4.064  10.408  0.3722 -0.0257  0.1265
  176DOPC  H15R21530   2.369   4.007  10.314  1.8426  0.2721  0.2290
  176DOPC  H15S21531   2.242   4.090  10.413  0.0560 -1.4263  1.4635
  176DOPC  C21621532   2.388   3.974  10.526 -0.3660 -0.4989  0.9267
  176DOPC  H16R21533   2.497   3.971  10.548 -0.1124  1.6356  0.1991
  176DOPC  H16S21534   2.366   3.868  10.498 -2.2751 -0.9548  3.6916
  176DOPC  C21721535   2.316   4.013  10.650 -0.1800  0.2227 -0.4391
  176DOPC  H17R21536   2.214   4.046  10.621 -0.1869 -1.4105 -2.4862
  176DOPC  H17S21537   2.371   4.107  10.675  2.8199 -1.2904 -0.8516
  176DOPC  C21821538   2.327   3.909  10.761  0.0955 -1.0445 -0.1679
  176DOPC  H18R21539   2.430   3.879  10.789  0.4362  0.6425  0.4921
  176DOPC  H18S21540   2.287   3.809  10.733 -0.7542 -0.6142 -0.5467
  176DOPC  H18T21541   2.270   3.955  10.845  0.8189 -0.8541  0.2209
  176DOPC   C3321542   2.946   2.572   9.948  0.4370 -0.2731  0.4384
  176DOPC   H3X21543   3.053   2.602   9.949  0.5498 -0.6412  2.3182
  176DOPC   H3Y21544   2.920   2.520   9.853  0.5405 -0.7285  0.6587
  176DOPC   C3421545   2.909   2.474  10.063  0.4408 -0.4926  0.6071
  176DOPC   H4X21546   2.935   2.530  10.156 -0.0013  1.6759 -0.4895
  176DOPC   H4Y21547   2.972   2.385  10.041  0.7500  0.0486 -0.7871
  176DOPC   C3521548   2.761   2.448  10.063  0.3134 -0.4974  0.1611
  176DOPC   H5X21549   2.729   2.416   9.961  1.6830  0.1959 -0.5074
  176DOPC   H5Y21550   2.711   2.544  10.086  0.7165 -0.7518  2.2988
  176DOPC   C3621551   2.719   2.334  10.161  0.3809 -0.2816 -0.1655
  176DOPC   H6X21552   2.778   2.244  10.131 -1.9782 -1.3830 -1.8906
  176DOPC   H6Y21553   2.752   2.365  10.262  1.5203  2.7592 -1.3513
  176DOPC   C3721554   2.571   2.306  10.158 -0.0667  0.2142 -0.6034
  176DOPC   H7X21555   2.534   2.397  10.210  0.4032 -0.3029  0.6756
  176DOPC   H7Y21556   2.538   2.309  10.052  0.3229  0.1049 -0.7290
  176DOPC   C3821557   2.532   2.179  10.223  0.5249  0.1698 -0.4528
  176DOPC   H8X21558   2.562   2.195  10.328 -2.2195 -0.5832  0.5344
  176DOPC   H8Y21559   2.584   2.086  10.192  0.7633  0.3989 -0.7452
  176DOPC   C3921560   2.384   2.164  10.215 -0.4951 -0.6303 -0.6484
  176DOPC   H9X21561   2.345   2.163  10.111  0.6042 -1.3571 -1.0634
  176DOPC  C31021562   2.306   2.165  10.330  0.0183 -0.0445 -0.0577
  176DOPC  H10X21563   2.196   2.162  10.325  0.0447 -2.0296 -0.1429
  176DOPC  C31121564   2.350   2.208  10.465  0.1561  0.0362 -0.3890
  176DOPC  H11X21565   2.397   2.308  10.467  1.2344 -0.4347 -1.0647
  176DOPC  H11Y21566   2.418   2.131  10.507 -0.0286 -0.3066 -0.7108
  176DOPC  C31221567   2.230   2.207  10.554  0.2472 -0.5077  0.0674
  176DOPC  H12X21568   2.140   2.260  10.518 -0.9137 -2.5785 -0.1909
  176DOPC  H12Y21569   2.264   2.265  10.643 -2.0253  0.2276  0.5091
  176DOPC  C31321570   2.189   2.071  10.609 -0.3620 -0.2825  0.0222
  176DOPC  H13X21571   2.277   2.006  10.593  1.2621  1.6230  0.7251
  176DOPC  H13Y21572   2.173   2.077  10.719  0.6696 -0.4846  0.1975
  176DOPC  C31421573   2.073   2.001  10.544  0.1749  0.4142 -0.8546
  176DOPC  H14X21574   1.980   2.047  10.584 -0.4920 -0.8745 -0.8687
  176DOPC  H14Y21575   2.069   2.024  10.435 -1.9883 -0.1227 -0.9314
  176DOPC  C31521576   2.069   1.848  10.577 -0.3555  0.7463  0.5407
  176DOPC  H15X21577   2.164   1.796  10.555  0.1803  1.4017  1.2363
  176DOPC  H15Y21578   1.989   1.804  10.513 -1.1677  1.6731  0.8961
  176DOPC  C31621579   2.032   1.812  10.714  0.5119  0.3471 -0.1841
  176DOPC  H16X21580   2.018   1.703  10.733 -0.0344  0.4593  0.1085
  176DOPC  H16Y21581   2.113   1.861  10.772 -0.2103  0.7795  0.4842
  176DOPC  C31721582   1.902   1.878  10.765  0.3844  0.1792  0.0925
  176DOPC  H17X21583   1.936   1.984  10.774  1.8495 -0.4417  3.1257
  176DOPC  H17Y21584   1.821   1.868  10.690  1.4022 -2.1814 -0.7841
  176DOPC  C31821585   1.857   1.804  10.889 -0.1160 -0.1415 -0.3129
  176DOPC  H18X21586   1.775   1.858  10.942 -1.3290 -1.5995 -0.6320
  176DOPC  H18Y21587   1.821   1.702  10.862  1.7231 -1.0264  0.4053
  176DOPC  H18Z21588   1.938   1.795  10.965  0.3135 -0.9397 -0.8520
  177DOPC     N21589   3.904   0.684   9.163 -0.3572  0.4042 -0.1141
  177DOPC   C1221590   3.872   0.682   9.320  0.4724  0.3797  0.3148
  177DOPC  H12A21591   3.930   0.599   9.357  1.2327  1.0147  0.6061
  177DOPC  H12B21592   3.769   0.652   9.332  0.7156 -0.3372  0.6657
  177DOPC   C1321593   3.857   0.554   9.111  0.1425 -0.3240 -0.6302
  177DOPC  H13A21594   3.892   0.468   9.164 -0.8630 -1.8771 -2.3705
  177DOPC  H13B21595   3.752   0.532   9.122  0.1851 -0.5440 -0.6692
  177DOPC  H13C21596   3.897   0.537   9.012  3.8483  1.5381  0.3367
  177DOPC   C1421597   4.050   0.689   9.137  0.3824  0.0516 -0.5138
  177DOPC  H14A21598   4.099   0.593   9.154 -0.4437 -0.7291 -2.3359
  177DOPC  H14B21599   4.078   0.722   9.038 -0.3749  0.9357 -0.4417
  177DOPC  H14C21600   4.096   0.763   9.201  0.1769 -0.7668  0.6158
  177DOPC   C1521601   3.840   0.799   9.099  0.2791 -0.7902  0.5342
  177DOPC  H15A21602   3.829   0.798   8.991  1.7691  1.3224  0.3033
  177DOPC  H15B21603   3.883   0.895   9.121 -0.3968 -0.4685  0.4641
  177DOPC  H15C21604   3.739   0.814   9.132 -0.4292 -1.2913 -1.2702
  177DOPC   C1121605   3.900   0.814   9.403 -0.6810  0.1110 -0.6491
  177DOPC  H11A21606   3.878   0.789   9.509  3.3794 -3.2257 -0.3618
  177DOPC  H11B21607   4.010   0.826   9.395 -0.4331  0.6954  2.5555
  177DOPC     P21608   3.692   0.977   9.404  0.3093 -0.3195 -0.1979
  177DOPC   O1321609   3.588   0.943   9.306 -0.1768  0.3102 -0.0763
  177DOPC   O1421610   3.696   1.117   9.450 -0.4208  0.8404 -0.0736
  177DOPC   O1221611   3.831   0.931   9.348 -0.3629  0.0445 -0.0496
  177DOPC   O1121612   3.664   0.887   9.534  0.5488  0.0245  0.6782
  177DOPC    C121613   3.582   0.942   9.639 -0.0524 -0.1850  0.4449
  177DOPC    HA21614   3.517   0.854   9.660  0.2880 -1.7031 -3.7894
  177DOPC    HB21615   3.509   1.017   9.603 -0.6155  0.4627  2.7748
  177DOPC    C221616   3.675   0.996   9.751  0.3319  0.4791  0.1945
  177DOPC    HS21617   3.715   1.084   9.696 -0.0450  0.0213 -0.8452
  177DOPC   O2121618   3.774   0.888   9.793 -0.1560 -0.0424 -0.2019
  177DOPC   C2121619   3.895   0.930   9.776  0.2542  0.4390  0.3137
  177DOPC   O2221620   3.931   1.038   9.729 -0.0040 -0.1015 -0.0240
  177DOPC   C2221621   3.987   0.803   9.797  0.0717  0.4067 -0.1161
  177DOPC   H2R21622   4.070   0.826   9.727  0.4664  0.2621  0.2976
  177DOPC   H2S21623   3.945   0.708   9.760  1.0604 -0.4259  0.8355
  177DOPC    C321624   3.584   1.039   9.866  0.0875  0.0324  0.2677
  177DOPC    HX21625   3.537   0.953   9.918 -0.6355  0.5435  0.4726
  177DOPC    HY21626   3.496   1.096   9.828 -0.8015 -2.3228 -1.5203
  177DOPC   O3121627   3.672   1.113   9.952 -0.1065 -0.1682 -0.1442
  177DOPC   C3121628   3.664   1.241   9.968  0.1448  0.3162  0.2355
  177DOPC   O3221629   3.591   1.316   9.907  0.4758 -0.2450 -0.1431
  177DOPC   C3221630   3.769   1.284  10.074  0.2191  0.2654 -0.7244
  177DOPC   H2X21631   3.812   1.188  10.110 -1.9360 -0.2209  0.7288
  177DOPC   H2Y21632   3.847   1.347  10.027  0.7801  0.2737  0.1895
  177DOPC   C2321633   4.031   0.780   9.940 -0.1163 -0.0515  0.0168
  177DOPC   H3R21634   3.952   0.817  10.009 -0.7099  0.4898 -0.9427
  177DOPC   H3S21635   4.122   0.841   9.957  1.0108 -1.8885  0.9907
  177DOPC   C2421636   4.075   0.633   9.971  0.2634 -0.4163  0.0584
  177DOPC   H4R21637   4.164   0.614   9.908  0.9999 -0.7972  1.1959
  177DOPC   H4S21638   3.992   0.560   9.952 -0.4176  0.7040 -1.5098
  177DOPC   C2521639   4.119   0.629  10.116 -0.3013 -0.6023 -0.5069
  177DOPC   H5R21640   4.040   0.664  10.186 -0.9488 -1.3031 -0.8710
  177DOPC   H5S21641   4.206   0.698  10.122  0.5007 -1.6821  1.2120
  177DOPC   C2621642   4.168   0.490  10.163 -0.1840 -0.2669 -0.3355
  177DOPC   H6R21643   4.201   0.503  10.269  3.3860  2.5196 -1.5670
  177DOPC   H6S21644   4.259   0.452  10.111 -2.1208 -1.8455 -2.7526
  177DOPC   C2721645   4.068   0.385  10.123 -0.2071  0.1431 -0.5733
  177DOPC   H7R21646   4.075   0.365  10.014  1.4829  0.3680 -0.5336
  177DOPC   H7S21647   3.966   0.425  10.141  0.5307  1.5320  0.6509
  177DOPC   C2821648   4.086   0.243  10.194  0.2115 -0.0325  0.2132
  177DOPC   H8R21649   4.193   0.222  10.215  0.3715 -0.0055 -0.5437
  177DOPC   H8S21650   4.043   0.159  10.135 -2.4373  1.0427  0.4677
  177DOPC   C2921651   4.014   0.257  10.322  0.0655  0.0965 -1.0331
  177DOPC   H9R21652   4.071   0.318  10.394  0.9015 -1.1046 -0.6325
  177DOPC  C21021653   3.891   0.202  10.356  0.4393  0.2259 -0.0310
  177DOPC  H10R21654   3.868   0.210  10.463  0.5812  0.4479 -0.0160
  177DOPC  C21121655   3.800   0.121  10.263  0.5076 -0.3661  0.0844
  177DOPC  H11R21656   3.794   0.019  10.305  3.5987  0.6778  3.6072
  177DOPC  H11S21657   3.854   0.117  10.166  1.7543  4.4333  0.2992
  177DOPC  C21221658   3.668   0.190  10.233  0.3602 -0.4995 -0.4758
  177DOPC  H12R21659   3.623   0.127  10.153 -2.5585  0.6725  0.1199
  177DOPC  H12S21660   3.682   0.294  10.196 -1.6980 -0.1711 -0.4289
  177DOPC  C21321661   3.574   0.201  10.349 -0.4784  0.2350  0.7203
  177DOPC  H13R21662   3.599   0.294  10.404  3.2862 -0.3104  0.2071
  177DOPC  H13S21663   3.586   0.119  10.423  0.1471  0.1119  0.4952
  177DOPC  C21421664   3.426   0.211  10.304 -0.7411  0.0177 -0.4151
  177DOPC  H14R21665   3.402   0.121  10.242  2.1898 -2.7768  2.1283
  177DOPC  H14S21666   3.416   0.305  10.246 -0.1061  0.2353 -0.1772
  177DOPC  C21521667   3.340   0.229  10.431 -0.5706 -0.2352  0.1172
  177DOPC  H15R21668   3.371   0.314  10.495 -1.1214 -0.2449  0.4075
  177DOPC  H15S21669   3.351   0.135  10.489  0.4470 -0.4211 -0.3604
  177DOPC  C21621670   3.192   0.252  10.400  0.6611 -0.1158 -0.0759
  177DOPC  H16R21671   3.175   0.341  10.334  1.0473  0.5441  0.7003
  177DOPC  H16S21672   3.138   0.269  10.496 -1.7380  1.5775 -1.6059
  177DOPC  C21721673   3.126   0.119  10.344 -0.6088 -0.3785  0.1100
  177DOPC  H17R21674   3.146   0.034  10.413  0.4672 -0.7353 -0.6240
  177DOPC  H17S21675   3.176   0.074  10.256 -1.7010 -2.6287  0.5630
  177DOPC  C21821676   2.979   0.132  10.309  0.0551  0.6684  0.1776
  177DOPC  H18R21677   2.916   0.172  10.392  0.0625  0.3490  0.3421
  177DOPC  H18S21678   2.944   0.033  10.272 -1.3339  0.9446  0.6878
  177DOPC  H18T21679   2.972   0.208  10.229  1.8171  1.7911  1.0293
  177DOPC   C3321680   3.707   1.361  10.197 -0.2567  0.0466 -0.8252
  177DOPC   H3X21681   3.614   1.302  10.213  1.4031 -2.2766  1.1347
  177DOPC   H3Y21682   3.689   1.469  10.182 -0.0987  0.1998  0.0011
  177DOPC   C3421683   3.787   1.356  10.330  0.0944  0.3810 -0.3019
  177DOPC   H4X21684   3.884   1.399  10.300  0.1299 -0.5629 -1.6534
  177DOPC   H4Y21685   3.795   1.255  10.376 -1.1055  0.2126 -0.4301
  177DOPC   C3521686   3.740   1.463  10.433  0.5639  0.5103  0.6504
  177DOPC   H5X21687   3.633   1.458  10.465  0.3070  2.1321  0.1732
  177DOPC   H5Y21688   3.743   1.563  10.384  1.4991  0.5974  0.8730
  177DOPC   C3621689   3.823   1.469  10.562  0.7133  0.0292 -0.3793
  177DOPC   H6X21690   3.821   1.368  10.608 -1.4898  0.5931  0.8926
  177DOPC   H6Y21691   3.925   1.509  10.545  0.5954  0.6127  0.2268
  177DOPC   C3721692   3.754   1.560  10.667  0.3857  0.0011  0.0348
  177DOPC   H7X21693   3.755   1.660  10.618 -3.4861  0.0735 -0.2017
  177DOPC   H7Y21694   3.645   1.541  10.674  0.9364 -3.5641  0.9429
  177DOPC   C3821695   3.817   1.540  10.808 -0.4705 -0.1803 -0.5238
  177DOPC   H8X21696   3.793   1.441  10.854 -1.9909  0.4157  0.0271
  177DOPC   H8Y21697   3.760   1.609  10.874  1.4925  2.4870 -1.4676
  177DOPC   C3921698   3.965   1.565  10.809 -0.0019  0.0488 -0.3252
  177DOPC   H9X21699   4.032   1.496  10.756  1.1299  0.6160  0.3438
  177DOPC  C31021700   4.030   1.663  10.872 -0.0674 -0.4803 -0.0777
  177DOPC  H10X21701   4.137   1.674  10.850 -0.1538 -2.9469 -2.1096
  177DOPC  C31121702   3.968   1.779  10.951 -0.4105  0.1537  0.0042
  177DOPC  H11X21703   3.862   1.788  10.921  0.6093 -0.5694 -4.6213
  177DOPC  H11Y21704   4.020   1.873  10.926 -1.0074  0.1425 -1.3386
  177DOPC  C31221705   3.978   1.745  11.100 -0.1780 -0.3871 -0.2675
  177DOPC  H12X21706   4.084   1.742  11.133  0.1904  1.2950 -1.1890
  177DOPC  H12Y21707   3.928   1.648  11.121 -0.3778 -0.0424  0.9579
  177DOPC  C31321708   3.921   1.868  11.181  0.3808 -0.0633 -0.4946
  177DOPC  H13X21709   3.962   1.966  11.147  1.5037 -0.3640 -0.0768
  177DOPC  H13Y21710   3.814   1.868  11.154  0.5097  0.6908 -1.0406
  177DOPC  C31421711   3.951   1.858  11.338 -0.1067  0.7008  0.0957
  177DOPC  H14X21712   3.952   1.750  11.365 -0.6615  0.9582  1.2166
  177DOPC  H14Y21713   4.056   1.887  11.358  0.5528 -1.9204  0.7490
  177DOPC  C31521714   3.845   1.935  11.417  0.2666 -0.0887 -0.5186
  177DOPC  H15X21715   3.752   1.902  11.366 -1.8506  5.0148 -0.6240
  177DOPC  H15Y21716   3.853   2.044  11.397  3.3610 -0.0282  0.6161
  177DOPC  C31621717   3.837   1.906  11.571  0.2563 -0.0566  0.0673
  177DOPC  H16X21718   3.734   1.929  11.605 -0.1062  0.3943 -1.2863
  177DOPC  H16Y21719   3.854   1.797  11.587  1.1255 -0.3744 -2.6172
  177DOPC  C31721720   3.933   2.000  11.648 -0.1817  0.3015  0.8922
  177DOPC  H17X21721   4.032   1.999  11.596 -0.3425  3.4613  0.3300
  177DOPC  H17Y21722   3.891   2.102  11.637 -0.2816  0.1921  0.2067
  177DOPC  C31821723   3.944   1.964  11.795  0.3795 -0.5925  0.3273
  177DOPC  H18X21724   3.996   2.040  11.857 -0.5589  0.7747 -0.5186
  177DOPC  H18Y21725   3.839   1.947  11.826  0.1385 -2.7960 -1.3986
  177DOPC  H18Z21726   3.994   1.865  11.806 -0.2734 -0.9662  0.0072
  178DOPC     N21727   1.188   0.703   9.510  0.4359 -0.6914  0.0185
  178DOPC   C1221728   1.131   0.834   9.450  0.1344  0.5866  0.2479
  178DOPC  H12A21729   1.136   0.818   9.343 -1.8166  0.9135  0.0732
  178DOPC  H12B21730   1.204   0.912   9.469  0.8542 -0.0505  0.1489
  178DOPC   C1321731   1.193   0.715   9.644 -0.1297  0.5846 -0.1687
  178DOPC  H13A21732   1.104   0.750   9.693  0.2468  1.4755 -0.0865
  178DOPC  H13B21733   1.218   0.621   9.691  1.3114  0.6955 -0.6725
  178DOPC  H13C21734   1.274   0.781   9.673  0.8503 -0.4357 -0.5226
  178DOPC   C1421735   1.333   0.685   9.464  0.4946 -0.0613  0.2943
  178DOPC  H14A21736   1.331   0.681   9.356 -0.7582  2.1323  0.1566
  178DOPC  H14B21737   1.403   0.764   9.487  0.4668 -0.1206  0.5798
  178DOPC  H14C21738   1.365   0.592   9.506  1.6356  0.9619  1.8021
  178DOPC   C1521739   1.102   0.591   9.464  0.2441  0.2388 -0.3865
  178DOPC  H15A21740   1.133   0.494   9.499 -1.3858  0.5866  2.3600
  178DOPC  H15B21741   1.088   0.587   9.357 -0.6087 -1.3415 -0.2545
  178DOPC  H15C21742   1.006   0.609   9.511  1.2333 -1.2362  2.4000
  178DOPC   C1121743   0.988   0.875   9.488  0.1290 -0.0346 -0.4623
  178DOPC  H11A21744   0.954   0.938   9.402  1.2358  2.1198  0.5931
  178DOPC  H11B21745   0.926   0.785   9.506  0.7019 -0.5009 -0.8308
  178DOPC     P21746   1.066   1.087   9.613 -0.0449 -0.4988 -0.0395
  178DOPC   O1321747   1.071   1.153   9.478  0.2270  0.2293 -0.3673
  178DOPC   O1421748   1.199   1.061   9.667 -0.0940  0.3520  0.1392
  178DOPC   O1221749   0.978   0.957   9.603 -0.1187  0.3517  0.5398
  178DOPC   O1121750   0.993   1.183   9.720  0.4813  0.4028  0.5785
  178DOPC    C121751   1.006   1.132   9.854 -0.5697 -0.1160 -0.5589
  178DOPC    HA21752   1.080   1.189   9.915 -1.7222 -0.3468  1.1218
  178DOPC    HB21753   1.044   1.028   9.866 -1.4242 -0.3611  0.1145
  178DOPC    C221754   0.877   1.145   9.939  0.0581 -0.0404 -0.2081
  178DOPC    HS21755   0.801   1.097   9.874  0.9338 -2.4420  0.4407
  178DOPC   O2121756   0.866   1.282   9.965  0.2718  0.3981 -0.6764
  178DOPC   C2121757   0.737   1.319   9.996 -0.4427 -0.0906 -1.0372
  178DOPC   O2221758   0.640   1.243   9.997 -0.0929 -0.7114 -0.9233
  178DOPC   C2221759   0.736   1.474  10.026 -0.2314  0.4729  0.6976
  178DOPC   H2R21760   0.727   1.530   9.931  0.4561 -1.1428 -0.3613
  178DOPC   H2S21761   0.828   1.505  10.079  0.6408  0.5601 -0.8281
  178DOPC    C321762   0.889   1.065  10.072  0.5569  0.4976 -0.9516
  178DOPC    HX21763   0.896   0.957  10.049  1.4345  0.3167  0.0797
  178DOPC    HY21764   0.796   1.082  10.132 -0.1073 -1.4695 -1.3427
  178DOPC   O3121765   1.016   1.099  10.135  0.0273 -0.1059 -0.3891
  178DOPC   C3121766   0.994   1.172  10.245 -0.4324 -0.0259  0.0705
  178DOPC   O3221767   0.892   1.218  10.285 -0.2770  0.0503 -0.1934
  178DOPC   C3221768   1.128   1.180  10.316 -0.1275 -0.2578  0.7109
  178DOPC   H2X21769   1.136   1.086  10.375 -3.4319 -0.8640  0.3935
  178DOPC   H2Y21770   1.209   1.191  10.240  1.6629  1.1451  2.6801
  178DOPC   C2321771   0.617   1.516  10.118 -0.6393  0.7730 -0.8076
  178DOPC   H3R21772   0.530   1.457  10.082  0.1654  0.2202 -1.9277
  178DOPC   H3S21773   0.583   1.621  10.113 -2.3595  0.2827 -0.2715
  178DOPC   C2421774   0.645   1.491  10.270 -0.0853 -0.5821  0.6965
  178DOPC   H4R21775   0.721   1.565  10.301 -0.5821  0.6061 -0.7676
  178DOPC   H4S21776   0.686   1.389  10.283 -1.1156 -1.4026 -1.8356
  178DOPC   C2521777   0.525   1.515  10.357  0.0035 -0.4737  0.4949
  178DOPC   H5R21778   0.473   1.605  10.318  1.5538  0.4965  0.6193
  178DOPC   H5S21779   0.558   1.536  10.460  0.6065  0.2599  0.1620
  178DOPC   C2621780   0.446   1.385  10.367  0.7622  0.0707  0.0857
  178DOPC   H6R21781   0.519   1.303  10.384 -0.1679 -0.8919 -0.5085
  178DOPC   H6S21782   0.397   1.349  10.275  1.0959 -1.9632  0.6566
  178DOPC   C2721783   0.348   1.380  10.487  0.6986  0.0998 -0.2435
  178DOPC   H7R21784   0.398   1.414  10.581  0.6870  0.5541 -0.4014
  178DOPC   H7S21785   0.319   1.274  10.501  0.7390  0.0521 -0.5169
  178DOPC   C2821786   0.217   1.462  10.473 -0.0132  0.4946  0.2853
  178DOPC   H8R21787   0.165   1.419  10.386  0.8406 -0.7112  0.3375
  178DOPC   H8S21788   0.240   1.569  10.453 -0.4369  0.7519  1.1238
  178DOPC   C2921789   0.127   1.439  10.598 -0.8371  0.0795  0.0335
  178DOPC   H9R21790   0.099   1.333  10.610 -0.5205  0.1290  1.3435
  178DOPC  C21021791   0.070   1.530  10.677 -0.3503 -0.2557  0.3418
  178DOPC  H10R21792  -0.011   1.500  10.744  0.1836  0.7734  1.5029
  178DOPC  C21121793   0.089   1.677  10.673  0.0152 -0.0548  0.4730
  178DOPC  H11R21794   0.153   1.707  10.587 -0.7011  0.3921  0.0840
  178DOPC  H11S21795   0.156   1.713  10.754 -1.2550 -0.1253  1.5891
  178DOPC  C21221796  -0.046   1.756  10.669 -0.0650 -0.2657 -0.0908
  178DOPC  H12R21797  -0.117   1.697  10.607 -0.6267  0.0607  0.2419
  178DOPC  H12S21798  -0.039   1.847  10.606  0.9646  0.3767  0.9211
  178DOPC  C21321799  -0.113   1.785  10.809 -0.6421 -0.0347 -0.5576
  178DOPC  H13R21800  -0.051   1.865  10.855  0.6419 -0.3661 -1.6577
  178DOPC  H13S21801  -0.112   1.689  10.864  0.7221 -0.6890 -1.6783
  178DOPC  C21421802  -0.256   1.839  10.797  0.1760  0.1449  0.4716
  178DOPC  H14R21803  -0.316   1.762  10.743  1.2974  0.0214 -0.6644
  178DOPC  H14S21804  -0.262   1.933  10.738 -1.6618  2.5618  4.1228
  178DOPC  C21521805  -0.308   1.877  10.937 -0.1187  0.7902  0.6047
  178DOPC  H15R21806  -0.411   1.913  10.916 -0.9933 -1.1335  1.4143
  178DOPC  H15S21807  -0.236   1.959  10.960  1.2149 -0.4886  1.1710
  178DOPC  C21621808  -0.310   1.762  11.036  0.2901  0.5486 -0.7023
  178DOPC  H16R21809  -0.313   1.667  10.978 -1.5425  0.1118  0.0297
  178DOPC  H16S21810  -0.405   1.767  11.093  0.8734 -0.5626  0.4024
  178DOPC  C21721811  -0.193   1.761  11.131  1.1389  1.0734 -0.5028
  178DOPC  H17R21812  -0.201   1.842  11.207 -1.1362 -0.5224  1.0677
  178DOPC  H17S21813  -0.097   1.783  11.080  1.5528  2.2175  0.6982
  178DOPC  C21821814  -0.180   1.630  11.213 -0.8833 -0.1696 -0.0574
  178DOPC  H18R21815  -0.280   1.598  11.250 -0.9919  0.7840  0.5193
  178DOPC  H18S21816  -0.111   1.652  11.297  0.3974  0.8917 -1.3304
  178DOPC  H18T21817  -0.134   1.551  11.150  0.0525  0.4549 -0.1837
  178DOPC   C3321818   1.137   1.301  10.416  0.4140  0.0214  0.4063
  178DOPC   H3X21819   1.069   1.299  10.504  0.6226 -0.5569  0.5539
  178DOPC   H3Y21820   1.095   1.386  10.358 -0.1549  0.0819  0.8938
  178DOPC   C3421821   1.281   1.345  10.467  0.0437  0.6683 -0.4422
  178DOPC   H4X21822   1.330   1.392  10.380  1.8333 -1.9036 -0.9607
  178DOPC   H4Y21823   1.342   1.260  10.504  0.1222  1.5935  1.7045
  178DOPC   C3521824   1.270   1.451  10.575 -0.3700  0.6076  0.0759
  178DOPC   H5X21825   1.224   1.401  10.663  1.1342  1.9534  1.7064
  178DOPC   H5Y21826   1.202   1.526  10.531  0.5088  2.0167  1.0076
  178DOPC   C3621827   1.401   1.521  10.606 -0.4293  0.0621  0.5323
  178DOPC   H6X21828   1.467   1.465  10.675  0.9192  0.8707 -0.0749
  178DOPC   H6Y21829   1.461   1.526  10.513 -0.0412 -1.5650  0.6770
  178DOPC   C3721830   1.394   1.668  10.655  0.3532  0.6716  0.2963
  178DOPC   H7X21831   1.347   1.744  10.589  0.9192  0.4938 -0.3265
  178DOPC   H7Y21832   1.346   1.665  10.755 -3.2228 -0.4445 -1.2962
  178DOPC   C3821833   1.541   1.728  10.661  0.6468  0.1651 -0.1022
  178DOPC   H8X21834   1.596   1.655  10.724 -3.3597 -2.0872  1.1179
  178DOPC   H8Y21835   1.513   1.821  10.716 -0.3418 -0.4787  0.5105
  178DOPC   C3921836   1.607   1.750  10.531 -0.2657 -0.5418 -0.2328
  178DOPC   H9X21837   1.564   1.832  10.471 -1.2509 -0.2643  0.8164
  178DOPC  C31021838   1.709   1.681  10.471  0.5136  0.0312 -0.3675
  178DOPC  H10X21839   1.743   1.726  10.377  0.6125 -0.4807 -0.5810
  178DOPC  C31121840   1.782   1.565  10.531 -0.3429 -0.0822 -0.4735
  178DOPC  H11X21841   1.732   1.523  10.622 -0.2601 -0.3235 -0.5373
  178DOPC  H11Y21842   1.889   1.587  10.551 -0.1007 -1.3116 -0.2903
  178DOPC  C31221843   1.785   1.460  10.429  0.1916 -0.2077 -0.1089
  178DOPC  H12X21844   1.843   1.482  10.337 -2.2211 -0.8201 -1.8539
  178DOPC  H12Y21845   1.681   1.439  10.396  0.8003  0.5386 -2.7405
  178DOPC  C31321846   1.833   1.326  10.492  0.2986  0.0268 -0.5794
  178DOPC  H13X21847   1.833   1.250  10.411  1.1116  0.0476 -0.6094
  178DOPC  H13Y21848   1.936   1.344  10.530  0.2856  0.2181 -0.6366
  178DOPC  C31421849   1.742   1.259  10.597 -0.3859  0.4910  0.1381
  178DOPC  H14X21850   1.643   1.309  10.597 -1.0446 -0.7652  1.0929
  178DOPC  H14Y21851   1.734   1.154  10.562  1.1205  0.8534 -1.4203
  178DOPC  C31521852   1.797   1.258  10.740 -0.2023  0.4255 -0.1140
  178DOPC  H15X21853   1.780   1.359  10.784 -1.3440 -1.0103  3.0545
  178DOPC  H15Y21854   1.906   1.242  10.737 -0.1585  0.8181 -1.1811
  178DOPC  C31621855   1.735   1.147  10.826 -0.4795  0.1859  0.0157
  178DOPC  H16X21856   1.627   1.171  10.828 -0.8750 -1.4986  2.2455
  178DOPC  H16Y21857   1.755   1.041  10.799  2.2227  1.1488 -2.3312
  178DOPC  C31721858   1.782   1.153  10.973 -0.0056  0.0623  0.1369
  178DOPC  H17X21859   1.890   1.136  10.992 -0.2753 -0.2634  1.4734
  178DOPC  H17Y21860   1.763   1.259  11.002 -0.0091  0.8092 -2.3592
  178DOPC  C31821861   1.697   1.073  11.070 -0.2003 -0.1307  0.7129
  178DOPC  H18X21862   1.686   0.968  11.036 -0.7215 -0.0381  0.5793
  178DOPC  H18Y21863   1.753   1.077  11.165  1.8469  0.7476 -0.4599
  178DOPC  H18Z21864   1.599   1.126  11.071  0.7667  1.7444  2.4181
  179DOPC     N21865   6.711   7.764   9.720 -0.3812 -0.2809 -0.2055
  179DOPC   C1221866   6.581   7.803   9.789 -0.3151 -0.4293 -0.2975
  179DOPC  H12A21867   6.522   7.721   9.828  2.3123 -1.6022  1.5689
  179DOPC  H12B21868   6.518   7.856   9.720  0.9879  0.4469 -0.8638
  179DOPC   C1321869   6.768   7.878   9.643  0.0738 -0.2278  0.7824
  179DOPC  H13A21870   6.710   7.884   9.552 -0.1873  0.7945  1.0112
  179DOPC  H13B21871   6.750   7.974   9.688 -2.3546  0.8577 -2.2277
  179DOPC  H13C21872   6.867   7.853   9.608 -0.8405 -1.6317 -0.9890
  179DOPC   C1421873   6.678   7.650   9.638 -0.7201  0.1321  0.0887
  179DOPC  H14A21874   6.610   7.673   9.558  0.1413  0.6251 -0.5174
  179DOPC  H14B21875   6.763   7.609   9.584 -0.5081 -1.7387  1.6949
  179DOPC  H14C21876   6.636   7.567   9.693 -2.4725  0.8933 -0.0570
  179DOPC   C1521877   6.812   7.716   9.823 -0.3986 -0.2327 -0.0460
  179DOPC  H15A21878   6.785   7.618   9.861 -1.8968 -0.7618 -2.2697
  179DOPC  H15B21879   6.830   7.788   9.901 -2.0407  1.6068 -1.2769
  179DOPC  H15C21880   6.911   7.705   9.781 -0.5379 -0.8563 -0.2259
  179DOPC   C1121881   6.597   7.897   9.912  0.1343  0.1463 -0.5053
  179DOPC  H11A21882   6.502   7.902   9.969  1.6214 -0.6063  2.1721
  179DOPC  H11B21883   6.667   7.863   9.991 -1.2792 -0.9173  0.3583
  179DOPC     P21884   6.545   8.139   9.814  0.2871 -0.0034  0.0701
  179DOPC   O1321885   6.443   8.089   9.717  0.0695 -0.3984  0.2256
  179DOPC   O1421886   6.624   8.250   9.757 -0.2992  0.2046 -0.7700
  179DOPC   O1221887   6.642   8.024   9.862 -0.5756  0.5907 -0.0936
  179DOPC   O1121888   6.467   8.178   9.940 -0.2385  0.0585 -0.1411
  179DOPC    C121889   6.522   8.271  10.035 -0.1392 -0.1609  0.0085
  179DOPC    HA21890   6.442   8.307  10.102  1.3521 -1.6453  2.7713
  179DOPC    HB21891   6.575   8.354   9.983  1.3972 -0.8889  0.3281
  179DOPC    C221892   6.623   8.204  10.138  0.0154 -0.0717  0.3174
  179DOPC    HS21893   6.705   8.157  10.079 -1.0074 -0.4412 -0.8680
  179DOPC   O2121894   6.538   8.119  10.222 -0.7907 -0.0929  0.0292
  179DOPC   C2121895   6.588   8.002  10.264 -1.0522 -0.2037 -0.6597
  179DOPC   O2221896   6.700   7.961  10.234 -0.0021  0.3942  0.1772
  179DOPC   C2221897   6.491   7.939  10.356  0.0645  0.4742 -0.7728
  179DOPC   H2R21898   6.502   7.828  10.361 -2.9951  0.1195  1.1905
  179DOPC   H2S21899   6.393   7.967  10.310  1.0983  0.4410 -3.1224
  179DOPC    C321900   6.696   8.315  10.215  0.1190 -0.0542 -0.5826
  179DOPC    HX21901   6.617   8.392  10.227 -1.1258 -1.4108  0.1144
  179DOPC    HY21902   6.773   8.360  10.148 -1.4409 -1.3570 -3.4375
  179DOPC   O3121903   6.753   8.257  10.331 -0.0657 -0.1191  0.0957
  179DOPC   C3121904   6.810   8.348  10.407  0.2871 -0.3916  0.1604
  179DOPC   O3221905   6.803   8.468  10.389 -0.2510 -0.0782 -0.1721
  179DOPC   C3221906   6.877   8.273  10.524 -0.4763  0.1991 -0.0441
  179DOPC   H2X21907   6.810   8.196  10.566 -0.0048  0.1377  0.6088
  179DOPC   H2Y21908   6.969   8.224  10.487  0.2903 -0.2945  2.3398
  179DOPC   C2321909   6.500   7.993  10.498  0.2188 -0.2691  0.4654
  179DOPC   H3R21910   6.429   7.939  10.565 -0.2194  0.6934  0.7847
  179DOPC   H3S21911   6.481   8.102  10.501 -0.5664 -0.3479 -1.0037
  179DOPC   C2421912   6.640   7.964  10.569  0.2605  0.1888 -0.0373
  179DOPC   H4R21913   6.715   8.015  10.505  0.5067 -0.4833 -0.2935
  179DOPC   H4S21914   6.659   7.854  10.572 -1.0681 -0.0465  1.9625
  179DOPC   C2521915   6.650   8.021  10.719 -0.0830  0.8022  0.4138
  179DOPC   H5R21916   6.628   8.129  10.714 -3.2404  0.3544  2.0479
  179DOPC   H5S21917   6.757   8.026  10.749  0.0305 -0.0413  0.1900
  179DOPC   C2621918   6.561   7.953  10.819  0.5268 -0.6239 -0.2430
  179DOPC   H6R21919   6.455   7.952  10.785  0.8465 -2.8107 -1.3672
  179DOPC   H6S21920   6.568   8.002  10.919  2.2350 -2.2324  0.4741
  179DOPC   C2721921   6.591   7.804  10.852 -0.2040 -0.5162  0.2695
  179DOPC   H7R21922   6.700   7.793  10.872  0.3022  2.4644 -0.4157
  179DOPC   H7S21923   6.575   7.747  10.758  1.0408 -0.2689 -0.1097
  179DOPC   C2821924   6.503   7.734  10.963  0.5078  0.0004 -0.1691
  179DOPC   H8R21925   6.535   7.627  10.961 -1.2595 -0.6336  1.9753
  179DOPC   H8S21926   6.397   7.739  10.931  0.5717 -2.1184 -0.8974
  179DOPC   C2921927   6.520   7.775  11.105 -0.5244  0.5703 -0.2977
  179DOPC   H9R21928   6.621   7.783  11.150 -0.7599 -2.6141  1.0322
  179DOPC  C21021929   6.420   7.778  11.191 -0.1707 -0.2341  0.3436
  179DOPC  H10R21930   6.441   7.818  11.292  3.3355 -1.5081  0.2469
  179DOPC  C21121931   6.269   7.750  11.170 -0.0851  0.1169  0.7672
  179DOPC  H11R21932   6.240   7.681  11.252  1.0684 -0.8367  0.4054
  179DOPC  H11S21933   6.255   7.688  11.079  0.9000 -2.6306  2.3481
  179DOPC  C21221934   6.178   7.870  11.152  0.3339  0.3977 -0.3175
  179DOPC  H12R21935   6.203   7.923  11.057  0.3402 -0.1279 -0.6149
  179DOPC  H12S21936   6.192   7.935  11.241 -2.6627  0.0307  0.5346
  179DOPC  C21321937   6.032   7.834  11.132  0.3569  0.1653 -0.3407
  179DOPC  H13R21938   5.994   7.787  11.226 -1.0833 -2.3565 -2.0524
  179DOPC  H13S21939   6.028   7.764  11.046 -4.2269  1.4679 -1.4120
  179DOPC  C21421940   5.951   7.962  11.099 -0.1189  0.5485 -0.9152
  179DOPC  H14R21941   5.975   8.019  11.006  1.6784 -0.5812 -1.1922
  179DOPC  H14S21942   5.973   8.036  11.179 -0.3073 -1.2976  0.8986
  179DOPC  C21521943   5.807   7.924  11.087 -0.7242 -0.1748  0.5648
  179DOPC  H15R21944   5.740   8.012  11.080  0.2931  0.4760 -2.4629
  179DOPC  H15S21945   5.781   7.866  11.178 -0.9603 -1.8986 -0.5419
  179DOPC  C21621946   5.768   7.839  10.966  0.3040  0.4421  0.1276
  179DOPC  H16R21947   5.840   7.759  10.938 -1.5136 -0.5118 -2.2196
  179DOPC  H16S21948   5.764   7.904  10.875 -2.3862  0.8862  0.4672
  179DOPC  C21721949   5.628   7.777  10.981 -0.0534  0.1768 -0.1721
  179DOPC  H17R21950   5.558   7.862  10.999 -0.3843 -0.2186  0.4306
  179DOPC  H17S21951   5.632   7.715  11.073  2.3555 -0.7918 -0.8686
  179DOPC  C21821952   5.583   7.686  10.870  0.3301 -0.3060  0.8135
  179DOPC  H18R21953   5.656   7.609  10.839 -0.3899 -0.8400  0.4037
  179DOPC  H18S21954   5.549   7.741  10.780  1.4693 -1.0896 -0.1165
  179DOPC  H18T21955   5.501   7.617  10.900  0.0275  0.5220  1.9951
  179DOPC   C3321956   6.916   8.355  10.649  0.2080 -0.3412  0.8165
  179DOPC   H3X21957   6.979   8.441  10.622 -0.9618  0.3215  0.0910
  179DOPC   H3Y21958   6.978   8.291  10.715  0.4886 -2.1419 -1.0680
  179DOPC   C3421959   6.798   8.423  10.731  0.4111  0.2011 -0.0196
  179DOPC   H4X21960   6.827   8.408  10.837  0.4382  0.3306 -0.0086
  179DOPC   H4Y21961   6.695   8.385  10.717  1.2883 -1.2592 -3.5468
  179DOPC   C3521962   6.815   8.578  10.719  0.2749  0.6503 -0.6847
  179DOPC   H5X21963   6.810   8.615  10.614  2.9604  1.8109 -0.4734
  179DOPC   H5Y21964   6.917   8.602  10.754  0.5918 -0.9329 -0.4375
  179DOPC   C3621965   6.712   8.657  10.792  0.1904 -0.1774  0.0624
  179DOPC   H6X21966   6.614   8.622  10.753  0.5888 -0.6520 -0.5334
  179DOPC   H6Y21967   6.705   8.628  10.899  1.3527  1.4151  0.6094
  179DOPC   C3721968   6.727   8.814  10.773 -0.4226  0.7110  0.8009
  179DOPC   H7X21969   6.829   8.848  10.801 -0.5992  0.5266  1.7041
  179DOPC   H7Y21970   6.725   8.825  10.663  0.5739  1.6769  0.8647
  179DOPC   C3821971   6.626   8.895  10.858  0.2770  0.4670 -0.1921
  179DOPC   H8X21972   6.652   9.002  10.845 -1.8801  0.9960 -0.6169
  179DOPC   H8Y21973   6.638   8.867  10.965  0.9180  1.2123 -0.0639
  179DOPC   C3921974   6.487   8.875  10.812 -0.0538 -0.1471 -0.0551
  179DOPC   H9X21975   6.471   8.894  10.705  0.8196  0.6514 -0.0591
  179DOPC  C31021976   6.394   8.830  10.898  0.3569  0.5685  0.3256
  179DOPC  H10X21977   6.296   8.826  10.847  0.1454  2.0415  0.5752
  179DOPC  C31121978   6.403   8.802  11.047  0.2670  0.0918  0.4540
  179DOPC  H11X21979   6.460   8.878  11.104 -1.1264  0.4868  1.3636
  179DOPC  H11Y21980   6.456   8.706  11.061  0.6618  0.0413 -1.1273
  179DOPC  C31221981   6.268   8.790  11.118 -0.6129  0.6602  0.2058
  179DOPC  H12X21982   6.227   8.687  11.102  0.4074  0.3891 -0.7713
  179DOPC  H12Y21983   6.191   8.857  11.074 -1.8774 -0.2360  0.9759
  179DOPC  C31321984   6.278   8.806  11.270  0.3966 -0.0393 -0.2254
  179DOPC  H13X21985   6.191   8.757  11.320  0.5675  0.0417  0.1595
  179DOPC  H13Y21986   6.369   8.756  11.310  0.8833 -1.1174 -2.5227
  179DOPC  C31421987   6.255   8.956  11.300 -0.5666 -0.5191 -0.0089
  179DOPC  H14X21988   6.336   9.020  11.258 -1.0087  0.4794  0.6185
  179DOPC  H14Y21989   6.154   8.984  11.265 -0.1155 -0.3426 -1.1987
  179DOPC  C31521990   6.262   8.982  11.454 -0.7433 -0.0237  0.6454
  179DOPC  H15X21991   6.358   8.947  11.496 -0.7511 -0.5592  0.2114
  179DOPC  H15Y21992   6.189   8.904  11.487  0.2806 -1.6124 -0.7486
  179DOPC  C31621993   6.233   9.123  11.499 -0.1060 -0.1569 -0.0559
  179DOPC  H16X21994   6.291   9.186  11.428 -0.6863  0.7775  0.2772
  179DOPC  H16Y21995   6.126   9.151  11.485 -0.3116 -0.5122  0.7719
  179DOPC  C31721996   6.283   9.142  11.642  0.1886 -0.3677 -0.4295
  179DOPC  H17X21997   6.314   9.038  11.665  0.4973 -0.1046  0.3518
  179DOPC  H17Y21998   6.373   9.208  11.647 -0.4843  0.4832  1.1928
  179DOPC  C31821999   6.175   9.180  11.734  0.3119 -0.4994 -0.2922
  179DOPC  H18X22000   6.135   9.281  11.713 -0.8428 -0.8762  0.0253
  179DOPC  H18Y22001   6.093   9.109  11.714 -0.2690 -0.0517  0.4509
  179DOPC  H18Z22002   6.200   9.178  11.843 -3.9267 -1.2686  0.8227
  180DOPC     N22003   4.167   6.410   9.452 -0.0661 -0.4920 -0.3350
  180DOPC   C1222004   4.082   6.332   9.544 -0.2720  0.0744 -0.0704
  180DOPC  H12A22005   4.087   6.226   9.523  0.3474  0.2363 -0.7918
  180DOPC  H12B22006   3.979   6.365   9.535  0.0580  1.0037 -0.4853
  180DOPC   C1322007   4.128   6.435   9.312  0.6038 -0.1632 -0.9918
  180DOPC  H13A22008   4.031   6.484   9.307  0.9056  0.4581 -0.9080
  180DOPC  H13B22009   4.201   6.492   9.257 -1.1204  1.6927 -1.5040
  180DOPC  H13C22010   4.113   6.340   9.264  1.3561  0.2299 -2.0481
  180DOPC   C1422011   4.307   6.348   9.448  0.0998 -0.1546  0.4418
  180DOPC  H14A22012   4.286   6.254   9.399 -2.6379  0.3451  0.5186
  180DOPC  H14B22013   4.375   6.412   9.394 -2.1682  0.1250 -2.2661
  180DOPC  H14C22014   4.340   6.320   9.548 -0.8303  0.9368  1.0720
  180DOPC   C1522015   4.177   6.542   9.514 -1.2181  0.4278 -0.2218
  180DOPC  H15A22016   4.084   6.596   9.501 -0.9036  1.2226  0.6766
  180DOPC  H15B22017   4.255   6.600   9.466 -0.7833 -1.9900 -2.7014
  180DOPC  H15C22018   4.213   6.555   9.615  0.0033  0.1534 -0.6024
  180DOPC   C1122019   4.117   6.341   9.699 -0.5223 -0.6470  0.6128
  180DOPC  H11A22020   4.101   6.442   9.744 -0.2349 -0.6583  0.7431
  180DOPC  H11B22021   4.041   6.277   9.749  0.3057 -2.5598 -0.4905
  180DOPC     P22022   4.295   6.163   9.746  0.2243 -0.1077  0.3986
  180DOPC   O1322023   4.439   6.150   9.715  0.0243  0.1544  0.1821
  180DOPC   O1422024   4.203   6.072   9.679  0.2412  0.0083  0.1733
  180DOPC   O1222025   4.256   6.311   9.718 -0.2576  0.0862 -0.2741
  180DOPC   O1122026   4.271   6.162   9.896 -0.5670  0.0955 -0.1673
  180DOPC    C122027   4.313   6.261   9.990  0.1519  0.1357 -0.4207
  180DOPC    HA22028   4.217   6.308  10.021 -0.2803 -0.9957 -0.0003
  180DOPC    HB22029   4.382   6.335   9.943  0.3011  0.6103  0.5146
  180DOPC    C222030   4.383   6.209  10.120 -0.4631 -1.3488  0.7535
  180DOPC    HS22031   4.478   6.161  10.089 -0.5710 -0.6597 -0.6944
  180DOPC   O2122032   4.294   6.118  10.181  0.3350 -0.2017 -0.1497
  180DOPC   C2122033   4.347   6.027  10.265 -0.1735 -0.6019  1.0756
  180DOPC   O2222034   4.467   6.005  10.279  0.0573  0.3258  0.1565
  180DOPC   C2222035   4.224   5.951  10.327  0.1219 -0.7488  0.6062
  180DOPC   H2R22036   4.173   5.887  10.252  1.8858  0.0065 -1.3421
  180DOPC   H2S22037   4.149   6.030  10.348  0.1785 -0.6182  0.3141
  180DOPC    C322038   4.416   6.326  10.219  0.2035  0.2522  0.0255
  180DOPC    HX22039   4.322   6.362  10.265 -1.0923 -3.6610  0.7998
  180DOPC    HY22040   4.456   6.411  10.160  1.1397 -0.0228  0.2365
  180DOPC   O3122041   4.505   6.286  10.326 -0.1536  0.0519 -0.1117
  180DOPC   C3122042   4.633   6.294  10.304 -0.0394 -0.4396 -0.1124
  180DOPC   O3222043   4.683   6.348  10.199  0.0679  0.1349 -0.5288
  180DOPC   C3222044   4.707   6.222  10.417  0.6889  0.9504 -0.2962
  180DOPC   H2X22045   4.633   6.205  10.498  2.7701 -0.4147  1.4674
  180DOPC   H2Y22046   4.747   6.124  10.383  1.1356  1.7575 -2.1842
  180DOPC   C2322047   4.260   5.858  10.448 -0.2675  0.1008  0.3077
  180DOPC   H3R22048   4.354   5.805  10.426  0.8504  2.0975 -0.0131
  180DOPC   H3S22049   4.165   5.801  10.452 -0.8819  0.9595 -1.3277
  180DOPC   C2422050   4.269   5.942  10.577 -0.1990 -0.8328  0.7844
  180DOPC   H4R22051   4.174   5.996  10.596  0.1763  0.4685 -0.7262
  180DOPC   H4S22052   4.344   6.020  10.550 -1.6633  0.9862  1.7610
  180DOPC   C2522053   4.324   5.879  10.706 -0.7909 -0.3711  0.4445
  180DOPC   H5R22054   4.261   5.794  10.741  1.1036 -0.9029  2.7724
  180DOPC   H5S22055   4.321   5.962  10.779 -2.0396 -0.7533  0.8628
  180DOPC   C2622056   4.474   5.830  10.701  0.1450  0.4647  0.0932
  180DOPC   H6R22057   4.498   5.778  10.605 -0.9046  0.6898 -0.3090
  180DOPC   H6S22058   4.496   5.766  10.789  2.5500  0.1198 -0.7005
  180DOPC   C2722059   4.566   5.951  10.719  0.3883 -0.0772  0.2735
  180DOPC   H7R22060   4.535   5.995  10.816 -3.3147 -0.8076 -0.4291
  180DOPC   H7S22061   4.545   6.027  10.640  0.6338  0.8675  1.0895
  180DOPC   C2822062   4.710   5.912  10.730  0.3500 -0.5836 -0.0152
  180DOPC   H8R22063   4.743   5.859  10.821  0.4888  0.2815  0.4447
  180DOPC   H8S22064   4.744   6.018  10.738 -0.1775 -0.4654  0.7089
  180DOPC   C2922065   4.754   5.850  10.599  0.1145  0.1423  0.3267
  180DOPC   H9R22066   4.755   5.917  10.513 -0.4915  0.3489  0.4728
  180DOPC  C21022067   4.823   5.729  10.592 -0.1993  0.4032  0.7982
  180DOPC  H10R22068   4.855   5.685  10.496 -2.7669  0.6170 -0.2470
  180DOPC  C21122069   4.849   5.631  10.701 -0.7981  0.5085 -0.3881
  180DOPC  H11R22070   4.805   5.669  10.796  1.2273  1.2152  0.3087
  180DOPC  H11S22071   4.958   5.618  10.716 -0.9904 -0.9319 -0.0438
  180DOPC  C21222072   4.805   5.483  10.671 -0.2170  0.0319 -0.0342
  180DOPC  H12R22073   4.842   5.416  10.752  0.2095 -0.1069 -0.3460
  180DOPC  H12S22074   4.860   5.455  10.579  0.6962  3.7655 -0.7815
  180DOPC  C21322075   4.650   5.454  10.654  0.1081 -0.3948 -0.2357
  180DOPC  H13R22076   4.644   5.347  10.627  0.4372 -0.9838  1.8276
  180DOPC  H13S22077   4.615   5.516  10.568 -0.0446 -1.3941 -0.9058
  180DOPC  C21422078   4.571   5.491  10.778  0.0332  0.0829  0.3992
  180DOPC  H14R22079   4.584   5.600  10.795  0.4084  0.4997 -2.1917
  180DOPC  H14S22080   4.605   5.442  10.871 -1.3675  0.2879  1.0449
  180DOPC  C21522081   4.422   5.462  10.752 -0.1213 -0.3149 -0.1409
  180DOPC  H15R22082   4.410   5.354  10.728  3.4212 -0.8837  0.0116
  180DOPC  H15S22083   4.400   5.515  10.657  0.0274 -2.1684 -1.2599
  180DOPC  C21622084   4.319   5.494  10.858 -0.1020 -0.0612  0.1973
  180DOPC  H16R22085   4.329   5.593  10.908  0.2596 -0.1274  0.2610
  180DOPC  H16S22086   4.322   5.419  10.941 -2.5131 -0.1705  0.2579
  180DOPC  C21722087   4.182   5.481  10.795  0.3703  0.2902 -0.5846
  180DOPC  H17R22088   4.163   5.377  10.761 -0.2337  0.4874 -0.8541
  180DOPC  H17S22089   4.151   5.559  10.723 -1.8843  0.8518  0.8881
  180DOPC  C21822090   4.079   5.519  10.905  0.2784  0.1212  0.0846
  180DOPC  H18R22091   3.983   5.480  10.863  0.4224 -0.9959  0.7599
  180DOPC  H18S22092   4.075   5.629  10.924  2.8403  0.1398  0.7969
  180DOPC  H18T22093   4.098   5.461  10.998  0.8710 -1.3012 -0.8917
  180DOPC   C3322094   4.812   6.314  10.475 -0.2273 -0.0652  0.7697
  180DOPC   H3X22095   4.863   6.372  10.395  1.3502  1.6941  2.9475
  180DOPC   H3Y22096   4.889   6.258  10.532  1.2217  0.9428 -0.1409
  180DOPC   C3422097   4.750   6.405  10.578 -0.4817 -0.2979  0.2990
  180DOPC   H4X22098   4.674   6.467  10.526 -0.3406 -0.3531  0.0240
  180DOPC   H4Y22099   4.827   6.482  10.597 -0.5830 -0.0444 -0.3259
  180DOPC   C3522100   4.689   6.338  10.704  0.4166 -0.6622  0.4649
  180DOPC   H5X22101   4.768   6.276  10.752 -2.1637 -3.5602  1.2795
  180DOPC   H5Y22102   4.603   6.274  10.675  0.6615  0.0267 -2.0470
  180DOPC   C3622103   4.650   6.445  10.811 -0.1668 -0.6840 -0.2831
  180DOPC   H6X22104   4.741   6.500  10.845 -0.8753  1.1403 -1.1603
  180DOPC   H6Y22105   4.578   6.516  10.764 -1.1323 -0.8369  0.9081
  180DOPC   C3722106   4.585   6.386  10.941  0.4043 -0.3918 -0.1064
  180DOPC   H7X22107   4.565   6.465  11.017  0.2790  0.5147 -1.0745
  180DOPC   H7Y22108   4.487   6.344  10.910  0.7608 -1.6325  0.3581
  180DOPC   C3822109   4.658   6.272  11.005 -0.1567 -0.4147  0.2458
  180DOPC   H8X22110   4.676   6.189  10.933 -3.6029  0.4525 -1.8794
  180DOPC   H8Y22111   4.585   6.232  11.079  0.9727 -2.8733  0.1258
  180DOPC   C3922112   4.777   6.323  11.080  0.2566 -0.4533  0.2273
  180DOPC   H9X22113   4.814   6.421  11.046 -2.5487  0.5041 -0.3309
  180DOPC  C31022114   4.825   6.271  11.190  0.6952  0.4803 -0.6131
  180DOPC  H10X22115   4.920   6.304  11.234  1.4031 -2.1611  0.0221
  180DOPC  C31122116   4.775   6.141  11.250 -0.2450 -0.1430  0.1764
  180DOPC  H11X22117   4.813   6.057  11.189  0.7123 -0.9084  1.7461
  180DOPC  H11Y22118   4.664   6.134  11.246 -0.3297  1.4680 -2.4236
  180DOPC  C31222119   4.842   6.108  11.386  0.3242  0.0413 -0.0145
  180DOPC  H12X22120   4.786   6.166  11.462 -0.4669 -0.0350 -0.5165
  180DOPC  H12Y22121   4.951   6.124  11.394  0.2629  0.6089 -0.2568
  180DOPC  C31322122   4.810   5.963  11.429 -0.0915 -0.1449  0.9007
  180DOPC  H13X22123   4.705   5.954  11.395  0.8908 -1.3209 -2.1068
  180DOPC  H13Y22124   4.891   5.911  11.374  1.8522  1.7715  1.7678
  180DOPC  C31422125   4.833   5.941  11.579 -0.3484  0.7375  0.4258
  180DOPC  H14X22126   4.936   5.968  11.609  0.5026 -1.0038 -0.7630
  180DOPC  H14Y22127   4.759   6.008  11.628  0.6701  3.1510 -1.1513
  180DOPC  C31522128   4.814   5.798  11.629  0.2496  0.4991  0.4312
  180DOPC  H15X22129   4.860   5.729  11.555 -0.2732  0.9910 -0.3657
  180DOPC  H15Y22130   4.707   5.772  11.645 -0.1707  2.5282  1.2055
  180DOPC  C31622131   4.870   5.779  11.776  0.3349 -0.4998 -0.2436
  180DOPC  H16X22132   4.807   5.837  11.847  1.3069  0.7998 -0.4032
  180DOPC  H16Y22133   4.837   5.675  11.795  0.4632 -0.7121 -1.1253
  180DOPC  C31722134   5.018   5.792  11.803  0.2226  0.1091  0.4256
  180DOPC  H17X22135   5.065   5.736  11.719 -2.1937 -2.0442  0.3603
  180DOPC  H17Y22136   5.046   5.899  11.810 -1.7473  0.6106  1.3172
  180DOPC  C31822137   5.057   5.739  11.936  0.5641 -0.1717 -0.1977
  180DOPC  H18X22138   5.052   5.628  11.947 -0.3564 -0.2526 -1.3085
  180DOPC  H18Y22139   5.158   5.779  11.957 -0.2752  1.8100  0.2573
  180DOPC  H18Z22140   4.999   5.778  12.022  1.2861 -1.8695  1.1345
  181DOPC     N22141   6.873   3.848   9.632  0.2090 -0.0745 -0.1381
  181DOPC   C1222142   6.945   3.912   9.749 -0.0666 -0.6482 -0.2364
  181DOPC  H12A22143   7.004   3.993   9.711 -2.1466  0.7839 -0.5915
  181DOPC  H12B22144   7.012   3.838   9.789  0.1154  0.3627  1.3844
  181DOPC   C1322145   6.745   3.924   9.607 -0.6864 -0.0167  0.3280
  181DOPC  H13A22146   6.693   3.878   9.525  0.9287 -2.5964  0.6305
  181DOPC  H13B22147   6.687   3.933   9.698 -1.2025 -1.7583  0.2047
  181DOPC  H13C22148   6.773   4.025   9.581  0.6633 -0.6032 -0.6243
  181DOPC   C1422149   6.831   3.708   9.684 -0.4446 -0.4057 -0.0711
  181DOPC  H14A22150   6.918   3.647   9.705  0.2193  0.2018 -0.9941
  181DOPC  H14B22151   6.756   3.717   9.760 -0.3828 -0.1525 -0.0392
  181DOPC  H14C22152   6.781   3.652   9.606 -1.3327 -2.0289  1.5976
  181DOPC   C1522153   6.950   3.831   9.506 -0.1492  0.1764 -0.3638
  181DOPC  H15A22154   6.992   3.925   9.472  2.6251 -0.5999  0.6772
  181DOPC  H15B22155   6.901   3.773   9.430  0.8760 -2.1945  0.6902
  181DOPC  H15C22156   7.030   3.765   9.534 -0.5883  0.0610  0.6762
  181DOPC   C1122157   6.858   3.968   9.868 -0.1147  0.8864  1.1485
  181DOPC  H11A22158   6.942   4.002   9.933  0.5764  0.8018  0.3173
  181DOPC  H11B22159   6.794   4.057   9.847  0.5075  0.9329 -0.6597
  181DOPC     P22160   6.639   3.876   9.977 -0.2173 -0.6274 -0.0569
  181DOPC   O1322161   6.595   3.741  10.012 -0.5619  0.2861  0.1302
  181DOPC   O1422162   6.565   3.941   9.862  0.2932  0.6306 -0.2093
  181DOPC   O1222163   6.788   3.861   9.938 -0.4992  0.8802  0.2540
  181DOPC   O1122164   6.635   3.976  10.096 -0.0747  0.2733 -0.8154
  181DOPC    C122165   6.740   4.015  10.180  0.3700 -0.6329 -0.1366
  181DOPC    HA22166   6.816   4.059  10.112  0.9101  0.4453  1.1278
  181DOPC    HB22167   6.787   3.932  10.237  1.0538 -0.6188 -0.6709
  181DOPC    C222168   6.694   4.124  10.290  0.0886 -0.3674 -0.7506
  181DOPC    HS22169   6.780   4.164  10.348 -0.0218  0.4895 -1.1597
  181DOPC   O2122170   6.609   4.061  10.380  0.0516 -0.0503 -0.2623
  181DOPC   C2122171   6.563   4.128  10.480 -0.5600  0.1646 -0.7819
  181DOPC   O2222172   6.596   4.241  10.517 -0.2692  0.1731 -0.3328
  181DOPC   C2222173   6.472   4.032  10.551 -1.0778 -0.1117  0.0366
  181DOPC   H2R22174   6.509   3.936  10.508 -1.0522  1.4145 -3.6799
  181DOPC   H2S22175   6.363   4.049  10.535 -1.4894  0.0825  2.5119
  181DOPC    C322176   6.625   4.241  10.216 -0.6833  0.3400 -0.6855
  181DOPC    HX22177   6.588   4.315  10.290  1.0978 -0.3917  1.0311
  181DOPC    HY22178   6.536   4.200  10.163  0.6181 -0.5500 -2.3052
  181DOPC   O3122179   6.718   4.303  10.122  0.9800  0.3460 -0.6393
  181DOPC   C3122180   6.665   4.367  10.020  0.0451 -0.1025 -1.1070
  181DOPC   O3222181   6.546   4.389  10.006  0.3317 -0.1624 -0.3582
  181DOPC   C3222182   6.780   4.425   9.935 -0.0501 -0.4468 -0.0314
  181DOPC   H2X22183   6.879   4.385   9.967  1.1971  1.8913 -0.7620
  181DOPC   H2Y22184   6.767   4.390   9.830 -2.3598  0.4313 -0.0998
  181DOPC   C2322185   6.481   4.043  10.709  0.5683  0.6109  0.5390
  181DOPC   H3R22186   6.458   4.151  10.725 -0.1588  0.7064 -0.9159
  181DOPC   H3S22187   6.578   4.018  10.754 -0.2586 -2.1621  0.9336
  181DOPC   C2422188   6.363   3.983  10.782 -0.3308 -0.0550  0.3801
  181DOPC   H4R22189   6.270   4.011  10.728 -1.5718 -0.4619  2.2154
  181DOPC   H4S22190   6.358   4.029  10.883  2.3528 -4.3568  2.7572
  181DOPC   C2522191   6.372   3.836  10.807  0.2184  0.0939 -0.0325
  181DOPC   H5R22192   6.454   3.808  10.876  1.0610  0.7501 -0.7344
  181DOPC   H5S22193   6.396   3.780  10.714 -2.1796  1.1566 -1.3893
  181DOPC   C2622194   6.249   3.772  10.879 -0.0258  0.1428 -0.4501
  181DOPC   H6R22195   6.238   3.663  10.858  0.9406 -0.1180  0.3098
  181DOPC   H6S22196   6.156   3.817  10.838 -0.6011 -0.1982  0.4254
  181DOPC   C2722197   6.240   3.795  11.028  0.8276  0.0828 -0.1292
  181DOPC   H7R22198   6.248   3.905  11.040 -0.9142  0.0727  1.7463
  181DOPC   H7S22199   6.326   3.762  11.091 -0.3910  0.4440  1.7907
  181DOPC   C2822200   6.106   3.766  11.101 -0.5509 -0.0514 -0.0353
  181DOPC   H8R22201   6.031   3.811  11.033 -1.2808 -0.7956  0.2569
  181DOPC   H8S22202   6.100   3.824  11.196  0.3132 -1.7497  1.1192
  181DOPC   C2922203   6.096   3.618  11.117 -0.0672  0.2145  0.2570
  181DOPC   H9R22204   6.189   3.560  11.123  0.9026  1.8414  2.2833
  181DOPC  C21022205   5.980   3.555  11.124  0.2135  0.5415 -0.5945
  181DOPC  H10R22206   5.963   3.447  11.135 -2.1502  0.9904  0.9385
  181DOPC  C21122207   5.846   3.626  11.132  0.3726 -0.1934  0.3768
  181DOPC  H11R22208   5.787   3.619  11.038  0.9797 -1.6981  0.0718
  181DOPC  H11S22209   5.862   3.734  11.153 -1.4610  0.3307 -0.7414
  181DOPC  C21222210   5.758   3.577  11.255  0.6172  0.0939  0.0558
  181DOPC  H12R22211   5.817   3.605  11.345  0.5725  2.6884 -0.6425
  181DOPC  H12S22212   5.762   3.466  11.255 -0.8997  0.0122  0.9205
  181DOPC  C21322213   5.614   3.624  11.247 -0.2191 -0.1252  0.9052
  181DOPC  H13R22214   5.573   3.604  11.146 -0.0038  0.5834  0.6712
  181DOPC  H13S22215   5.621   3.735  11.247 -0.0422 -0.1091 -0.7824
  181DOPC  C21422216   5.518   3.559  11.348  0.4126  0.9457 -0.5636
  181DOPC  H14R22217   5.538   3.600  11.449  0.9091  1.8223 -1.0030
  181DOPC  H14S22218   5.548   3.452  11.357 -1.1910  0.6186  1.8145
  181DOPC  C21522219   5.372   3.567  11.308  1.1142 -0.5812  0.7617
  181DOPC  H15R22220   5.319   3.523  11.395  2.5282 -0.8443  1.5164
  181DOPC  H15S22221   5.355   3.517  11.211 -0.2371  1.6961 -0.2777
  181DOPC  C21622222   5.313   3.710  11.299  0.0519  0.3622 -0.0818
  181DOPC  H16R22223   5.362   3.756  11.211 -0.3214  2.3004  0.6640
  181DOPC  H16S22224   5.358   3.765  11.385  1.1490 -0.0405 -0.3839
  181DOPC  C21722225   5.159   3.720  11.286  0.6254 -0.1170 -0.4295
  181DOPC  H17R22226   5.112   3.657  11.366  1.3846 -0.1077  0.0385
  181DOPC  H17S22227   5.122   3.690  11.186 -0.9701  0.8094 -0.1467
  181DOPC  C21822228   5.100   3.861  11.289 -0.0651  0.1337  0.5727
  181DOPC  H18R22229   5.159   3.912  11.210  1.0325  0.1479  1.3709
  181DOPC  H18S22230   5.113   3.916  11.384 -1.8978 -0.8154  1.4230
  181DOPC  H18T22231   4.991   3.867  11.272 -0.3039 -1.6057  1.2117
  181DOPC   C3322232   6.787   4.578   9.927  0.3342  0.1296 -0.3130
  181DOPC   H3X22233   6.703   4.615   9.866  0.3510  0.2946 -0.2347
  181DOPC   H3Y22234   6.876   4.599   9.864  0.2735 -2.9723 -1.6297
  181DOPC   C3422235   6.792   4.656  10.065  0.0658  0.2966  0.0666
  181DOPC   H4X22236   6.868   4.604  10.127  1.8120 -0.5180 -2.5691
  181DOPC   H4Y22237   6.695   4.638  10.115  0.9579 -1.4671  1.2610
  181DOPC   C3522238   6.825   4.804  10.042  0.3431  1.3299 -0.4620
  181DOPC   H5X22239   6.731   4.848  10.003 -0.0303  0.9510  0.0101
  181DOPC   H5Y22240   6.888   4.816   9.951 -0.6800 -1.6276 -1.6669
  181DOPC   C3622241   6.869   4.874  10.171 -0.1137  0.5245 -0.1506
  181DOPC   H6X22242   6.804   4.851  10.258  0.4767  0.6837  0.3390
  181DOPC   H6Y22243   6.972   4.840  10.196 -0.7780 -0.9931  0.6501
  181DOPC   C3722244   6.868   5.025  10.146  0.0641 -1.4006  0.3452
  181DOPC   H7X22245   6.923   5.044  10.051 -0.5269  1.1471  0.4428
  181DOPC   H7Y22246   6.764   5.059  10.127  0.1204 -1.2912  0.2274
  181DOPC   C3822247   6.920   5.107  10.273  0.2542 -0.3060  0.4954
  181DOPC   H8X22248   6.850   5.082  10.355  1.0150 -1.3679  0.8510
  181DOPC   H8Y22249   6.915   5.214  10.245  2.8634 -0.3505 -0.5100
  181DOPC   C3922250   7.063   5.054  10.312 -0.2346 -1.2768  0.7450
  181DOPC   H9X22251   7.128   5.042  10.224  0.3088  1.8524  0.6139
  181DOPC  C31022252   7.102   5.017  10.431  0.3925 -0.5296  0.3575
  181DOPC  H10X22253   7.205   4.977  10.433  1.1866  1.2588 -1.1235
  181DOPC  C31122254   7.032   5.028  10.564 -0.3625 -0.3042  0.3021
  181DOPC  H11X22255   6.928   5.067  10.566 -0.7297 -1.1597 -0.9287
  181DOPC  H11Y22256   7.093   5.091  10.632 -0.7327 -0.0127  0.3665
  181DOPC  C31222257   7.026   4.894  10.635  0.3503 -0.2090  0.1599
  181DOPC  H12X22258   6.999   4.913  10.741  1.0414 -0.7184  0.4374
  181DOPC  H12Y22259   7.127   4.848  10.640 -0.9759 -3.1870  1.6226
  181DOPC  C31322260   6.927   4.783  10.583  0.2334  0.5608 -0.8430
  181DOPC  H13X22261   6.827   4.832  10.575 -0.6290 -0.4007  2.4114
  181DOPC  H13Y22262   6.959   4.751  10.482 -2.4946 -4.2717 -0.4910
  181DOPC  C31422263   6.915   4.649  10.667  0.4616 -0.4156 -0.6208
  181DOPC  H14X22264   7.005   4.583  10.664  0.1977 -0.8970  1.1078
  181DOPC  H14Y22265   6.908   4.684  10.772 -2.3520 -0.7612 -0.6241
  181DOPC  C31522266   6.786   4.568  10.634 -0.1835 -0.7943  0.1696
  181DOPC  H15X22267   6.701   4.633  10.665  0.1550 -0.3558  0.1931
  181DOPC  H15Y22268   6.770   4.476  10.694  0.1981 -1.1423 -0.2539
  181DOPC  C31622269   6.771   4.534  10.485 -0.3676  0.2407  0.3606
  181DOPC  H16X22270   6.673   4.483  10.475 -0.8812  1.0751  0.9743
  181DOPC  H16Y22271   6.747   4.626  10.427 -2.7525 -0.7859 -0.4071
  181DOPC  C31722272   6.884   4.453  10.426  0.5689 -0.3364  0.2327
  181DOPC  H17X22273   6.856   4.407  10.328  0.9971  0.3165 -0.2040
  181DOPC  H17Y22274   6.964   4.529  10.419  0.4027 -0.2469 -1.0476
  181DOPC  C31822275   6.928   4.333  10.508  0.3473 -0.0761 -0.2067
  181DOPC  H18X22276   7.017   4.277  10.472  0.4331  0.6144 -1.1329
  181DOPC  H18Y22277   6.959   4.373  10.607  0.5231 -0.8738  0.0648
  181DOPC  H18Z22278   6.845   4.261  10.526 -0.1827  0.7127  0.5987
  182DOPC     N22279   1.222   2.544   9.320  0.1500  0.5679  0.1477
  182DOPC   C1222280   1.218   2.564   9.476 -0.1038 -0.2159  0.4206
  182DOPC  H12A22281   1.297   2.507   9.522 -1.0680 -3.3576 -1.4460
  182DOPC  H12B22282   1.131   2.510   9.510  0.2523  0.0895  1.8893
  182DOPC   C1322283   1.194   2.396   9.281 -0.3036 -0.7975 -0.2067
  182DOPC  H13A22284   1.283   2.348   9.317 -0.6450 -0.6461  0.8846
  182DOPC  H13B22285   1.098   2.358   9.314 -1.4455  1.1730 -1.0432
  182DOPC  H13C22286   1.198   2.379   9.174 -0.0445  0.6032 -0.4438
  182DOPC   C1422287   1.355   2.584   9.272  0.5487 -0.2261 -0.3636
  182DOPC  H14A22288   1.365   2.573   9.165  2.9419 -1.4923 -0.0802
  182DOPC  H14B22289   1.371   2.687   9.300 -0.7165 -0.3048  0.7477
  182DOPC  H14C22290   1.422   2.509   9.310 -1.7132 -0.7994  2.9418
  182DOPC   C1522291   1.115   2.625   9.255 -0.4999 -0.2457  0.9998
  182DOPC  H15A22292   1.127   2.731   9.271  0.6415  0.3858 -2.9506
  182DOPC  H15B22293   1.022   2.590   9.298 -1.4611 -0.1421 -0.9143
  182DOPC  H15C22294   1.104   2.611   9.149  0.1773 -1.1445  1.0293
  182DOPC   C1122295   1.215   2.713   9.531 -0.0600 -0.9153 -0.2953
  182DOPC  H11A22296   1.225   2.716   9.642  1.2107  0.2757 -0.4095
  182DOPC  H11B22297   1.304   2.766   9.490  0.1526  1.6210  3.0115
  182DOPC     P22298   1.058   2.921   9.461  0.0752  0.0284  0.2518
  182DOPC   O1322299   0.931   2.935   9.386  0.3762  0.0536 -0.4443
  182DOPC   O1422300   1.184   2.965   9.393  0.3938 -0.5652 -0.0936
  182DOPC   O1222301   1.084   2.771   9.507  0.2304 -0.5052 -0.5198
  182DOPC   O1122302   1.047   3.011   9.592 -0.0444 -0.1436 -0.2016
  182DOPC    C122303   0.948   2.974   9.688  0.3062  0.2606 -0.5885
  182DOPC    HA22304   0.987   2.890   9.749 -1.1768 -0.8148 -1.0622
  182DOPC    HB22305   0.849   2.956   9.641  0.0925  1.6205 -0.7062
  182DOPC    C222306   0.932   3.089   9.792  0.1402  0.0762  0.3314
  182DOPC    HS22307   0.884   3.169   9.732  0.2675 -0.0698  0.0281
  182DOPC   O2122308   1.051   3.132   9.861 -0.1290  0.1286  0.9774
  182DOPC   C2122309   1.064   3.262   9.888 -0.3208  0.0930  0.2932
  182DOPC   O2222310   0.998   3.345   9.829 -0.4392  0.1886  0.0764
  182DOPC   C2222311   1.151   3.274  10.017  0.5487  0.2834  0.0689
  182DOPC   H2R22312   1.252   3.249   9.978 -0.4483 -1.6921 -1.3955
  182DOPC   H2S22313   1.114   3.189  10.078  0.8707 -0.1150 -0.2889
  182DOPC    C322314   0.812   3.051   9.883 -0.4066  0.0363 -0.6284
  182DOPC    HX22315   0.840   2.962   9.945 -2.3594 -1.0815 -1.2546
  182DOPC    HY22316   0.728   3.029   9.814 -1.3336 -1.2615  0.8482
  182DOPC   O3122317   0.784   3.174   9.953  0.1368 -0.0405  0.2003
  182DOPC   C3122318   0.688   3.152  10.042  0.4840 -0.8175  0.3235
  182DOPC   O3222319   0.635   3.046  10.050 -0.3524  0.7223 -0.4954
  182DOPC   C3222320   0.681   3.270  10.139 -0.2061 -0.4322  0.0560
  182DOPC   H2X22321   0.782   3.271  10.188  0.7013  0.4172 -1.7531
  182DOPC   H2Y22322   0.669   3.360  10.075  2.1276 -0.3043 -0.3115
  182DOPC   C2322323   1.146   3.408  10.092 -0.3495 -0.3795  0.4701
  182DOPC   H3R22324   1.168   3.497  10.029 -1.5358  0.2251  0.8598
  182DOPC   H3S22325   1.220   3.406  10.175 -0.4008 -1.0841  0.4993
  182DOPC   C2422326   1.012   3.417  10.166 -0.1911 -0.3017 -0.4301
  182DOPC   H4R22327   1.007   3.347  10.252  1.7898  0.0427 -0.0011
  182DOPC   H4S22328   0.926   3.408  10.096 -0.4138 -1.2676 -0.0484
  182DOPC   C2522329   1.000   3.557  10.224 -0.0414 -1.2923 -0.2384
  182DOPC   H5R22330   1.020   3.620  10.134  0.5469 -1.5888 -0.3236
  182DOPC   H5S22331   1.076   3.580  10.302 -0.6894  0.4550 -0.0722
  182DOPC   C2622332   0.865   3.577  10.289 -0.4708  0.3212 -0.1478
  182DOPC   H6R22333   0.842   3.499  10.365  1.5387 -2.1484 -1.9128
  182DOPC   H6S22334   0.785   3.557  10.215  0.5615  2.1912 -1.8685
  182DOPC   C2722335   0.845   3.720  10.346 -0.3430  0.1574  0.4893
  182DOPC   H7R22336   0.738   3.739  10.372  0.0021  1.2259  1.1814
  182DOPC   H7S22337   0.866   3.791  10.263  2.1102 -0.5873  0.4146
  182DOPC   C2822338   0.927   3.778  10.467 -0.4714 -0.0979  0.1623
  182DOPC   H8R22339   0.875   3.874  10.482  1.8682  1.2443  0.2024
  182DOPC   H8S22340   1.026   3.815  10.431  0.3011 -1.3457  0.9012
  182DOPC   C2922341   0.952   3.685  10.582  0.8003 -0.3319  0.2784
  182DOPC   H9R22342   0.990   3.587  10.549  0.1035 -0.9201  1.1546
  182DOPC  C21022343   0.963   3.724  10.714  0.3297  0.5306  0.0177
  182DOPC  H10R22344   0.986   3.644  10.786  0.0424  0.0065 -0.4644
  182DOPC  C21122345   0.929   3.858  10.767  0.2206 -0.0304  0.0992
  182DOPC  H11R22346   0.871   3.918  10.692 -1.1629 -0.2547  0.9553
  182DOPC  H11S22347   1.010   3.928  10.799  0.6546 -0.6443  0.3477
  182DOPC  C21222348   0.827   3.844  10.882  0.3915  0.1241 -0.5737
  182DOPC  H12R22349   0.729   3.808  10.843 -0.1168 -0.1182  0.8798
  182DOPC  H12S22350   0.805   3.947  10.919 -1.1161 -0.3765  0.0151
  182DOPC  C21322351   0.875   3.760  11.001  0.6073  0.3820  0.0276
  182DOPC  H13R22352   0.979   3.785  11.030  0.7945  0.1958 -0.4620
  182DOPC  H13S22353   0.866   3.652  10.977 -3.0888  0.8194 -1.1530
  182DOPC  C21422354   0.774   3.789  11.119 -0.7728 -0.1302 -0.1369
  182DOPC  H14R22355   0.674   3.746  11.097 -0.2255 -1.2710 -0.4542
  182DOPC  H14S22356   0.761   3.899  11.129 -1.3312 -0.0240 -1.7931
  182DOPC  C21522357   0.813   3.715  11.250  0.9604  0.2965  0.3238
  182DOPC  H15R22358   0.881   3.791  11.295 -1.5946  3.1396 -0.2657
  182DOPC  H15S22359   0.862   3.616  11.237  0.0650 -0.1056 -0.1236
  182DOPC  C21622360   0.692   3.693  11.344 -0.2561 -0.2589  0.1300
  182DOPC  H16R22361   0.632   3.617  11.291 -0.3957  0.6984 -1.1431
  182DOPC  H16S22362   0.634   3.785  11.369 -0.9670 -1.2170  2.2546
  182DOPC  C21722363   0.734   3.632  11.483 -0.1691 -0.1892  0.1837
  182DOPC  H17R22364   0.644   3.640  11.547  1.0723 -1.0011  2.1504
  182DOPC  H17S22365   0.818   3.685  11.533  0.6385 -1.9297  0.7777
  182DOPC  C21822366   0.773   3.478  11.467 -0.0591  0.1015  0.1408
  182DOPC  H18R22367   0.857   3.471  11.394  2.4947 -2.5510  3.0279
  182DOPC  H18S22368   0.690   3.418  11.425 -0.8063  1.0780  0.2053
  182DOPC  H18T22369   0.814   3.434  11.560  0.7078 -0.6003 -0.5109
  182DOPC   C3322370   0.570   3.271  10.253 -0.1922  0.4122 -0.5954
  182DOPC   H3X22371   0.476   3.240  10.202 -0.3281 -0.7244  0.3049
  182DOPC   H3Y22372   0.550   3.376  10.283 -1.1815  0.1637 -0.3535
  182DOPC   C3422373   0.596   3.171  10.371  0.0339  0.9530 -0.0158
  182DOPC   H4X22374   0.589   3.069  10.326 -1.7035  0.3536  1.5044
  182DOPC   H4Y22375   0.506   3.174  10.435  0.2056  0.1759  0.2767
  182DOPC   C3522376   0.709   3.186  10.469  0.0973 -0.1049 -0.0021
  182DOPC   H5X22377   0.712   3.295  10.491 -0.7332 -0.3007  1.1651
  182DOPC   H5Y22378   0.804   3.159  10.417 -0.0177 -0.4941 -0.0128
  182DOPC   C3622379   0.700   3.112  10.611 -0.7243 -0.9017  0.1670
  182DOPC   H6X22380   0.782   3.148  10.676  1.5062  1.4902 -3.5541
  182DOPC   H6Y22381   0.603   3.137  10.659 -0.3962  2.0289 -0.4973
  182DOPC   C3722382   0.713   2.964  10.577 -0.1869 -0.2564 -0.2781
  182DOPC   H7X22383   0.664   2.953  10.478  1.1102  3.5087 -1.5187
  182DOPC   H7Y22384   0.822   2.951  10.562 -0.0664  0.5500 -0.1450
  182DOPC   C3822385   0.661   2.868  10.686 -0.5049 -1.0506  0.2674
  182DOPC   H8X22386   0.550   2.876  10.684 -0.7277 -3.5274 -0.4062
  182DOPC   H8Y22387   0.717   2.890  10.780  1.0868 -1.2627 -0.6006
  182DOPC   C3922388   0.694   2.721  10.648 -0.3672  0.8722 -0.4381
  182DOPC   H9X22389   0.633   2.666  10.575 -1.1634 -2.2075  2.3072
  182DOPC  C31022390   0.818   2.670  10.661 -0.5911 -0.0516 -0.4908
  182DOPC  H10X22391   0.829   2.562  10.645 -0.1413  0.2103 -2.0587
  182DOPC  C31122392   0.940   2.731  10.713 -0.0651  0.1022  0.2525
  182DOPC  H11X22393   0.926   2.832  10.756  1.0352  0.4148 -0.0942
  182DOPC  H11Y22394   1.000   2.755  10.623  0.1264 -0.2479  0.2846
  182DOPC  C31222395   1.008   2.649  10.816  0.2860  0.0040 -0.7571
  182DOPC  H12X22396   0.924   2.595  10.864  2.6263 -2.2876  1.0964
  182DOPC  H12Y22397   1.055   2.708  10.898 -0.8991 -0.3695  0.2170
  182DOPC  C31322398   1.106   2.549  10.753 -0.3576 -0.7902  0.1281
  182DOPC  H13X22399   1.112   2.463  10.823 -1.9634 -0.2728  0.9672
  182DOPC  H13Y22400   1.053   2.506  10.665 -1.7383 -0.1467  0.6194
  182DOPC  C31422401   1.242   2.608  10.717 -0.6126 -0.1133 -0.3626
  182DOPC  H14X22402   1.309   2.531  10.673  0.3227  1.9077 -2.8077
  182DOPC  H14Y22403   1.239   2.697  10.650  0.6362  0.0272 -0.2686
  182DOPC  C31522404   1.313   2.670  10.837 -0.4617 -0.3519 -0.2292
  182DOPC  H15X22405   1.287   2.614  10.929 -0.7387  1.4864  0.8715
  182DOPC  H15Y22406   1.249   2.761  10.839 -2.6991 -1.8405 -1.1155
  182DOPC  C31622407   1.467   2.697  10.818 -0.7950 -0.0279  0.4751
  182DOPC  H16X22408   1.518   2.599  10.802 -1.3367 -0.3484  0.6634
  182DOPC  H16Y22409   1.481   2.750  10.722 -0.7584  2.2182  1.6481
  182DOPC  C31722410   1.549   2.787  10.919  0.3440 -0.5564  0.0326
  182DOPC  H17X22411   1.654   2.776  10.884  0.1665 -1.8393 -0.1481
  182DOPC  H17Y22412   1.528   2.895  10.903 -1.4858 -1.0731 -1.3808
  182DOPC  C31822413   1.533   2.750  11.061  0.4872  0.0435 -0.4415
  182DOPC  H18X22414   1.427   2.732  11.090  1.0152 -1.1089  0.9048
  182DOPC  H18Y22415   1.583   2.653  11.082 -0.5706 -0.5957 -0.7756
  182DOPC  H18Z22416   1.574   2.826  11.131  0.1374 -1.2787  1.2915
  183DOPC     N22417   7.688   7.101   9.854 -0.3313 -0.1142 -0.8711
  183DOPC   C1222418   7.604   7.027   9.949  0.0151 -0.6468 -0.1249
  183DOPC  H12A22419   7.609   6.921   9.929 -1.6881 -1.0883  1.5273
  183DOPC  H12B22420   7.500   7.049   9.931  0.3795  0.7647 -0.6066
  183DOPC   C1322421   7.698   7.243   9.898 -0.0783  0.6750 -0.0616
  183DOPC  H13A22422   7.734   7.252   9.999 -2.5491  1.2055  0.8368
  183DOPC  H13B22423   7.766   7.292   9.830  0.1037  0.1365 -0.2713
  183DOPC  H13C22424   7.601   7.291   9.893 -0.2908  0.7042  2.6481
  183DOPC   C1422425   7.627   7.088   9.718  0.9826 -0.1723  0.3401
  183DOPC  H14A22426   7.622   6.982   9.697  2.5845 -0.3490  0.7169
  183DOPC  H14B22427   7.525   7.122   9.709  0.7680 -0.4687  1.5565
  183DOPC  H14C22428   7.682   7.138   9.639  0.4362  1.5166  0.9929
  183DOPC   C1522429   7.827   7.034   9.838  0.4092  0.0848  0.1706
  183DOPC  H15A22430   7.883   7.027   9.930 -0.2264 -0.9894  0.4963
  183DOPC  H15B22431   7.884   7.093   9.767  0.2010  0.0152 -0.0590
  183DOPC  H15C22432   7.827   6.936   9.793  1.1780  0.7051 -1.2853
  183DOPC   C1122433   7.639   7.044  10.095 -0.4907  0.3473  0.0521
  183DOPC  H11A22434   7.584   6.970  10.156 -2.7428 -0.0561 -2.2857
  183DOPC  H11B22435   7.748   7.030  10.110 -0.3493  1.7113  0.5096
  183DOPC     P22436   7.478   7.208  10.210  0.6592 -0.0473 -0.2534
  183DOPC   O1322437   7.370   7.154  10.127  0.2436  0.2771  0.1276
  183DOPC   O1422438   7.478   7.349  10.252 -0.1595 -0.3213  0.5210
  183DOPC   O1222439   7.616   7.177  10.143 -0.5698 -0.1202 -0.2751
  183DOPC   O1122440   7.501   7.128  10.350 -0.3283 -0.0062  0.2745
  183DOPC    C122441   7.620   7.127  10.428 -0.6300  0.0650  0.1825
  183DOPC    HA22442   7.662   7.229  10.417  0.5193 -0.5609 -1.8458
  183DOPC    HB22443   7.688   7.050  10.386 -2.2464 -1.0881 -0.4631
  183DOPC    C222444   7.612   7.091  10.579 -0.8872  0.9232 -0.5439
  183DOPC    HS22445   7.591   6.983  10.593 -1.0586  1.0444  0.1477
  183DOPC   O2122446   7.517   7.173  10.649  0.2186  0.0488 -0.0229
  183DOPC   C2122447   7.406   7.117  10.695 -0.7088  1.1399 -1.0302
  183DOPC   O2222448   7.369   7.003  10.667 -0.0424 -0.2845 -0.2757
  183DOPC   C2222449   7.331   7.211  10.795  0.0979 -0.6757  0.7113
  183DOPC   H2R22450   7.239   7.239  10.739  1.0979  3.1368  0.6762
  183DOPC   H2S22451   7.385   7.308  10.805  1.1163 -0.7533 -2.6894
  183DOPC    C322452   7.757   7.113  10.643  0.2523  0.3050  0.3479
  183DOPC    HX22453   7.806   7.212  10.629 -0.4845  0.5173 -0.8157
  183DOPC    HY22454   7.822   7.042  10.588 -0.9165 -0.3137 -0.2729
  183DOPC   O3122455   7.755   7.066  10.781 -0.2469 -0.1879 -0.2907
  183DOPC   C3122456   7.739   7.161  10.866 -0.0917  0.2904 -0.3268
  183DOPC   O3222457   7.731   7.282  10.842 -0.6855 -0.4106  0.2359
  183DOPC   C3222458   7.763   7.093  10.998  0.3411 -0.0888  0.7883
  183DOPC   H2X22459   7.838   7.012  10.985 -1.4205 -1.4658 -1.6864
  183DOPC   H2Y22460   7.820   7.166  11.059  0.4203  1.0088 -0.5524
  183DOPC   C2322461   7.297   7.146  10.934 -0.1642  0.7760  0.1769
  183DOPC   H3R22462   7.264   7.226  11.002  1.4320  2.6222 -1.1064
  183DOPC   H3S22463   7.378   7.091  10.987  0.7404  0.6906 -1.2416
  183DOPC   C2422464   7.188   7.041  10.922  0.3692  0.5356 -0.0474
  183DOPC   H4R22465   7.239   6.956  10.870  0.4219 -0.3819  1.4470
  183DOPC   H4S22466   7.108   7.090  10.862  0.5975  1.8593  0.7115
  183DOPC   C2522467   7.131   7.006  11.063 -0.3931 -0.1760  1.0666
  183DOPC   H5R22468   7.105   7.101  11.116  0.1823 -1.9587  4.8383
  183DOPC   H5S22469   7.211   6.964  11.127  1.5452  1.6930  0.0009
  183DOPC   C2622470   6.995   6.929  11.061 -0.5867  0.4816  0.0411
  183DOPC   H6R22471   7.016   6.837  11.003 -2.4385  1.2121 -1.9408
  183DOPC   H6S22472   6.923   6.976  10.991 -0.6287 -1.4734 -1.2990
  183DOPC   C2722473   6.921   6.901  11.191 -0.0210 -0.5213  0.0945
  183DOPC   H7R22474   6.881   6.996  11.231  1.0450 -0.0323  0.0393
  183DOPC   H7S22475   6.989   6.858  11.268 -1.0771 -0.0410  1.3210
  183DOPC   C2822476   6.803   6.793  11.166  0.0377  1.0072  0.2967
  183DOPC   H8R22477   6.839   6.701  11.116  1.2329  1.4044  0.3899
  183DOPC   H8S22478   6.736   6.842  11.092 -2.7186  0.8195  2.5021
  183DOPC   C2922479   6.726   6.759  11.287  0.3405 -0.3940  0.4438
  183DOPC   H9R22480   6.631   6.810  11.310 -0.0347 -1.3154  1.0175
  183DOPC  C21022481   6.767   6.677  11.388  0.1123 -0.3575  0.0361
  183DOPC  H10R22482   6.700   6.670  11.475  0.5942 -0.1627  0.4304
  183DOPC  C21122483   6.899   6.608  11.408  0.1018  0.1086  1.0056
  183DOPC  H11R22484   6.958   6.660  11.486  1.2530  0.8003 -0.2756
  183DOPC  H11S22485   6.965   6.604  11.318 -0.3181  0.6370  0.6631
  183DOPC  C21222486   6.870   6.462  11.453 -0.1407  0.4989 -0.7234
  183DOPC  H12R22487   6.824   6.458  11.554 -0.0667 -1.0912 -0.7305
  183DOPC  H12S22488   6.968   6.414  11.469 -0.9746 -0.7757  0.8733
  183DOPC  C21322489   6.780   6.381  11.364  0.4216  0.4344 -0.2958
  183DOPC  H13R22490   6.815   6.374  11.258 -2.8154  0.2468 -1.4864
  183DOPC  H13S22491   6.684   6.437  11.365  0.9557  1.4040 -1.2109
  183DOPC  C21422492   6.762   6.231  11.400  0.3509 -0.2306 -0.2117
  183DOPC  H14R22493   6.693   6.186  11.325  0.5034  1.5068 -1.4546
  183DOPC  H14S22494   6.735   6.208  11.505  1.6511 -0.9118 -0.0137
  183DOPC  C21522495   6.895   6.168  11.365  1.0110  0.2651  0.4254
  183DOPC  H15R22496   6.977   6.198  11.434  0.7516  0.2608  0.7355
  183DOPC  H15S22497   6.925   6.201  11.263 -0.5413  2.7227  0.6812
  183DOPC  C21622498   6.892   6.011  11.360  0.8680  0.1079 -0.1461
  183DOPC  H16R22499   6.992   5.991  11.316  1.4399 -1.3269  1.7111
  183DOPC  H16S22500   6.811   5.958  11.305  1.4834 -0.0110 -0.9578
  183DOPC  C21722501   6.909   5.942  11.493  0.2293 -0.2663  0.2503
  183DOPC  H17R22502   6.820   5.943  11.558  0.5504 -0.8070  0.7077
  183DOPC  H17S22503   6.989   5.990  11.553 -0.2293  1.1143 -0.2055
  183DOPC  C21822504   6.948   5.792  11.476  0.1067  0.2240 -0.1266
  183DOPC  H18R22505   7.051   5.792  11.433  0.6557  5.0474  0.6419
  183DOPC  H18S22506   6.876   5.738  11.410  0.9792 -0.3305 -0.6479
  183DOPC  H18T22507   6.956   5.750  11.579  1.4238 -0.0516 -0.3210
  183DOPC   C3322508   7.637   7.026  11.058 -0.0082 -0.4050  0.1878
  183DOPC   H3X22509   7.547   7.090  11.073  0.0263 -0.4778  0.7441
  183DOPC   H3Y22510   7.667   6.992  11.159  1.8636 -1.7330 -0.7687
  183DOPC   C3422511   7.597   6.897  10.969  0.3761  0.0971  0.5842
  183DOPC   H4X22512   7.691   6.839  10.953 -0.6882 -1.4442 -0.3324
  183DOPC   H4Y22513   7.556   6.944  10.877 -2.4512 -0.5642  1.4163
  183DOPC   C3522514   7.487   6.812  11.036  0.6967 -0.6192  0.4649
  183DOPC   H5X22515   7.391   6.867  11.027  1.6802  1.1675  0.5645
  183DOPC   H5Y22516   7.500   6.792  11.144 -1.2439  1.2254  1.1145
  183DOPC   C3622517   7.480   6.673  10.970  0.1242  0.0822 -0.5534
  183DOPC   H6X22518   7.480   6.679  10.859 -0.4743  0.1085 -0.5563
  183DOPC   H6Y22519   7.579   6.626  10.988  0.2843  0.5594 -0.1511
  183DOPC   C3722520   7.375   6.571  11.012  0.0806 -0.0180 -0.4176
  183DOPC   H7X22521   7.405   6.464  11.001 -0.5281 -0.1568 -0.8018
  183DOPC   H7Y22522   7.366   6.584  11.122  1.6296 -0.1450 -0.2611
  183DOPC   C3822523   7.239   6.605  10.952 -0.6754 -0.1645  0.1987
  183DOPC   H8X22524   7.231   6.586  10.843 -2.5459  2.6654 -0.2832
  183DOPC   H8Y22525   7.226   6.715  10.957  1.2677  0.1747 -1.0847
  183DOPC   C3922526   7.137   6.519  11.018 -0.1075  0.2361 -0.2172
  183DOPC   H9X22527   7.141   6.517  11.127 -0.6210  0.8529 -0.1825
  183DOPC  C31022528   7.038   6.449  10.960  0.3643  0.8219 -0.6598
  183DOPC  H10X22529   6.973   6.393  11.028  0.5475  2.9292  1.3872
  183DOPC  C31122530   6.989   6.451  10.815  0.1153  0.0297 -0.3714
  183DOPC  H11X22531   7.063   6.504  10.751 -2.4277  2.4345 -1.5254
  183DOPC  H11Y22532   6.897   6.514  10.816  0.4330  0.6073  2.3786
  183DOPC  C31222533   6.943   6.307  10.769 -0.7381 -0.6296  0.4697
  183DOPC  H12X22534   7.023   6.231  10.785  0.3109  0.2942 -0.2689
  183DOPC  H12Y22535   6.934   6.327  10.660  0.2603 -2.3243  0.0411
  183DOPC  C31322536   6.810   6.269  10.831  0.1834 -1.2450  0.0307
  183DOPC  H13X22537   6.815   6.269  10.942 -0.9012 -2.3334  0.0891
  183DOPC  H13Y22538   6.742   6.347  10.789 -0.1801 -0.1831  2.4530
  183DOPC  C31422539   6.757   6.133  10.785  0.3665 -0.2140  0.0969
  183DOPC  H14X22540   6.750   6.126  10.674  1.7073 -0.9685  0.0359
  183DOPC  H14Y22541   6.834   6.058  10.811  1.6489  0.3707 -1.7585
  183DOPC  C31522542   6.630   6.101  10.856  0.2022  0.2496 -0.0135
  183DOPC  H15X22543   6.549   6.175  10.837 -0.6201  0.1829  2.7847
  183DOPC  H15Y22544   6.645   6.116  10.965  0.5489 -0.4490  0.0341
  183DOPC  C31622545   6.578   5.958  10.831  0.8014 -0.7796  0.0883
  183DOPC  H16X22546   6.483   5.945  10.888  0.4229 -1.0535 -0.6011
  183DOPC  H16Y22547   6.540   5.945  10.728 -1.2743 -1.2312  0.8454
  183DOPC  C31722548   6.671   5.849  10.880  0.0618 -0.5520 -0.4767
  183DOPC  H17X22549   6.760   5.857  10.814 -0.3933  1.8152 -0.8861
  183DOPC  H17Y22550   6.687   5.887  10.984  2.0902 -0.4108 -0.7947
  183DOPC  C31822551   6.610   5.712  10.871 -0.2637  0.8149  0.8436
  183DOPC  H18X22552   6.593   5.707  10.761 -0.2781  3.5508  0.6669
  183DOPC  H18Y22553   6.684   5.636  10.904 -1.3976 -0.1451  1.2753
  183DOPC  H18Z22554   6.515   5.688  10.924 -0.0652  0.3970  1.0135
  184DOPC     N22555   3.962   2.148   9.551 -0.2303  0.6385  0.1006
  184DOPC   C1222556   3.871   2.038   9.609 -0.3947 -0.3224  0.3731
  184DOPC  H12A22557   3.815   2.085   9.688  0.5349  0.6608  0.4766
  184DOPC  H12B22558   3.938   1.969   9.658 -0.6205  0.1981  1.4285
  184DOPC   C1322559   4.078   2.184   9.647 -1.1734 -0.4220 -0.6508
  184DOPC  H13A22560   4.051   2.262   9.717 -0.7688 -2.1219  1.4969
  184DOPC  H13B22561   4.123   2.100   9.698  0.8592  1.3940  0.7496
  184DOPC  H13C22562   4.165   2.213   9.589 -1.5340 -0.0986 -1.0398
  184DOPC   C1422563   3.895   2.269   9.509 -0.2092 -0.5360  0.3023
  184DOPC  H14A22564   3.846   2.328   9.585 -0.8565 -1.2569  0.4667
  184DOPC  H14B22565   3.967   2.330   9.457  0.0712 -1.9029 -1.0121
  184DOPC  H14C22566   3.819   2.240   9.437 -1.0326 -1.1833  1.3977
  184DOPC   C1522567   4.027   2.082   9.428 -0.9747  0.3474  0.4580
  184DOPC  H15A22568   3.963   2.085   9.342  0.8170  1.8343 -0.9135
  184DOPC  H15B22569   4.055   1.982   9.458 -0.4871  0.4965  0.5201
  184DOPC  H15C22570   4.114   2.137   9.394 -2.3967  2.3620 -0.0593
  184DOPC   C1122571   3.776   1.979   9.498 -0.0321 -0.2028 -0.3852
  184DOPC  H11A22572   3.831   1.909   9.432  2.3326  0.6225  0.5827
  184DOPC  H11B22573   3.705   1.919   9.559  2.4855 -0.6929  2.2792
  184DOPC     P22574   3.559   2.041   9.372 -0.2382 -0.0407  0.4587
  184DOPC   O1322575   3.579   1.916   9.294 -0.1609 -0.2381  0.0342
  184DOPC   O1422576   3.504   2.153   9.302 -0.2590 -0.3006 -0.2177
  184DOPC   O1222577   3.696   2.080   9.428  0.1061 -0.0363  0.2437
  184DOPC   O1122578   3.475   2.012   9.503 -0.3232 -0.2044  0.5580
  184DOPC    C122579   3.483   2.114   9.600  0.2443  0.4670 -0.6875
  184DOPC    HA22580   3.427   2.204   9.566 -1.2118  0.1273  0.6876
  184DOPC    HB22581   3.586   2.149   9.621 -0.2664  1.4723  0.2735
  184DOPC    C222582   3.424   2.069   9.734 -1.1424  0.5740  0.2462
  184DOPC    HS22583   3.459   2.146   9.806  0.2325 -0.7502  1.0453
  184DOPC   O2122584   3.466   1.932   9.761  0.9352 -0.3463 -0.0911
  184DOPC   C2122585   3.584   1.933   9.821  0.4009 -0.8082  0.3005
  184DOPC   O2222586   3.648   2.033   9.850 -0.1528  0.1390  0.0938
  184DOPC   C2222587   3.620   1.790   9.851  0.3375  0.0842  0.3248
  184DOPC   H2R22588   3.731   1.787   9.848  0.3071 -1.3042 -0.1680
  184DOPC   H2S22589   3.578   1.723   9.773 -0.3579 -0.4643  1.1520
  184DOPC    C322590   3.270   2.069   9.738  0.0056 -0.2972  0.0441
  184DOPC    HX22591   3.235   2.006   9.653  1.0097  0.6184 -1.0763
  184DOPC    HY22592   3.241   2.174   9.716 -0.9641  0.2162  3.1897
  184DOPC   O3122593   3.213   2.027   9.869 -0.2268  0.8936  0.2877
  184DOPC   C3122594   3.096   2.073   9.896 -0.4719  1.0328  0.6600
  184DOPC   O3222595   3.022   2.114   9.809 -0.1052 -0.2654  0.1277
  184DOPC   C3222596   3.077   2.080  10.045 -0.6188 -0.6639 -0.2931
  184DOPC   H2X22597   2.984   2.136  10.069 -0.1391 -0.2767  0.7049
  184DOPC   H2Y22598   3.067   1.979  10.091  2.5055 -0.4030  1.2411
  184DOPC   C2322599   3.563   1.738   9.981 -0.0304  0.3807 -0.6888
  184DOPC   H3R22600   3.610   1.779  10.073  0.0064 -0.1025 -0.4918
  184DOPC   H3S22601   3.592   1.631   9.988 -1.3296 -0.0306 -1.3550
  184DOPC   C2422602   3.407   1.742   9.989 -0.3443  0.8266 -0.4895
  184DOPC   H4R22603   3.375   1.694   9.895 -0.2113 -2.1903  0.8913
  184DOPC   H4S22604   3.373   1.846   9.969  0.8129  0.5778 -4.6116
  184DOPC   C2522605   3.338   1.688  10.115  1.0825 -0.3470 -0.3611
  184DOPC   H5R22606   3.230   1.706  10.101  0.9297 -0.5073  0.5691
  184DOPC   H5S22607   3.363   1.756  10.200 -0.6974  0.4541 -0.4468
  184DOPC   C2622608   3.366   1.543  10.155 -0.2302 -0.4297 -0.0801
  184DOPC   H6R22609   3.476   1.524  10.154 -0.2330 -1.0453  2.6958
  184DOPC   H6S22610   3.306   1.477  10.089 -1.6507  1.5554 -0.8666
  184DOPC   C2722611   3.328   1.510  10.298 -0.2892 -0.3291 -0.3005
  184DOPC   H7R22612   3.218   1.517  10.303 -0.4044  1.4700 -3.3983
  184DOPC   H7S22613   3.368   1.592  10.361 -2.5908  0.0417  0.7853
  184DOPC   C2822614   3.368   1.365  10.358  0.6038  0.2534  0.1209
  184DOPC   H8R22615   3.329   1.349  10.461  1.5168  0.3863  0.4905
  184DOPC   H8S22616   3.478   1.361  10.372  0.7388  0.0088 -0.9187
  184DOPC   C2922617   3.333   1.246  10.263  0.2903  0.2387 -0.6920
  184DOPC   H9R22618   3.412   1.225  10.190  0.6756 -1.7733  0.2463
  184DOPC  C21022619   3.226   1.163  10.253  0.8452 -0.3817  0.1516
  184DOPC  H10R22620   3.238   1.077  10.185  0.1408 -1.1381  0.9740
  184DOPC  C21122621   3.104   1.160  10.344  0.1313 -0.0580  0.5090
  184DOPC  H11R22622   3.010   1.180  10.289 -0.5306 -1.1572  1.2055
  184DOPC  H11S22623   3.112   1.249  10.410  1.2060 -0.2093  0.5994
  184DOPC  C21222624   3.095   1.034  10.423 -0.2088 -0.7071 -0.2654
  184DOPC  H12R22625   3.187   1.029  10.486  0.4691 -0.3608 -1.1912
  184DOPC  H12S22626   3.095   0.945  10.356 -1.7646 -3.3540  2.9817
  184DOPC  C21322627   2.984   1.024  10.519 -0.0795  0.5267 -0.5700
  184DOPC  H13R22628   2.883   1.006  10.475  0.2488  1.1270 -1.6082
  184DOPC  H13S22629   2.986   1.122  10.572 -3.3355 -0.0215  0.8578
  184DOPC  C21422630   3.002   0.918  10.630  0.3664  0.3618 -0.2294
  184DOPC  H14R22631   2.926   0.949  10.705 -0.0913  0.8675 -0.8985
  184DOPC  H14S22632   3.100   0.936  10.680 -1.0983 -0.4803  3.2279
  184DOPC  C21522633   3.003   0.775  10.571  0.1525  0.0855  0.0138
  184DOPC  H15R22634   3.087   0.769  10.499  1.1248 -0.0469  1.1302
  184DOPC  H15S22635   2.907   0.764  10.516 -0.5463 -1.9023  1.5032
  184DOPC  C21622636   3.007   0.668  10.680 -0.7886 -0.4553 -0.2993
  184DOPC  H16R22637   2.929   0.699  10.753  1.0246 -1.0023  1.9929
  184DOPC  H16S22638   3.104   0.669  10.733 -1.6673  0.1519  1.3783
  184DOPC  C21722639   2.986   0.527  10.645  0.2822  0.2506  0.0375
  184DOPC  H17R22640   2.965   0.467  10.736  0.2019  0.1181 -0.0678
  184DOPC  H17S22641   3.064   0.465  10.597 -0.4691 -0.7320  0.0452
  184DOPC  C21822642   2.863   0.505  10.552  0.0327 -0.0857  0.7454
  184DOPC  H18R22643   2.770   0.558  10.582  0.7761  0.4071  2.2807
  184DOPC  H18S22644   2.834   0.398  10.543 -1.8406  0.3963  0.4972
  184DOPC  H18T22645   2.891   0.526  10.446 -1.5489  1.6915  0.6124
  184DOPC   C3322646   3.204   2.143  10.110  0.1397  0.5365  0.5753
  184DOPC   H3X22647   3.230   2.242  10.067 -0.8388  0.4238 -0.3253
  184DOPC   H3Y22648   3.293   2.080  10.089  0.1084  1.0673 -1.2723
  184DOPC   C3422649   3.195   2.141  10.261 -0.6894 -0.4690 -0.1065
  184DOPC   H4X22650   3.296   2.156  10.303 -0.4149 -0.0749 -0.8888
  184DOPC   H4Y22651   3.160   2.041  10.294  1.3853 -1.3435 -0.4460
  184DOPC   C3522652   3.097   2.249  10.311  0.8372 -0.3808 -0.4959
  184DOPC   H5X22653   2.989   2.260  10.289  0.8153  1.2625  0.2387
  184DOPC   H5Y22654   3.142   2.345  10.275  2.2799 -0.3019  1.3478
  184DOPC   C3622655   3.100   2.272  10.460 -0.3293  0.0768  0.2357
  184DOPC   H6X22656   3.198   2.308  10.498  0.3739  0.2484 -1.6461
  184DOPC   H6Y22657   3.036   2.361  10.478  0.8475  1.8084 -3.1890
  184DOPC   C3722658   3.044   2.154  10.539 -0.5675  0.8655 -0.2919
  184DOPC   H7X22659   2.937   2.134  10.519 -0.5373  0.0206  0.3616
  184DOPC   H7Y22660   3.106   2.063  10.523 -1.3218  0.0967  1.0500
  184DOPC   C3822661   3.065   2.170  10.689 -0.1493 -0.5320  0.0884
  184DOPC   H8X22662   2.993   2.242  10.732 -1.4040 -0.9932 -1.1985
  184DOPC   H8Y22663   3.170   2.202  10.710  0.0598  1.2905 -3.1970
  184DOPC   C3922664   3.056   2.040  10.757  0.8601 -0.4786  0.2225
  184DOPC   H9X22665   3.094   1.953  10.702  2.1454 -1.7157  2.8913
  184DOPC  C31022666   3.005   2.022  10.879  0.3301  0.0871  0.5453
  184DOPC  H10X22667   2.986   1.917  10.908  0.4902 -0.0442  0.1745
  184DOPC  C31122668   2.971   2.119  10.987 -0.0072  1.1815  0.2836
  184DOPC  H11X22669   2.975   2.224  10.949 -1.7196  1.3179  0.4194
  184DOPC  H11Y22670   3.044   2.111  11.070  0.0135 -1.5196  0.0708
  184DOPC  C31222671   2.834   2.092  11.054  0.2312  0.5627  0.2300
  184DOPC  H12X22672   2.755   2.067  10.982 -1.5342 -1.6622  2.7559
  184DOPC  H12Y22673   2.814   2.192  11.099  2.7664  1.0147  0.5181
  184DOPC  C31322674   2.831   1.981  11.158 -0.0498  0.2317 -0.9062
  184DOPC  H13X22675   2.844   1.886  11.102  2.3945  1.2594 -2.2413
  184DOPC  H13Y22676   2.932   2.001  11.200 -0.5826  1.5415 -0.2031
  184DOPC  C31422677   2.715   1.972  11.263 -0.2223 -0.4962 -0.1040
  184DOPC  H14X22678   2.710   2.080  11.291  2.2475 -0.1601 -0.7084
  184DOPC  H14Y22679   2.621   1.939  11.214  2.4152 -3.1317 -3.9355
  184DOPC  C31522680   2.750   1.882  11.382  0.1392 -1.5025 -0.0241
  184DOPC  H15X22681   2.856   1.900  11.412 -0.4792  1.3720  0.7818
  184DOPC  H15Y22682   2.746   1.775  11.354 -1.6564 -1.2038 -1.0896
  184DOPC  C31622683   2.655   1.912  11.498 -0.4023  0.0059 -0.0519
  184DOPC  H16X22684   2.688   2.006  11.546 -0.6477 -0.0752  0.2785
  184DOPC  H16Y22685   2.551   1.910  11.461 -0.4231  2.2430 -0.2529
  184DOPC  C31722686   2.655   1.804  11.607 -0.6083 -0.0526  0.5203
  184DOPC  H17X22687   2.748   1.828  11.662 -0.4241 -1.1058  0.6813
  184DOPC  H17Y22688   2.570   1.817  11.678 -0.6663 -0.5098  0.5386
  184DOPC  C31822689   2.658   1.651  11.570  0.2021 -1.1717 -0.0815
  184DOPC  H18X22690   2.642   1.585  11.658  2.6447 -0.9781  0.6019
  184DOPC  H18Y22691   2.573   1.640  11.500 -0.2542 -0.0835  0.2808
  184DOPC  H18Z22692   2.753   1.628  11.518  0.5397 -1.6980  0.7455
  185DOPC     N22693   5.302   7.928   9.840 -0.1385  0.4238  0.0736
  185DOPC   C1222694   5.279   7.975   9.985 -0.1838  0.5764  0.5934
  185DOPC  H12A22695   5.174   7.993  10.001 -0.5993 -1.2014  0.0742
  185DOPC  H12B22696   5.325   8.073   9.990 -0.3484  0.8336 -1.8285
  185DOPC   C1322697   5.245   8.024   9.745 -0.0995 -0.1957  0.2632
  185DOPC  H13A22698   5.297   8.118   9.746  1.1456 -0.7962 -1.6847
  185DOPC  H13B22699   5.254   7.999   9.640 -0.4687 -1.3884  0.5039
  185DOPC  H13C22700   5.139   8.043   9.754  0.0050  0.5903 -0.0227
  185DOPC   C1422701   5.240   7.798   9.801 -0.1451 -0.0661 -0.0668
  185DOPC  H14A22702   5.134   7.799   9.823 -0.1539  0.6707 -0.0956
  185DOPC  H14B22703   5.264   7.782   9.697  2.1156 -3.5464  0.8205
  185DOPC  H14C22704   5.288   7.718   9.854  1.1482  0.0949 -0.9467
  185DOPC   C1522705   5.446   7.917   9.808  0.0985  0.2323 -0.8652
  185DOPC  H15A22706   5.464   7.896   9.704  1.8271 -2.0437 -0.2006
  185DOPC  H15B22707   5.473   7.830   9.867  1.2448  2.4059  2.0330
  185DOPC  H15C22708   5.501   8.003   9.844 -1.3934 -0.1571  2.7680
  185DOPC   C1122709   5.326   7.885  10.102  0.1968 -0.6350  0.3415
  185DOPC  H11A22710   5.284   7.927  10.195 -0.4810  1.1797 -0.7395
  185DOPC  H11B22711   5.280   7.785  10.086  0.7258 -0.9259  0.6227
  185DOPC     P22712   5.548   8.005  10.157  0.2593  0.1125 -0.0815
  185DOPC   O1322713   5.518   8.119  10.069  0.2810  0.3655 -0.3046
  185DOPC   O1422714   5.691   7.972  10.164  0.0989  0.2806  0.3136
  185DOPC   O1222715   5.465   7.872  10.113 -0.1990  0.0728 -0.3664
  185DOPC   O1122716   5.495   8.040  10.300 -0.3106  0.3885 -0.8230
  185DOPC    C122717   5.585   8.053  10.415  0.1006  0.0695  0.0610
  185DOPC    HA22718   5.654   7.966  10.410  0.3123  0.2982 -1.6861
  185DOPC    HB22719   5.527   8.057  10.510  1.4511 -0.2197  0.9291
  185DOPC    C222720   5.677   8.174  10.408  0.6259 -0.2915  0.6269
  185DOPC    HS22721   5.725   8.171  10.307  0.0474 -0.9359  0.3584
  185DOPC   O2122722   5.770   8.163  10.513  0.2559 -0.5814  0.4573
  185DOPC   C2122723   5.899   8.195  10.483 -0.0842  0.2410 -0.6022
  185DOPC   O2222724   5.945   8.213  10.377 -0.5336 -0.1650  0.4528
  185DOPC   C2222725   5.982   8.197  10.612  0.2290  0.0416 -0.2346
  185DOPC   H2R22726   5.923   8.204  10.706  1.9470 -0.5938  0.9482
  185DOPC   H2S22727   6.042   8.291  10.614 -0.2612  0.3789  2.5386
  185DOPC    C322728   5.588   8.308  10.416 -0.2956 -0.3556  0.3807
  185DOPC    HX22729   5.500   8.303  10.348 -0.8616  0.8177  0.9976
  185DOPC    HY22730   5.637   8.402  10.385  0.1210 -0.5462  0.4586
  185DOPC   O3122731   5.541   8.317  10.550  0.7844  0.0370 -0.5971
  185DOPC   C3122732   5.620   8.394  10.630  0.4166  0.3029  0.6458
  185DOPC   O3222733   5.722   8.447  10.597  0.5404  0.2938  0.6901
  185DOPC   C3222734   5.566   8.389  10.776  0.8162 -0.6267  0.4066
  185DOPC   H2X22735   5.568   8.283  10.808 -1.0608 -1.5517 -2.2339
  185DOPC   H2Y22736   5.623   8.462  10.837 -0.5050  0.4243  0.4278
  185DOPC   C2322737   6.082   8.081  10.615  0.2019 -0.3862 -0.1334
  185DOPC   H3R22738   6.158   8.113  10.689  1.1981 -2.1961 -0.2996
  185DOPC   H3S22739   6.137   8.074  10.518  0.2588 -2.2789 -0.0166
  185DOPC   C2422740   6.024   7.944  10.653 -0.3333 -0.7332  0.3695
  185DOPC   H4R22741   5.945   7.919  10.580 -2.7321 -1.5567  3.0889
  185DOPC   H4S22742   5.985   7.953  10.756 -1.4191  2.4893 -0.1924
  185DOPC   C2522743   6.134   7.836  10.657 -0.4637  0.3482  0.4083
  185DOPC   H5R22744   6.219   7.864  10.723 -0.3292 -1.1678  0.9121
  185DOPC   H5S22745   6.176   7.835  10.554  0.3259 -0.5847  0.7284
  185DOPC   C2622746   6.077   7.705  10.704  0.8508  0.2440  0.3183
  185DOPC   H6R22747   5.982   7.677  10.654  0.0094  3.7590 -0.3268
  185DOPC   H6S22748   6.054   7.709  10.812 -2.7915 -2.0774 -0.2096
  185DOPC   C2722749   6.177   7.592  10.667 -0.4680  0.9525 -0.0963
  185DOPC   H7R22750   6.266   7.606  10.732 -1.7915 -0.4984  2.1248
  185DOPC   H7S22751   6.209   7.592  10.560  0.8193  0.4008  0.2618
  185DOPC   C2822752   6.116   7.451  10.681 -0.3761  0.2310  0.3373
  185DOPC   H8R22753   6.182   7.376  10.633 -2.0108 -0.2090 -1.3428
  185DOPC   H8S22754   6.019   7.436  10.629 -1.2563  0.0511  1.9759
  185DOPC   C2922755   6.089   7.421  10.819 -0.1297  0.2730 -1.0277
  185DOPC   H9R22756   6.011   7.486  10.863 -0.4694 -0.4130 -0.5984
  185DOPC  C21022757   6.148   7.332  10.903 -0.8675  0.0107  0.6804
  185DOPC  H10R22758   6.111   7.322  11.006  0.2654  0.7476  1.1762
  185DOPC  C21122759   6.252   7.230  10.863 -0.6905  0.7304 -0.5823
  185DOPC  H11R22760   6.262   7.202  10.756  0.5397 -2.4916  0.2619
  185DOPC  H11S22761   6.230   7.136  10.917 -0.2473  0.9791  0.0403
  185DOPC  C21222762   6.397   7.271  10.899 -0.6863 -0.2013  0.0420
  185DOPC  H12R22763   6.387   7.331  10.992 -0.3139 -1.3666  0.8597
  185DOPC  H12S22764   6.437   7.339  10.820  1.5504 -1.3326  0.1109
  185DOPC  C21322765   6.496   7.156  10.909  0.1434 -0.5797 -0.3120
  185DOPC  H13R22766   6.505   7.111  10.808 -0.3850 -0.7903 -0.2725
  185DOPC  H13S22767   6.453   7.077  10.974 -2.9633  1.8286  0.8578
  185DOPC  C21422768   6.641   7.190  10.948  0.4465 -0.0680  0.0147
  185DOPC  H14R22769   6.680   7.268  10.879  0.1975 -1.2030 -1.4569
  185DOPC  H14S22770   6.712   7.108  10.927  0.6780  0.4320 -1.2676
  185DOPC  C21522771   6.634   7.236  11.099  0.0842 -0.1011  0.1243
  185DOPC  H15R22772   6.606   7.146  11.159  0.0667 -0.2796 -0.1473
  185DOPC  H15S22773   6.565   7.321  11.114  0.3879 -0.1531  1.9906
  185DOPC  C21622774   6.774   7.285  11.147  0.4116 -0.0400  0.2734
  185DOPC  H16R22775   6.834   7.346  11.076  1.8854 -1.1416  0.5280
  185DOPC  H16S22776   6.847   7.203  11.165  0.3502 -0.6938 -2.1041
  185DOPC  C21722777   6.757   7.367  11.275 -0.0457 -0.2600 -0.3537
  185DOPC  H17R22778   6.716   7.303  11.356 -0.6539  0.0148 -0.4416
  185DOPC  H17S22779   6.683   7.449  11.259 -0.4865 -0.4444  0.6794
  185DOPC  C21822780   6.893   7.417  11.332 -0.3444  0.0596 -0.8214
  185DOPC  H18R22781   6.944   7.467  11.247  1.3942  1.6169  1.0373
  185DOPC  H18S22782   6.940   7.335  11.390 -1.0670 -0.5060 -1.0208
  185DOPC  H18T22783   6.868   7.502  11.399  0.3844  0.0355 -0.5128
  185DOPC   C3322784   5.430   8.444  10.779 -0.3978  0.2462  0.1835
  185DOPC   H3X22785   5.404   8.442  10.887 -1.3113  0.8477 -0.0111
  185DOPC   H3Y22786   5.355   8.380  10.728  0.0343 -0.2213  0.1265
  185DOPC   C3422787   5.424   8.591  10.743  0.5963  0.6596 -0.7168
  185DOPC   H4X22788   5.418   8.602  10.632 -2.1927 -1.2079 -0.8531
  185DOPC   H4Y22789   5.520   8.645  10.761  0.9177 -0.0329 -0.3168
  185DOPC   C3522790   5.302   8.666  10.795 -0.3650 -0.4472 -0.8654
  185DOPC   H5X22791   5.216   8.610  10.752 -1.6558 -0.5925  1.7310
  185DOPC   H5Y22792   5.302   8.768  10.750 -0.3057 -0.7215 -1.5034
  185DOPC   C3622793   5.284   8.682  10.947  0.0902 -0.5461  0.6276
  185DOPC   H6X22794   5.188   8.734  10.970  0.4607 -0.4739  2.1020
  185DOPC   H6Y22795   5.273   8.578  10.984  0.7053 -0.3966  1.2452
  185DOPC   C3722796   5.404   8.738  11.024 -0.4881  0.2116  0.0046
  185DOPC   H7X22797   5.500   8.687  11.000  0.4257  0.5459  2.6152
  185DOPC   H7Y22798   5.401   8.844  10.989  0.1109 -0.1525 -1.1803
  185DOPC   C3822799   5.386   8.736  11.177  0.2812 -0.8248  0.5404
  185DOPC   H8X22800   5.290   8.789  11.195  0.9730  0.3609  0.8043
  185DOPC   H8Y22801   5.460   8.803  11.224 -1.9456  1.6965  0.6984
  185DOPC   C3922802   5.380   8.600  11.248  0.0292 -0.3359 -0.0110
  185DOPC   H9X22803   5.351   8.510  11.191 -4.0025  0.9029 -0.2111
  185DOPC  C31022804   5.410   8.586  11.378 -0.0572 -0.5488 -0.6348
  185DOPC  H10X22805   5.420   8.484  11.418 -0.4488 -0.3217  0.0575
  185DOPC  C31122806   5.446   8.696  11.476  0.6807 -0.5238 -0.3284
  185DOPC  H11X22807   5.488   8.779  11.415 -2.3911 -0.5238 -2.6441
  185DOPC  H11Y22808   5.516   8.656  11.553  0.7849 -0.8061 -0.5658
  185DOPC  C31222809   5.320   8.763  11.549  0.3896 -1.0391  0.3655
  185DOPC  H12X22810   5.272   8.681  11.607 -2.0766 -0.2356 -0.4494
  185DOPC  H12Y22811   5.263   8.801  11.462 -1.5243  2.3317  2.8499
  185DOPC  C31322812   5.368   8.884  11.634  0.3008  0.0408 -0.2807
  185DOPC  H13X22813   5.418   8.834  11.719 -0.2278 -0.4694 -0.2672
  185DOPC  H13Y22814   5.449   8.942  11.584 -0.3263  0.7546 -0.4947
  185DOPC  C31422815   5.256   8.980  11.679  0.2391 -0.3255 -0.5196
  185DOPC  H14X22816   5.191   9.003  11.592 -1.0140 -0.6670  0.2921
  185DOPC  H14Y22817   5.199   8.926  11.758  0.0023  0.9438  0.2021
  185DOPC  C31522818   5.312   9.108  11.732  0.1823 -0.1871  0.8469
  185DOPC  H15X22819   5.373   9.149  11.649  0.1208 -1.8279 -0.0549
  185DOPC  H15Y22820   5.378   9.086  11.819  0.3243 -0.7323  0.6029
  185DOPC  C31622821   5.193   9.207  11.777 -0.1470 -0.7290  0.9336
  185DOPC  H16X22822   5.118   9.201  11.696  0.5606  0.7796  0.1189
  185DOPC  H16Y22823   5.136   9.169  11.864 -0.3021  2.4647  2.3919
  185DOPC  C31722824   5.238   9.348  11.792 -0.0893  0.3078 -0.1832
  185DOPC  H17X22825   5.288   9.375  11.697  0.3121  0.7436  0.1509
  185DOPC  H17Y22826   5.142   9.404  11.798 -1.8219 -2.3755 -1.0399
  185DOPC  C31822827   5.323   9.380  11.914 -0.1751  0.4280 -0.4109
  185DOPC  H18X22828   5.279   9.340  12.008 -3.1978  1.8842 -1.0771
  185DOPC  H18Y22829   5.423   9.332  11.913 -0.5380 -0.4070 -2.5582
  185DOPC  H18Z22830   5.334   9.490  11.920 -0.6002  0.3766  3.0477
  186DOPC     N22831   5.314   5.226  10.374  0.2390 -0.4448 -0.8149
  186DOPC   C1222832   5.436   5.129  10.397 -0.0386 -1.0397 -1.2322
  186DOPC  H12A22833   5.458   5.137  10.502  0.9429 -0.1023 -1.4932
  186DOPC  H12B22834   5.515   5.157  10.329  0.9578 -0.3095  0.1804
  186DOPC   C1322835   5.185   5.197  10.459 -0.0776  0.6693  0.3605
  186DOPC  H13A22836   5.099   5.256  10.431 -0.8221 -0.2984  0.5149
  186DOPC  H13B22837   5.162   5.091  10.459 -1.8515  1.0173 -0.4420
  186DOPC  H13C22838   5.193   5.207  10.566 -0.7288 -3.5933  1.0053
  186DOPC   C1422839   5.267   5.215  10.231 -0.3329  0.1628 -0.1855
  186DOPC  H14A22840   5.354   5.234  10.169 -0.3814  0.3077 -0.2103
  186DOPC  H14B22841   5.250   5.110  10.210  1.6472  0.2570 -2.8838
  186DOPC  H14C22842   5.179   5.275  10.215 -0.8076  0.2165  2.3061
  186DOPC   C1522843   5.353   5.369  10.399  0.3441 -0.2593 -0.5320
  186DOPC  H15A22844   5.269   5.430  10.369 -0.3722 -0.7524  0.3899
  186DOPC  H15B22845   5.437   5.407  10.343  0.0183  0.3982 -0.5854
  186DOPC  H15C22846   5.365   5.388  10.505 -2.0962 -1.5702  0.0628
  186DOPC   C1122847   5.403   4.978  10.370 -0.4605 -0.2488 -0.3998
  186DOPC  H11A22848   5.489   4.914  10.399  0.0064 -0.0870 -1.3687
  186DOPC  H11B22849   5.322   4.957  10.442  0.8208  1.0091  1.4898
  186DOPC     P22850   5.468   4.917  10.123 -0.1263 -0.1182 -0.3005
  186DOPC   O1322851   5.570   5.015  10.104  0.3008 -0.8523 -0.3227
  186DOPC   O1422852   5.384   4.887  10.007  0.3033 -0.2344 -0.2572
  186DOPC   O1222853   5.365   4.956  10.234  0.6301  0.6939 -0.5012
  186DOPC   O1122854   5.535   4.776  10.167  0.0675 -0.2551 -0.4225
  186DOPC    C122855   5.467   4.652  10.162  0.1056  0.4567  0.0027
  186DOPC    HA22856   5.539   4.569  10.147 -0.1681  0.3220 -0.5618
  186DOPC    HB22857   5.394   4.653  10.079 -0.0815  2.6069  0.1478
  186DOPC    C222858   5.380   4.617  10.297 -0.9401 -0.5897 -0.7146
  186DOPC    HS22859   5.284   4.671  10.284 -1.2082 -0.1957  2.2185
  186DOPC   O2122860   5.441   4.661  10.418  0.1351 -0.2700  0.2218
  186DOPC   C2122861   5.364   4.672  10.521  0.6594  0.6871  0.1343
  186DOPC   O2222862   5.244   4.658  10.516  0.8926 -0.3002  0.4718
  186DOPC   C2222863   5.445   4.718  10.639 -0.5336  0.0379  0.1444
  186DOPC   H2R22864   5.496   4.815  10.620  0.7090 -0.6012  0.1644
  186DOPC   H2S22865   5.528   4.648  10.660  0.3274  1.2882  1.0971
  186DOPC    C322866   5.342   4.462  10.301 -0.1011  0.2408  0.6681
  186DOPC    HX22867   5.423   4.404  10.350 -1.0964 -2.1357 -0.3562
  186DOPC    HY22868   5.336   4.423  10.198 -0.7889 -0.1793  0.8596
  186DOPC   O3122869   5.222   4.434  10.371  0.6544  0.0812  0.4507
  186DOPC   C3122870   5.188   4.308  10.396  0.4763  0.6620  0.6175
  186DOPC   O3222871   5.253   4.210  10.355  0.0297  0.3276 -0.2559
  186DOPC   C3222872   5.047   4.301  10.457  0.5529 -0.2553  0.3792
  186DOPC   H2X22873   5.036   4.389  10.523 -0.5504  0.5602 -0.8618
  186DOPC   H2Y22874   4.968   4.289  10.380  0.1026 -1.5142  1.0055
  186DOPC   C2322875   5.356   4.720  10.771  0.3520  0.5337  0.2192
  186DOPC   H3R22876   5.291   4.630  10.774 -2.1559  2.2373  0.2212
  186DOPC   H3S22877   5.292   4.811  10.775 -1.4257 -0.6954  1.2336
  186DOPC   C2422878   5.427   4.725  10.903  0.0610 -0.6826  0.0369
  186DOPC   H4R22879   5.509   4.799  10.890  0.2258 -0.4118  2.1555
  186DOPC   H4S22880   5.480   4.630  10.922  1.9901 -0.1736 -2.2850
  186DOPC   C2522881   5.341   4.751  11.030  0.7156 -0.5878 -0.2853
  186DOPC   H5R22882   5.284   4.660  11.057  1.4416 -1.6228 -2.0424
  186DOPC   H5S22883   5.267   4.830  11.007  0.0385 -1.2199 -0.2916
  186DOPC   C2622884   5.426   4.785  11.152 -0.0253 -0.1890 -0.3205
  186DOPC   H6R22885   5.465   4.889  11.148 -1.0770  0.1761 -1.7344
  186DOPC   H6S22886   5.512   4.715  11.151  0.7996  0.7755  0.5608
  186DOPC   C2722887   5.352   4.770  11.287  0.6090  0.6415 -0.4901
  186DOPC   H7R22888   5.423   4.796  11.369  1.2715  1.5331 -1.3259
  186DOPC   H7S22889   5.311   4.667  11.298  0.5861  0.8307  1.8594
  186DOPC   C2822890   5.236   4.878  11.311  0.0876 -0.0417 -0.6183
  186DOPC   H8R22891   5.154   4.868  11.238  0.7598 -2.4966 -1.1487
  186DOPC   H8S22892   5.282   4.977  11.291  0.8926 -0.7009 -2.2299
  186DOPC   C2922893   5.171   4.864  11.445 -0.5466  0.3601  0.2351
  186DOPC   H9R22894   5.244   4.858  11.527  1.5332 -0.8222 -1.5663
  186DOPC  C21022895   5.040   4.861  11.466 -0.3467 -0.3255 -0.4783
  186DOPC  H10R22896   5.017   4.862  11.574  1.4007  0.5439 -0.0739
  186DOPC  C21122897   4.927   4.853  11.366 -0.6396  0.6085  0.6425
  186DOPC  H11R22898   4.933   4.754  11.317  1.4486  2.6219 -3.7107
  186DOPC  H11S22899   4.925   4.933  11.289 -0.9480 -1.1230 -1.2248
  186DOPC  C21222900   4.798   4.862  11.442  0.6018  0.2734 -0.6630
  186DOPC  H12R22901   4.775   4.967  11.471  0.0864  0.0077 -0.0682
  186DOPC  H12S22902   4.809   4.804  11.537 -0.2754 -0.5099 -1.0203
  186DOPC  C21322903   4.675   4.810  11.367 -0.2796  0.3520  0.6199
  186DOPC  H13R22904   4.701   4.711  11.325  5.6081  3.0921 -3.6558
  186DOPC  H13S22905   4.656   4.876  11.280 -0.5760 -1.2319 -0.5690
  186DOPC  C21422906   4.543   4.807  11.456 -0.7436  0.9253 -0.0896
  186DOPC  H14R22907   4.576   4.778  11.558  0.8856 -2.4637 -1.4156
  186DOPC  H14S22908   4.485   4.719  11.420  0.4713  0.2327 -0.4165
  186DOPC  C21522909   4.463   4.935  11.450 -0.2784 -0.9222 -0.0638
  186DOPC  H15R22910   4.434   4.963  11.346 -1.0726 -0.4833  0.2632
  186DOPC  H15S22911   4.548   5.003  11.472 -0.5045 -0.3204 -0.9623
  186DOPC  C21622912   4.335   4.953  11.536 -0.2423  0.2678 -0.0538
  186DOPC  H16R22913   4.273   4.863  11.516  0.9694 -0.1662 -2.2726
  186DOPC  H16S22914   4.275   5.042  11.509 -3.4387 -1.8838 -0.6212
  186DOPC  C21722915   4.367   4.937  11.682  0.0168  0.0750  0.2887
  186DOPC  H17R22916   4.423   5.026  11.720 -3.3705  2.6781 -0.2907
  186DOPC  H17S22917   4.435   4.851  11.701 -1.3304 -1.7724 -2.5866
  186DOPC  C21822918   4.232   4.943  11.755  0.5677  0.4265 -0.3787
  186DOPC  H18R22919   4.238   4.960  11.864  1.2089  2.5944 -0.7053
  186DOPC  H18S22920   4.167   4.857  11.728  1.1639  1.1195 -4.9350
  186DOPC  H18T22921   4.181   5.033  11.714 -1.2109  1.2301  3.1979
  186DOPC   C3322922   5.027   4.179  10.549  0.3220  0.3743 -0.4488
  186DOPC   H3X22923   4.944   4.206  10.617 -0.4207 -0.3201 -1.0515
  186DOPC   H3Y22924   5.119   4.151  10.604  0.0779  1.2622  0.4266
  186DOPC   C3422925   4.977   4.061  10.466 -0.3078  0.5178 -0.0427
  186DOPC   H4X22926   5.043   4.027  10.383  1.2739  0.3590  1.2416
  186DOPC   H4Y22927   4.881   4.080  10.414  0.3620 -2.3601 -2.6384
  186DOPC   C3522928   4.967   3.933  10.552 -0.2334  0.5835 -0.7683
  186DOPC   H5X22929   5.072   3.907  10.577 -0.4712  1.5116  1.4526
  186DOPC   H5Y22930   4.927   3.859  10.480  0.6319  0.6792 -1.3704
  186DOPC   C3622931   4.881   3.936  10.675  0.2010  0.6093  0.1864
  186DOPC   H6X22932   4.919   3.995  10.761  1.0992  0.8980 -0.3907
  186DOPC   H6Y22933   4.781   3.978  10.648  0.4061 -0.2607 -2.1974
  186DOPC   C3722934   4.835   3.794  10.730 -0.6307 -0.4749  0.3719
  186DOPC   H7X22935   4.792   3.742  10.642 -0.8542  1.6725 -0.8583
  186DOPC   H7Y22936   4.928   3.750  10.771 -0.0538  1.7359  1.6398
  186DOPC   C3822937   4.724   3.790  10.845 -0.7784 -0.3708  0.9060
  186DOPC   H8X22938   4.629   3.830  10.803 -0.1530  1.4083  1.1032
  186DOPC   H8Y22939   4.767   3.857  10.922  2.6680 -0.3709 -0.8295
  186DOPC   C3922940   4.684   3.651  10.882 -0.7867  0.6903 -0.2825
  186DOPC   H9X22941   4.682   3.579  10.799 -0.5528 -2.1187  1.9889
  186DOPC  C31022942   4.651   3.613  11.009 -0.3901  0.9656 -0.3784
  186DOPC  H10X22943   4.627   3.508  11.034 -0.7508  1.2296  0.4372
  186DOPC  C31122944   4.664   3.702  11.131 -0.1895  0.7646  0.0697
  186DOPC  H11X22945   4.568   3.707  11.185 -0.4870 -0.7613 -0.2527
  186DOPC  H11Y22946   4.690   3.804  11.097  0.0524 -0.1267 -2.6101
  186DOPC  C31222947   4.783   3.668  11.235  0.2950  0.2648 -0.3389
  186DOPC  H12X22948   4.782   3.745  11.314 -1.9674 -2.1871  2.2524
  186DOPC  H12Y22949   4.868   3.666  11.164  0.0571  0.6395 -0.6354
  186DOPC  C31322950   4.779   3.532  11.299  0.3791 -0.0159  0.6018
  186DOPC  H13X22951   4.678   3.525  11.344  0.1301 -0.6501 -0.0298
  186DOPC  H13Y22952   4.781   3.455  11.219 -1.4331  0.1072  0.3925
  186DOPC  C31422953   4.890   3.521  11.405 -0.2389 -0.9003 -0.1897
  186DOPC  H14X22954   4.986   3.518  11.350  0.4242  0.5623  0.8049
  186DOPC  H14Y22955   4.887   3.619  11.459 -0.6873  0.8315 -3.1556
  186DOPC  C31522956   4.882   3.400  11.487 -0.3828 -0.4289 -0.1829
  186DOPC  H15X22957   4.963   3.413  11.563  1.3714 -0.1884 -1.9938
  186DOPC  H15Y22958   4.905   3.315  11.419  0.2687  1.1018 -1.9611
  186DOPC  C31622959   4.748   3.370  11.552 -1.0834  0.0272  0.0026
  186DOPC  H16X22960   4.717   3.463  11.603  0.3651  0.4700  0.1258
  186DOPC  H16Y22961   4.681   3.334  11.471  2.3060 -2.4462 -1.9792
  186DOPC  C31722962   4.754   3.252  11.649 -0.3704 -0.1427  0.2564
  186DOPC  H17X22963   4.826   3.279  11.729 -1.0992  0.9939  0.5634
  186DOPC  H17Y22964   4.653   3.237  11.694 -0.5717  0.6092  0.0699
  186DOPC  C31822965   4.809   3.128  11.580  0.2811  0.0017 -0.5986
  186DOPC  H18X22966   4.829   3.049  11.656  1.5997  0.5382 -0.3471
  186DOPC  H18Y22967   4.733   3.096  11.506 -1.8520  0.3374  1.3379
  186DOPC  H18Z22968   4.909   3.136  11.531  0.2325 -0.7833 -0.8336
  187DOPC     N22969   5.013   2.041   9.161  0.5304 -0.4871 -0.6552
  187DOPC   C1222970   4.898   2.122   9.220  1.1142  0.1936 -0.0439
  187DOPC  H12A22971   4.854   2.189   9.148  2.4369  1.8533  0.6348
  187DOPC  H12B22972   4.939   2.189   9.294 -1.5876  2.0429 -0.0806
  187DOPC   C1322973   5.089   1.991   9.277 -0.9432  0.2491  0.0172
  187DOPC  H13A22974   5.160   1.913   9.250  0.3908  0.7756  1.7842
  187DOPC  H13B22975   5.151   2.069   9.317 -0.4072  0.2522 -0.7816
  187DOPC  H13C22976   5.025   1.956   9.356 -0.7072  0.3389  0.2487
  187DOPC   C1422977   5.102   2.135   9.083  0.1293 -0.6237 -0.2806
  187DOPC  H14A22978   5.037   2.186   9.012  0.8795 -1.0865 -1.3283
  187DOPC  H14B22979   5.148   2.207   9.149  1.5145  0.1201 -1.9453
  187DOPC  H14C22980   5.177   2.084   9.024 -0.1779 -0.2291 -1.0305
  187DOPC   C1522981   4.967   1.929   9.079  0.0858  0.0818 -0.0211
  187DOPC  H15A22982   4.911   1.857   9.136  3.4099 -2.0764  0.7998
  187DOPC  H15B22983   5.047   1.875   9.031 -0.2486 -0.4872  0.0564
  187DOPC  H15C22984   4.911   1.964   8.993  0.3767 -0.4501 -0.4356
  187DOPC   C1122985   4.789   2.050   9.291  0.0569  0.4106 -0.4215
  187DOPC  H11A22986   4.709   2.123   9.317  0.2458 -0.0867  1.7943
  187DOPC  H11B22987   4.733   1.973   9.234 -1.5676  2.1790 -1.3400
  187DOPC     P22988   4.761   2.003   9.540  0.1419 -0.4028 -0.1113
  187DOPC   O1322989   4.639   1.919   9.548  0.2321  0.6498 -0.1358
  187DOPC   O1422990   4.734   2.147   9.561  0.3135 -0.1111  0.0569
  187DOPC   O1222991   4.840   1.986   9.408  0.4299 -0.3869  0.3686
  187DOPC   O1122992   4.865   1.964   9.652  0.4200  0.0282  0.5684
  187DOPC    C122993   4.963   1.864   9.641 -0.8968 -0.0300  0.0657
  187DOPC    HA22994   4.992   1.853   9.534 -1.2688  0.8801 -0.1396
  187DOPC    HB22995   4.925   1.768   9.680 -0.7755 -0.1220 -0.0415
  187DOPC    C222996   5.095   1.910   9.709 -0.0062 -0.0187 -0.2767
  187DOPC    HS22997   5.179   1.844   9.681  2.4387  3.1290 -0.8892
  187DOPC   O2122998   5.091   1.910   9.853  0.2168  0.2175 -0.6631
  187DOPC   C2122999   5.081   1.785   9.908 -0.1541  0.3413 -0.2464
  187DOPC   O2223000   5.090   1.682   9.842 -0.1437  0.1851 -0.0926
  187DOPC   C2223001   5.063   1.790  10.055 -0.0712  0.4794 -0.4267
  187DOPC   H2R23002   4.955   1.782  10.081 -0.5697 -0.3527 -2.5054
  187DOPC   H2S23003   5.106   1.889  10.078  1.5792 -0.1339 -0.7317
  187DOPC    C323004   5.130   2.049   9.657 -0.0362 -0.4333  0.5483
  187DOPC    HX23005   5.047   2.117   9.688  1.9337  3.9351 -2.6056
  187DOPC    HY23006   5.125   2.047   9.546 -0.6206 -1.1962  0.5872
  187DOPC   O3123007   5.255   2.107   9.703 -0.4079 -0.4024 -0.0160
  187DOPC   C3123008   5.277   2.217   9.638  0.2378 -0.1402  0.4646
  187DOPC   O3223009   5.207   2.265   9.551  0.1293  0.0697  0.5716
  187DOPC   C3223010   5.414   2.286   9.676 -0.0223  0.2364  0.2049
  187DOPC   H2X23011   5.467   2.214   9.743 -0.6228 -0.0352  0.3982
  187DOPC   H2Y23012   5.478   2.303   9.587  0.1691 -0.9174  0.1024
  187DOPC   C2323013   5.134   1.689  10.153  0.2124 -0.9904  0.0484
  187DOPC   H3R23014   5.243   1.682  10.130  0.3487  1.2384 -0.2932
  187DOPC   H3S23015   5.087   1.590  10.141 -1.2174 -0.5200  1.4629
  187DOPC   C2423016   5.114   1.738  10.294 -0.1511  0.4424 -0.3229
  187DOPC   H4R23017   5.121   1.849  10.295 -1.8335  0.5867  1.5098
  187DOPC   H4S23018   5.197   1.699  10.357 -1.3229 -0.3090  0.7906
  187DOPC   C2523019   4.992   1.690  10.372 -0.4170  0.7919  1.2227
  187DOPC   H5R23020   4.963   1.588  10.339  0.3779  0.8666  0.2503
  187DOPC   H5S23021   4.907   1.756  10.344 -1.2806 -0.6780  0.2322
  187DOPC   C2623022   5.011   1.689  10.524  0.0049  0.0909 -0.6936
  187DOPC   H6R23023   5.060   1.787  10.546 -0.1026  0.2841 -1.2994
  187DOPC   H6S23024   5.082   1.606  10.542  0.7713  1.1649  1.6896
  187DOPC   C2723025   4.880   1.678  10.608  0.3570  0.3038  0.1464
  187DOPC   H7R23026   4.811   1.610  10.553  1.6136  1.7292 -3.5297
  187DOPC   H7S23027   4.836   1.780  10.602  0.2457  0.3755  1.9064
  187DOPC   C2823028   4.907   1.629  10.752  0.4656  0.2049  0.2042
  187DOPC   H8R23029   4.976   1.699  10.803 -0.6596  2.4477 -1.2225
  187DOPC   H8S23030   4.963   1.532  10.750 -1.2088 -0.9071 -3.9934
  187DOPC   C2923031   4.786   1.611  10.838  0.3460  0.9464  0.4122
  187DOPC   H9R23032   4.713   1.692  10.821  1.1649  1.6516  0.1624
  187DOPC  C21023033   4.754   1.529  10.942 -0.1478 -0.1877  0.1911
  187DOPC  H10R23034   4.661   1.562  10.991 -2.0759 -1.1618 -2.5357
  187DOPC  C21123035   4.835   1.418  11.006 -0.2430 -0.0672 -0.5284
  187DOPC  H11R23036   4.918   1.380  10.944  1.1448 -0.5924  1.5372
  187DOPC  H11S23037   4.765   1.339  11.041 -0.9917  1.2043  0.9900
  187DOPC  C21223038   4.908   1.475  11.132  0.6683 -0.2313  0.3509
  187DOPC  H12R23039   4.946   1.578  11.117 -1.7134  0.8200  0.9184
  187DOPC  H12S23040   4.990   1.403  11.153 -1.4419 -3.4406 -1.5237
  187DOPC  C21323041   4.801   1.490  11.242 -0.4165 -0.2556 -0.4353
  187DOPC  H13R23042   4.755   1.390  11.261 -0.4488  0.0442  1.2691
  187DOPC  H13S23043   4.719   1.557  11.208 -0.3725  0.1717  0.2665
  187DOPC  C21423044   4.850   1.534  11.378  0.1989 -0.1795  0.5346
  187DOPC  H14R23045   4.913   1.625  11.364 -0.4256 -0.0462 -1.7916
  187DOPC  H14S23046   4.911   1.451  11.422 -1.4967 -1.1032  1.2252
  187DOPC  C21523047   4.747   1.579  11.484  0.4664 -0.1796 -1.1549
  187DOPC  H15R23048   4.720   1.490  11.546 -2.0529  0.6425 -0.9464
  187DOPC  H15S23049   4.657   1.626  11.438  0.8358  0.3500 -1.3369
  187DOPC  C21623050   4.811   1.675  11.579  0.3068  0.2229 -0.2903
  187DOPC  H16R23051   4.821   1.767  11.517 -0.6581  0.2103 -0.4693
  187DOPC  H16S23052   4.910   1.636  11.611  0.0665 -1.0299 -1.0381
  187DOPC  C21723053   4.722   1.706  11.705  0.3165  0.6944 -0.0687
  187DOPC  H17R23054   4.620   1.740  11.676 -1.1757 -1.9000  1.7444
  187DOPC  H17S23055   4.772   1.782  11.769 -0.8649  0.3142  1.3622
  187DOPC  C21823056   4.693   1.585  11.798  0.0177  0.2997  0.4122
  187DOPC  H18R23057   4.794   1.552  11.829 -0.5874  0.0743  2.2465
  187DOPC  H18S23058   4.646   1.496  11.751 -0.6007  0.0467  1.4637
  187DOPC  H18T23059   4.630   1.615  11.885 -0.9140 -1.0201  0.2151
  187DOPC   C3323060   5.391   2.411   9.759 -0.7778 -0.2181 -0.1283
  187DOPC   H3X23061   5.357   2.496   9.698  1.7197  1.5677  0.7928
  187DOPC   H3Y23062   5.488   2.460   9.782 -0.7880  0.6032 -1.7290
  187DOPC   C3423063   5.323   2.376   9.894  0.2537 -0.9915 -0.3630
  187DOPC   H4X23064   5.360   2.277   9.929  2.1216 -0.5976 -1.1121
  187DOPC   H4Y23065   5.214   2.372   9.873 -0.7849 -1.3276  4.2043
  187DOPC   C3523066   5.341   2.489   9.996  0.0223 -0.2688 -0.1519
  187DOPC   H5X23067   5.303   2.581   9.946  0.5257  0.7415  1.2572
  187DOPC   H5Y23068   5.450   2.505  10.010 -0.0103  0.7267 -0.9412
  187DOPC   C3623069   5.259   2.479  10.128  0.2706  0.4539 -0.5105
  187DOPC   H6X23070   5.153   2.461  10.099 -0.9025  0.6571  3.2180
  187DOPC   H6Y23071   5.289   2.383  10.175  0.1057  0.5612 -0.1853
  187DOPC   C3723072   5.272   2.598  10.215 -0.9343  0.4643  0.5204
  187DOPC   H7X23073   5.376   2.618  10.248 -1.2471 -0.3867  2.0960
  187DOPC   H7Y23074   5.257   2.691  10.156  2.0929  0.7678  0.0627
  187DOPC   C3823075   5.173   2.590  10.338  0.1550 -0.1476  0.6146
  187DOPC   H8X23076   5.068   2.588  10.302  1.1231  0.9548 -2.5535
  187DOPC   H8Y23077   5.185   2.688  10.390  2.2868 -1.3109  2.5157
  187DOPC   C3923078   5.200   2.475  10.437  0.3175  0.2351  0.1984
  187DOPC   H9X23079   5.184   2.373  10.399 -0.1268  0.2722  0.2808
  187DOPC  C31023080   5.248   2.484  10.562 -0.3901 -0.2849  0.0113
  187DOPC  H10X23081   5.260   2.391  10.620 -1.8278 -1.8575 -2.0774
  187DOPC  C31123082   5.302   2.617  10.623 -0.1008  0.2455 -0.4760
  187DOPC  H11X23083   5.272   2.707  10.566  1.1896  0.0495 -1.5164
  187DOPC  H11Y23084   5.412   2.631  10.612 -0.1774  2.9893  1.2991
  187DOPC  C31223085   5.259   2.630  10.768  0.0238  0.2294 -0.5325
  187DOPC  H12X23086   5.149   2.640  10.773 -0.2800 -1.3030 -2.6982
  187DOPC  H12Y23087   5.310   2.718  10.812  0.4765  0.2839 -1.1505
  187DOPC  C31323088   5.293   2.508  10.857 -0.1551  0.3537  0.6816
  187DOPC  H13X23089   5.236   2.419  10.823 -0.9940  0.8866  0.6467
  187DOPC  H13Y23090   5.395   2.475  10.827 -0.9523  0.1312 -2.0701
  187DOPC  C31423091   5.256   2.537  11.000  0.0655 -0.1465 -0.5874
  187DOPC  H14X23092   5.299   2.635  11.030  1.1498 -0.7552 -0.0487
  187DOPC  H14Y23093   5.147   2.546  11.016  0.3047 -0.4008  1.5787
  187DOPC  C31523094   5.301   2.431  11.101 -0.5610  0.0770  0.3100
  187DOPC  H15X23095   5.267   2.330  11.069  0.9633  0.0001 -1.1888
  187DOPC  H15Y23096   5.254   2.468  11.195 -0.4403  1.4683 -0.1473
  187DOPC  C31623097   5.450   2.428  11.134 -0.8710  0.1290 -0.0908
  187DOPC  H16X23098   5.523   2.421  11.051  0.9890  0.4768  1.4313
  187DOPC  H16Y23099   5.469   2.529  11.176 -2.5357  1.2003 -1.7335
  187DOPC  C31723100   5.497   2.307  11.225  0.1039 -0.1340  0.2920
  187DOPC  H17X23101   5.421   2.283  11.303 -0.2688 -3.2613 -0.8730
  187DOPC  H17Y23102   5.506   2.216  11.161 -0.1117 -0.9183  1.3453
  187DOPC  C31823103   5.639   2.324  11.292  0.2439  1.3756 -0.1578
  187DOPC  H18X23104   5.659   2.221  11.329 -0.2218  1.7788  1.2943
  187DOPC  H18Y23105   5.715   2.357  11.219  1.5889 -2.1699 -0.5370
  187DOPC  H18Z23106   5.628   2.392  11.379 -1.3195  1.3438 -0.3028
  188DOPC     N23107   0.344   3.648   9.218  0.7809 -0.0483 -0.0630
  188DOPC   C1223108   0.392   3.691   9.354 -0.2312  0.6447 -0.9150
  188DOPC  H12A23109   0.357   3.793   9.365  0.2301  0.6041  1.3904
  188DOPC  H12B23110   0.499   3.702   9.347  0.2791 -2.3920  0.4284
  188DOPC   C1323111   0.378   3.742   9.105  0.3135 -0.1827  0.2785
  188DOPC  H13A23112   0.347   3.710   9.006 -0.3088 -1.6339  0.9196
  188DOPC  H13B23113   0.313   3.828   9.114 -1.7704 -1.6769  0.3480
  188DOPC  H13C23114   0.478   3.782   9.114 -0.8596  2.5793  2.5352
  188DOPC   C1423115   0.191   3.613   9.222  0.1518  0.3752  0.2588
  188DOPC  H14A23116   0.132   3.700   9.247 -1.2908 -1.0191  2.0522
  188DOPC  H14B23117   0.149   3.577   9.130 -2.6200 -1.1238  1.9894
  188DOPC  H14C23118   0.175   3.538   9.298  0.0562  0.8846  0.7533
  188DOPC   C1523119   0.413   3.512   9.187  0.8309 -0.8339  0.2474
  188DOPC  H15A23120   0.398   3.491   9.082  3.8179 -0.0276 -0.4323
  188DOPC  H15B23121   0.385   3.437   9.260  1.6069 -0.6308  0.7642
  188DOPC  H15C23122   0.518   3.528   9.206  0.6988  1.3269 -0.5181
  188DOPC   C1123123   0.347   3.606   9.474  0.1740 -0.5614 -0.1089
  188DOPC  H11A23124   0.377   3.651   9.571  0.2027 -1.7198  0.4426
  188DOPC  H11B23125   0.236   3.601   9.477  0.0497 -0.8186 -2.9126
  188DOPC     P23126   0.315   3.350   9.522 -0.0079 -0.2681 -0.3044
  188DOPC   O1323127   0.397   3.249   9.596  0.0084  0.0448 -0.0531
  188DOPC   O1423128   0.226   3.300   9.411 -0.5118  0.3506 -0.3296
  188DOPC   O1223129   0.400   3.476   9.475  0.8774 -0.3518  0.3856
  188DOPC   O1123130   0.223   3.414   9.630 -0.0726  0.3668  0.5490
  188DOPC    C123131   0.087   3.380   9.655 -0.4119  0.3512 -0.0989
  188DOPC    HA23132   0.073   3.271   9.642  0.9078  0.2807 -1.1630
  188DOPC    HB23133   0.021   3.435   9.584  0.3233  1.2870 -0.0815
  188DOPC    C223134   0.035   3.414   9.791  0.3629  0.2487 -0.6696
  188DOPC    HS23135   0.039   3.524   9.801 -1.5529  0.2223  1.3619
  188DOPC   O2123136   0.113   3.338   9.895  0.0385 -0.9070 -0.1436
  188DOPC   C2123137   0.114   3.396  10.016  0.3133  0.2244 -0.2341
  188DOPC   O2223138   0.060   3.501  10.041  0.3005  0.1632  0.2025
  188DOPC   C2223139   0.170   3.288  10.117  0.2286 -0.9185  0.0627
  188DOPC   H2R23140   0.278   3.312  10.116  0.2608 -0.9938 -2.0800
  188DOPC   H2S23141   0.150   3.186  10.080 -2.7544  0.1542 -1.6315
  188DOPC    C323142  -0.122   3.365   9.805  0.0270  0.4150 -0.3949
  188DOPC    HX23143  -0.110   3.259   9.836  2.1667  1.0068  1.0180
  188DOPC    HY23144  -0.167   3.368   9.704 -1.6339  0.8470  0.3377
  188DOPC   O3123145  -0.194   3.434   9.907 -0.3687 -0.6056 -0.1148
  188DOPC   C3123146  -0.232   3.556   9.881 -0.0987  0.3454 -0.8454
  188DOPC   O3223147  -0.211   3.610   9.776  0.4212 -0.0942  0.5166
  188DOPC   C3223148  -0.299   3.616  10.002  0.1432 -0.3825 -0.0997
  188DOPC   H2X23149  -0.403   3.576  10.008 -0.2060  0.3969 -0.7299
  188DOPC   H2Y23150  -0.248   3.584  10.095  0.2466  0.6676  0.2129
  188DOPC   C2323151   0.116   3.309  10.259 -1.1317  0.5049  0.0908
  188DOPC   H3R23152   0.006   3.291  10.261 -1.3721  1.2852 -2.2506
  188DOPC   H3S23153   0.125   3.416  10.288  3.1349  0.5797 -0.9456
  188DOPC   C2423154   0.197   3.235  10.365 -0.4832 -0.4622  0.0635
  188DOPC   H4R23155   0.172   3.263  10.470  1.3414 -1.7428  0.9140
  188DOPC   H4S23156   0.305   3.261  10.356 -0.4466  0.3284  2.1013
  188DOPC   C2523157   0.196   3.080  10.347  0.3260 -0.0044  0.1783
  188DOPC   H5R23158   0.248   3.035  10.434 -3.4073  0.3927  2.8753
  188DOPC   H5S23159   0.234   3.049  10.248 -0.1254 -0.0469  0.0145
  188DOPC   C2623160   0.056   3.013  10.348 -0.0453 -0.6953  0.3700
  188DOPC   H6R23161   0.073   2.907  10.317  0.1749 -0.1156 -1.6410
  188DOPC   H6S23162   0.000   3.053  10.261  2.0452 -1.2953 -1.3248
  188DOPC   C2723163  -0.023   3.011  10.480  0.3891 -0.4945 -0.6887
  188DOPC   H7R23164  -0.061   3.113  10.502 -1.1175 -0.8737 -1.4407
  188DOPC   H7S23165   0.044   2.982  10.563 -1.5735 -1.3586  0.6477
  188DOPC   C2823166  -0.142   2.916  10.466  0.0382  0.7027  0.0053
  188DOPC   H8R23167  -0.112   2.811  10.446  0.3580  0.6210  0.8633
  188DOPC   H8S23168  -0.196   2.960  10.380 -1.0401 -0.0158  0.2962
  188DOPC   C2923169  -0.231   2.911  10.586  1.0299  0.0841 -0.1244
  188DOPC   H9R23170  -0.316   2.980  10.580 -0.8058 -2.0014  0.6769
  188DOPC  C21023171  -0.237   2.823  10.680  0.0698  0.3725  0.9204
  188DOPC  H10R23172  -0.303   2.822  10.769  0.5684 -1.9177  1.3270
  188DOPC  C21123173  -0.139   2.706  10.682  0.6739 -0.5055  0.3505
  188DOPC  H11R23174  -0.038   2.749  10.662  0.3309  0.7432  1.2136
  188DOPC  H11S23175  -0.164   2.629  10.606  0.0195 -0.7000  0.7551
  188DOPC  C21223176  -0.137   2.640  10.825  0.4326 -1.0966  0.4870
  188DOPC  H12R23177  -0.048   2.572  10.822  0.8652 -0.5366 -1.8240
  188DOPC  H12S23178  -0.230   2.586  10.854 -1.3049  1.2393 -0.4634
  188DOPC  C21323179  -0.100   2.739  10.936  0.0382 -0.0318  0.1207
  188DOPC  H13R23180  -0.175   2.817  10.961 -0.4439 -1.3656  3.4140
  188DOPC  H13S23181  -0.006   2.784  10.900 -1.4541  1.8568 -1.6221
  188DOPC  C21423182  -0.062   2.661  11.063  0.4552  0.8112  0.3857
  188DOPC  H14R23183   0.024   2.599  11.031  0.4041  1.8110 -1.8565
  188DOPC  H14S23184  -0.144   2.592  11.093  2.2002 -1.0641  1.0411
  188DOPC  C21523185  -0.015   2.735  11.184 -0.3320  0.2788  1.1722
  188DOPC  H15R23186  -0.106   2.793  11.211 -2.1167 -0.3068 -2.8916
  188DOPC  H15S23187   0.058   2.817  11.168  0.0016  0.1081  1.7652
  188DOPC  C21623188   0.046   2.638  11.285  0.8008  0.1652 -0.5647
  188DOPC  H16R23189  -0.003   2.540  11.269  2.8707 -1.0399  0.2037
  188DOPC  H16S23190   0.026   2.683  11.385 -2.2949  2.0705 -1.8687
  188DOPC  C21723191   0.196   2.613  11.268 -0.8393 -0.5141 -0.9829
  188DOPC  H17R23192   0.256   2.706  11.262  1.5981 -1.9365 -0.0010
  188DOPC  H17S23193   0.217   2.560  11.173  1.4798 -0.6199 -0.4801
  188DOPC  C21823194   0.264   2.541  11.385  0.8292 -0.0356 -0.0586
  188DOPC  H18R23195   0.245   2.600  11.477  1.6412 -2.3137  1.6767
  188DOPC  H18S23196   0.374   2.533  11.371  0.8221 -1.2434  0.4292
  188DOPC  H18T23197   0.227   2.437  11.402  2.1135 -0.2315  1.8511
  188DOPC   C3323198  -0.299   3.770  10.003  0.2492  0.3347 -0.3527
  188DOPC   H3X23199  -0.334   3.816   9.908 -0.2890  1.3166  0.3151
  188DOPC   H3Y23200  -0.197   3.812  10.012 -0.4444  1.6988  1.5820
  188DOPC   C3423201  -0.382   3.833  10.118  0.2937  0.6149 -0.4062
  188DOPC   H4X23202  -0.484   3.788  10.117 -0.3191  1.8913 -2.8109
  188DOPC   H4Y23203  -0.384   3.941  10.094  4.2635  0.3800 -2.6894
  188DOPC   C3523204  -0.317   3.807  10.256  0.2439 -0.0401  0.0413
  188DOPC   H5X23205  -0.207   3.816  10.245  0.7309 -2.1363  2.3359
  188DOPC   H5Y23206  -0.319   3.700  10.288 -0.5881 -0.2550 -0.6806
  188DOPC   C3623207  -0.381   3.896  10.367 -0.3862 -0.5288  0.0922
  188DOPC   H6X23208  -0.318   3.918  10.456  0.1736 -1.1996 -0.1254
  188DOPC   H6Y23209  -0.414   3.992  10.320  0.1937 -1.2722 -1.9178
  188DOPC   C3723210  -0.502   3.830  10.429  0.7548  0.0284 -0.3332
  188DOPC   H7X23211  -0.574   3.797  10.351 -0.5701 -0.3476  0.9999
  188DOPC   H7Y23212  -0.476   3.740  10.489 -0.4544 -0.2438 -0.2005
  188DOPC   C3823213  -0.571   3.933  10.525  0.6125 -0.2147 -0.2957
  188DOPC   H8X23214  -0.591   4.031  10.476  0.2494 -0.2619 -0.2434
  188DOPC   H8Y23215  -0.495   3.941  10.606 -0.4449 -1.2191  0.8260
  188DOPC   C3923216  -0.704   3.875  10.570  0.5582  0.0179 -0.5606
  188DOPC   H9X23217  -0.787   3.914  10.510 -0.9968  0.1721  1.5869
  188DOPC  C31023218  -0.721   3.770  10.658 -0.0874 -0.6958 -0.1711
  188DOPC  H10X23219  -0.823   3.732  10.671  0.2744 -1.0868  2.0536
  188DOPC  C31123220  -0.623   3.699  10.739 -0.0591 -0.7169  0.1146
  188DOPC  H11X23221  -0.523   3.744  10.752 -1.2809  1.9331  1.0042
  188DOPC  H11Y23222  -0.606   3.601  10.689 -1.5582 -1.6286  1.3255
  188DOPC  C31223223  -0.662   3.676  10.883 -0.2868 -0.2571 -0.3830
  188DOPC  H12X23224  -0.764   3.635  10.899  0.0168 -0.3798  1.5742
  188DOPC  H12Y23225  -0.668   3.773  10.936 -0.3039 -0.8923  0.8136
  188DOPC  C31323226  -0.557   3.589  10.959  0.5125  0.3808 -0.7327
  188DOPC  H13X23227  -0.546   3.496  10.899 -2.5924  1.1376 -2.7470
  188DOPC  H13Y23228  -0.460   3.641  10.943  1.1943 -0.5919  0.0899
  188DOPC  C31423229  -0.582   3.545  11.105 -0.2596 -0.6049 -0.2386
  188DOPC  H14X23230  -0.661   3.468  11.105 -1.0471  0.1621  0.6869
  188DOPC  H14Y23231  -0.490   3.509  11.156 -0.5850 -0.5349  0.4075
  188DOPC  C31523232  -0.651   3.657  11.197  0.3105  0.1449 -0.5649
  188DOPC  H15X23233  -0.677   3.614  11.297  0.1491  1.6077  0.0405
  188DOPC  H15Y23234  -0.748   3.675  11.147 -0.8370 -0.5371  1.2900
  188DOPC  C31623235  -0.559   3.786  11.218  0.6535  0.2473 -0.3555
  188DOPC  H16X23236  -0.465   3.746  11.261  0.6268  0.6921  0.1253
  188DOPC  H16Y23237  -0.535   3.848  11.129 -1.9212  0.9178 -0.6677
  188DOPC  C31723238  -0.619   3.875  11.330  0.2408 -0.6404  0.2564
  188DOPC  H17X23239  -0.700   3.936  11.284  0.8851  0.1423  0.1445
  188DOPC  H17Y23240  -0.674   3.803  11.394  2.8821 -1.1601  2.0630
  188DOPC  C31823241  -0.509   3.960  11.403 -0.0176 -0.5135  0.1916
  188DOPC  H18X23242  -0.464   4.016  11.318  0.0240 -0.0352  0.5190
  188DOPC  H18Y23243  -0.561   4.038  11.463  0.0063 -1.0722  0.9527
  188DOPC  H18Z23244  -0.436   3.903  11.464 -0.2962  0.6876  1.7399
  189DOPC     N23245   1.907   0.598   9.589  0.0635 -0.8688 -0.0802
  189DOPC   C1223246   1.809   0.558   9.691 -0.0668  0.8394 -0.3658
  189DOPC  H12A23247   1.838   0.461   9.729  0.4214  0.8499 -0.6989
  189DOPC  H12B23248   1.709   0.550   9.651 -0.2899 -0.1846  0.3630
  189DOPC   C1323249   1.907   0.501   9.473  0.7664  0.2411  0.1157
  189DOPC  H13A23250   1.982   0.517   9.397  1.5290 -2.3205  0.2404
  189DOPC  H13B23251   1.923   0.398   9.501 -1.3188 -0.4509 -0.9532
  189DOPC  H13C23252   1.806   0.500   9.434  0.5191 -2.5162  0.5862
  189DOPC   C1423253   2.048   0.606   9.643  0.4119 -0.7605  0.1648
  189DOPC  H14A23254   2.077   0.512   9.686 -1.7374 -1.6884 -0.3394
  189DOPC  H14B23255   2.119   0.640   9.569  0.7819 -0.3237  0.7075
  189DOPC  H14C23256   2.052   0.679   9.723 -4.2169 -1.1796  1.0160
  189DOPC   C1523257   1.864   0.731   9.543  0.1770 -0.7434 -0.7902
  189DOPC  H15A23258   1.780   0.723   9.475  0.5776  1.7512 -1.7013
  189DOPC  H15B23259   1.949   0.774   9.492  1.4792 -0.8474  1.2235
  189DOPC  H15C23260   1.841   0.796   9.626 -0.5671 -0.4831 -1.1797
  189DOPC   C1123261   1.802   0.641   9.824 -0.0841 -0.4404  0.8862
  189DOPC  H11A23262   1.747   0.588   9.905 -0.9899 -0.2396  0.4258
  189DOPC  H11B23263   1.903   0.653   9.866  0.3897  0.6902 -0.5036
  189DOPC     P23264   1.590   0.779   9.773 -0.3648  0.1157  0.3878
  189DOPC   O1323265   1.562   0.704   9.651  0.0152 -0.2366  0.6193
  189DOPC   O1423266   1.554   0.923   9.784 -0.1714  0.1780  0.9180
  189DOPC   O1223267   1.743   0.769   9.809 -0.7943  0.3502 -0.4917
  189DOPC   O1123268   1.534   0.695   9.893 -0.2485 -0.8616  0.4422
  189DOPC    C123269   1.422   0.741   9.963 -0.5270  0.0832  0.6354
  189DOPC    HA23270   1.386   0.648  10.011  3.9567 -1.9795  0.5193
  189DOPC    HB23271   1.342   0.770   9.892 -0.0477  0.5139  0.2642
  189DOPC    C223272   1.454   0.850  10.071  0.5858 -0.4693 -1.0657
  189DOPC    HS23273   1.465   0.947  10.019  2.7715 -0.5041 -0.7538
  189DOPC   O2123274   1.570   0.802  10.134 -0.1099 -0.0340 -0.2313
  189DOPC   C2123275   1.639   0.893  10.198  0.3247 -0.4701 -0.1336
  189DOPC   O2223276   1.598   1.004  10.220  0.3325  0.1073  0.3868
  189DOPC   C2223277   1.764   0.830  10.242  0.5940 -0.9686 -0.1612
  189DOPC   H2R23278   1.817   0.812  10.146 -1.2394 -2.3992 -0.9558
  189DOPC   H2S23279   1.751   0.731  10.289 -1.1285 -1.9217 -2.4453
  189DOPC    C323280   1.337   0.877  10.185  0.2160  0.5202 -0.3882
  189DOPC    HX23281   1.247   0.908  10.127  1.1206  0.8403 -1.6637
  189DOPC    HY23282   1.367   0.969  10.239  1.4480 -0.8806  1.4591
  189DOPC   O3123283   1.322   0.774  10.293  0.1119 -0.2208 -0.1618
  189DOPC   C3123284   1.242   0.676  10.253  0.3480 -1.0285 -0.4002
  189DOPC   O3223285   1.169   0.679  10.153 -0.1315  0.0216  0.0706
  189DOPC   C3223286   1.259   0.561  10.353 -0.0497  0.2042 -0.2470
  189DOPC   H2X23287   1.208   0.470  10.312  0.6230 -0.5979  0.6502
  189DOPC   H2Y23288   1.369   0.559  10.363  0.2889  3.1761 -2.1831
  189DOPC   C2323289   1.836   0.928  10.335 -0.0702 -0.2500 -0.4358
  189DOPC   H3R23290   1.774   0.951  10.425 -1.9679  1.8681 -2.1598
  189DOPC   H3S23291   1.848   1.025  10.284 -0.7871 -0.3328 -0.7873
  189DOPC   C2423292   1.969   0.863  10.378  0.3382 -0.2759  0.2767
  189DOPC   H4R23293   2.020   0.824  10.287  0.9736 -0.1753  0.5831
  189DOPC   H4S23294   1.939   0.773  10.437 -1.8405  0.3107  0.1335
  189DOPC   C2523295   2.057   0.972  10.438  0.0630 -0.3216 -0.4740
  189DOPC   H5R23296   2.048   1.071  10.388  0.9782  0.8348  1.5276
  189DOPC   H5S23297   2.164   0.942  10.433 -0.1294 -0.9331 -1.0927
  189DOPC   C2623298   2.028   0.997  10.592 -0.3489  1.2340 -0.1903
  189DOPC   H6R23299   2.004   0.896  10.631 -2.6386  0.7852 -2.4513
  189DOPC   H6S23300   1.935   1.052  10.617 -0.2976  0.9700  0.5882
  189DOPC   C2723301   2.139   1.061  10.678 -0.3665  0.4945  0.3378
  189DOPC   H7R23302   2.127   1.171  10.684  1.4108  0.6878  0.8773
  189DOPC   H7S23303   2.236   1.054  10.625  0.2084 -0.5003  1.4608
  189DOPC   C2823304   2.150   1.008  10.816  0.0301  0.1150 -0.2806
  189DOPC   H8R23305   2.167   0.899  10.804 -1.1107  0.1657 -2.8879
  189DOPC   H8S23306   2.049   1.018  10.862 -0.1232 -1.1117 -0.3171
  189DOPC   C2923307   2.247   1.087  10.901 -0.1550 -0.3000 -0.5465
  189DOPC   H9R23308   2.321   1.148  10.847 -1.2930  0.9470 -0.7676
  189DOPC  C21023309   2.266   1.085  11.039 -0.1701  0.3461  0.0265
  189DOPC  H10R23310   2.335   1.162  11.076 -0.4241 -0.0038  1.2812
  189DOPC  C21123311   2.195   1.005  11.143  0.3097 -0.5985  0.2501
  189DOPC  H11R23312   2.097   0.977  11.100  1.3375 -1.3137 -1.7081
  189DOPC  H11S23313   2.174   1.065  11.234 -1.6318  1.4477 -1.4348
  189DOPC  C21223314   2.260   0.863  11.173 -0.7001 -0.2441  0.7781
  189DOPC  H12R23315   2.295   0.819  11.077  1.7353  1.1230  0.9717
  189DOPC  H12S23316   2.185   0.799  11.223  0.1415 -1.6302  0.3189
  189DOPC  C21323317   2.369   0.866  11.279 -0.3055 -0.2319 -0.4032
  189DOPC  H13R23318   2.355   0.929  11.369  3.3603 -0.4867  0.5410
  189DOPC  H13S23319   2.462   0.911  11.238  1.1712 -2.8743 -0.1913
  189DOPC  C21423320   2.420   0.721  11.312  0.4554 -0.6794  0.3789
  189DOPC  H14R23321   2.515   0.730  11.370  1.5752 -2.4135 -1.0581
  189DOPC  H14S23322   2.437   0.680  11.210  0.2835 -1.5711  0.7066
  189DOPC  C21523323   2.320   0.633  11.388 -0.1300  0.4275  0.1648
  189DOPC  H15R23324   2.356   0.530  11.406 -0.0842  0.2058 -1.1262
  189DOPC  H15S23325   2.237   0.610  11.319  0.0037 -1.0588  0.4624
  189DOPC  C21623326   2.292   0.687  11.527  0.5988  0.1967  0.1496
  189DOPC  H16R23327   2.262   0.794  11.521 -1.0580 -0.2725 -0.7283
  189DOPC  H16S23328   2.376   0.664  11.596 -0.6070  1.4210  2.1166
  189DOPC  C21723329   2.168   0.610  11.583 -0.4283 -0.7036 -0.2427
  189DOPC  H17R23330   2.193   0.504  11.606  0.6341 -0.4583 -0.2486
  189DOPC  H17S23331   2.095   0.614  11.499 -1.5240  1.0286  0.7226
  189DOPC  C21823332   2.095   0.665  11.705  0.4503  0.5852  0.1521
  189DOPC  H18R23333   2.079   0.775  11.698 -0.5854  0.3456 -3.8385
  189DOPC  H18S23334   2.144   0.637  11.800 -0.7300  0.1739  0.6561
  189DOPC  H18T23335   1.992   0.622  11.706  1.1772 -1.2693 -1.0214
  189DOPC   C3323336   1.184   0.594  10.487  0.1163  0.1957  0.4686
  189DOPC   H3X23337   1.076   0.606  10.466 -0.1457 -2.0271  0.2229
  189DOPC   H3Y23338   1.221   0.692  10.524  0.2048  1.0822 -1.8177
  189DOPC   C3423339   1.199   0.475  10.577  0.9024 -0.2721 -0.1725
  189DOPC   H4X23340   1.302   0.449  10.608  0.6308 -1.3836 -0.1346
  189DOPC   H4Y23341   1.156   0.386  10.525  1.8571 -1.0297  0.2959
  189DOPC   C3523342   1.113   0.497  10.704  0.6744 -0.1177  0.4658
  189DOPC   H5X23343   1.005   0.479  10.686  0.5212 -0.2260  1.4025
  189DOPC   H5Y23344   1.118   0.601  10.742 -1.4495  0.0396  0.4296
  189DOPC   C3623345   1.142   0.395  10.815  0.0153 -0.3085  0.0806
  189DOPC   H6X23346   1.101   0.295  10.788 -0.6285  0.1580 -0.7346
  189DOPC   H6Y23347   1.252   0.394  10.830 -0.2120  1.8942  2.7325
  189DOPC   C3723348   1.103   0.447  10.949  0.4444 -0.1520 -0.9537
  189DOPC   H7X23349   1.160   0.541  10.966 -1.6723  0.9002  0.8567
  189DOPC   H7Y23350   0.996   0.473  10.946  0.2266  0.4236  3.9592
  189DOPC   C3823351   1.132   0.348  11.066 -0.6466 -0.2927 -0.6003
  189DOPC   H8X23352   1.084   0.251  11.040  0.8136 -0.6799 -2.0140
  189DOPC   H8Y23353   1.085   0.391  11.157 -0.6206 -1.3896 -0.0550
  189DOPC   C3923354   1.282   0.321  11.075  0.4867  0.3824 -0.0278
  189DOPC   H9X23355   1.324   0.272  10.986  1.3326  1.1708 -0.0719
  189DOPC  C31023356   1.369   0.354  11.170 -0.2839  0.4388  0.3629
  189DOPC  H10X23357   1.476   0.336  11.153 -0.8290 -1.2200 -1.7551
  189DOPC  C31123358   1.344   0.428  11.297 -0.2762 -0.1449  0.0750
  189DOPC  H11X23359   1.239   0.460  11.313  0.7413  2.3172  2.8922
  189DOPC  H11Y23360   1.401   0.523  11.299 -0.5733  0.1140 -1.8890
  189DOPC  C31223361   1.389   0.349  11.422 -0.2097 -0.4081 -0.5963
  189DOPC  H12X23362   1.393   0.415  11.511  1.8012 -1.9207  0.5402
  189DOPC  H12Y23363   1.495   0.319  11.403  0.5135  1.7775 -0.3407
  189DOPC  C31323364   1.315   0.222  11.456  0.2914 -0.4515  0.6661
  189DOPC  H13X23365   1.209   0.247  11.477  0.1017  1.3411 -2.0334
  189DOPC  H13Y23366   1.301   0.160  11.365 -1.0098  0.4079  0.2451
  189DOPC  C31423367   1.376   0.143  11.574 -0.2780 -1.1611 -0.1801
  189DOPC  H14X23368   1.311   0.053  11.588 -0.4863 -1.2532 -1.5598
  189DOPC  H14Y23369   1.482   0.110  11.568  0.0724  0.0087 -0.7416
  189DOPC  C31523370   1.387   0.230  11.704 -0.0259  0.5726  0.6394
  189DOPC  H15X23371   1.282   0.267  11.707 -0.0308  0.6411 -0.2525
  189DOPC  H15Y23372   1.454   0.317  11.686  2.1039 -1.0315  0.4162
  189DOPC  C31623373   1.441   0.157  11.830 -0.3400  0.0388  0.1856
  189DOPC  H16X23374   1.374   0.073  11.856 -0.4343 -0.2894 -1.0591
  189DOPC  H16Y23375   1.547   0.127  11.815  0.1006  1.8080 -0.5692
  189DOPC  C31723376   1.449   0.261  11.948 -0.2276 -0.2317  0.3778
  189DOPC  H17X23377   1.497   0.217  12.038  0.7154 -2.5605 -1.1688
  189DOPC  H17Y23378   1.496   0.359  11.925 -1.6980  0.1001 -1.3869
  189DOPC  C31823379   1.313   0.306  11.996  0.2712 -0.0873  0.2486
  189DOPC  H18X23380   1.321   0.395  12.063  0.2489 -0.1676  0.3582
  189DOPC  H18Y23381   1.250   0.333  11.909 -0.9278  0.8870  1.3712
  189DOPC  H18Z23382   1.257   0.227  12.050 -0.4738 -0.0435 -0.4421
  190DOPC     N23383   1.990   2.658   9.733  0.6531  0.1093 -0.3974
  190DOPC   C1223384   1.877   2.573   9.795 -0.1305 -0.1977  0.2102
  190DOPC  H12A23385   1.790   2.585   9.733 -1.3173  2.1375  2.1562
  190DOPC  H12B23386   1.844   2.613   9.890  0.4753 -2.0441  1.2425
  190DOPC   C1323387   2.126   2.629   9.795  0.0287  0.2841  0.0436
  190DOPC  H13A23388   2.125   2.663   9.898 -1.2428 -0.4110  0.2752
  190DOPC  H13B23389   2.146   2.523   9.788  0.0284  0.2699  0.2440
  190DOPC  H13C23390   2.201   2.686   9.742 -1.1406  0.4186 -1.5314
  190DOPC   C1423391   1.969   2.802   9.715  0.9161  0.1035  0.2510
  190DOPC  H14A23392   1.948   2.846   9.811 -0.2263  1.4590 -0.5963
  190DOPC  H14B23393   2.062   2.839   9.675  1.4741 -2.0643 -0.5979
  190DOPC  H14C23394   1.895   2.816   9.639  0.5335  1.1660  0.8085
  190DOPC   C1523395   1.995   2.607   9.587 -0.0211  0.3781 -0.3447
  190DOPC  H15A23396   2.076   2.648   9.528  0.4363  1.3466  0.9155
  190DOPC  H15B23397   1.908   2.640   9.532 -0.1067 -0.2599 -0.5989
  190DOPC  H15C23398   1.995   2.499   9.579 -1.7154  0.3475 -0.2985
  190DOPC   C1123399   1.908   2.423   9.812 -0.0503 -0.3055  0.1970
  190DOPC  H11A23400   1.977   2.419   9.899 -0.3016  0.2865  0.4273
  190DOPC  H11B23401   1.818   2.371   9.849  0.4070 -1.4315 -0.2244
  190DOPC     P23402   1.857   2.249   9.624  0.1664  0.9781  0.1505
  190DOPC   O1323403   1.932   2.203   9.503 -0.3096 -0.7442  0.1027
  190DOPC   O1423404   1.728   2.317   9.585 -0.1174 -0.1276 -0.6770
  190DOPC   O1223405   1.950   2.359   9.688 -0.2614 -0.3675 -0.7089
  190DOPC   O1123406   1.855   2.129   9.722 -0.0909  0.0272 -0.1326
  190DOPC    C123407   1.723   2.068   9.741  0.3690  0.4525 -0.2692
  190DOPC    HA23408   1.739   1.959   9.755  0.5322  0.4026 -0.8276
  190DOPC    HB23409   1.644   2.098   9.669  1.2061 -0.1556 -1.4839
  190DOPC    C223410   1.661   2.122   9.877 -0.9094 -0.5942 -0.1660
  190DOPC    HS23411   1.644   2.230   9.861  0.1100  0.0697  2.6731
  190DOPC   O2123412   1.761   2.092   9.983  0.4126  0.5947 -0.3090
  190DOPC   C2123413   1.781   2.184  10.071  0.3239 -0.2922  0.4090
  190DOPC   O2223414   1.716   2.290  10.074 -1.0490 -0.8207  0.2471
  190DOPC   C2223415   1.903   2.166  10.158  0.4177 -0.2721 -0.2269
  190DOPC   H2R23416   1.992   2.202  10.103  0.6814  2.1844  1.6505
  190DOPC   H2S23417   1.908   2.055  10.169 -1.6266 -0.2371  1.9285
  190DOPC    C323418   1.526   2.062   9.915  0.0515 -0.1304 -0.5729
  190DOPC    HX23419   1.540   1.953   9.900 -0.4807 -0.3960  0.6802
  190DOPC    HY23420   1.451   2.085   9.836  0.6355 -3.6900 -2.3398
  190DOPC   O3123421   1.473   2.095  10.042 -0.1379  0.3995  0.0765
  190DOPC   C3123422   1.414   2.219  10.040 -0.0072 -0.2651  0.2190
  190DOPC   O3223423   1.387   2.283   9.941 -0.3822 -0.4148  0.0310
  190DOPC   C3223424   1.382   2.268  10.172 -0.0536  0.5992  0.0788
  190DOPC   H2X23425   1.347   2.176  10.222 -1.5817  0.8954 -0.4039
  190DOPC   H2Y23426   1.468   2.306  10.232 -0.7166 -0.8191  2.0235
  190DOPC   C2323427   1.887   2.238  10.296 -0.0530 -0.3759 -0.6353
  190DOPC   H3R23428   1.875   2.347  10.278 -0.2129 -0.1674  0.6442
  190DOPC   H3S23429   1.980   2.224  10.354 -0.0133 -0.2551 -0.6708
  190DOPC   C2423430   1.759   2.192  10.374  0.1189 -0.6978  0.3945
  190DOPC   H4R23431   1.748   2.082  10.370  0.8375 -0.7677  0.2777
  190DOPC   H4S23432   1.673   2.237  10.320  0.2451  1.2302  1.6770
  190DOPC   C2523433   1.753   2.239  10.516  0.0890 -0.1025  0.4136
  190DOPC   H5R23434   1.761   2.349  10.523  1.5874 -0.1579 -0.0055
  190DOPC   H5S23435   1.846   2.209  10.568  1.3976 -1.6090 -2.5062
  190DOPC   C2623436   1.635   2.191  10.601  0.2641  0.0945  0.2984
  190DOPC   H6R23437   1.603   2.087  10.582 -1.6239  0.9118 -1.4122
  190DOPC   H6S23438   1.542   2.227  10.550 -1.1781 -3.0718  0.4803
  190DOPC   C2723439   1.635   2.228  10.750 -0.3326 -0.3883 -0.0272
  190DOPC   H7R23440   1.663   2.335  10.764  1.6044 -0.9435  0.4688
  190DOPC   H7S23441   1.726   2.178  10.787  1.0794  3.1739  1.7869
  190DOPC   C2823442   1.507   2.185  10.814  0.3728 -0.8851 -0.8127
  190DOPC   H8R23443   1.514   2.206  10.923 -0.4702 -0.1599 -0.8854
  190DOPC   H8S23444   1.489   2.076  10.815  1.5643 -1.0865 -0.4391
  190DOPC   C2923445   1.394   2.276  10.768  0.1379 -0.9263 -0.1291
  190DOPC   H9R23446   1.423   2.381  10.760 -3.1360  0.0298 -0.5104
  190DOPC  C21023447   1.279   2.238  10.709 -0.5032  0.2389 -0.4710
  190DOPC  H10R23448   1.213   2.318  10.672  0.7652  2.2790  1.3871
  190DOPC  C21123449   1.241   2.098  10.690  0.3010 -0.3733 -0.3294
  190DOPC  H11R23450   1.306   2.026  10.745  0.3988 -0.2158 -0.2372
  190DOPC  H11S23451   1.245   2.073  10.582 -1.7780  0.5360 -0.6602
  190DOPC  C21223452   1.088   2.078  10.720 -0.1809  0.1247  0.3419
  190DOPC  H12R23453   1.079   1.968  10.710  1.5500 -0.0088 -0.0698
  190DOPC  H12S23454   1.032   2.123  10.635 -0.4338  0.4115  0.6556
  190DOPC  C21323455   1.031   2.138  10.857  0.6139 -0.0987 -0.0385
  190DOPC  H13R23456   1.060   2.246  10.856  0.0607  0.0549  0.3656
  190DOPC  H13S23457   1.073   2.100  10.952 -1.8713  1.9061  2.0071
  190DOPC  C21423458   0.878   2.127  10.874 -0.2913 -0.0897 -0.0339
  190DOPC  H14R23459   0.874   2.016  10.875  3.5597 -0.4354  3.3370
  190DOPC  H14S23460   0.820   2.173  10.791 -1.1914 -0.4132  0.4049
  190DOPC  C21523461   0.824   2.175  11.013 -0.5321 -0.7604  0.1975
  190DOPC  H15R23462   0.715   2.194  10.998 -0.1290  0.6769 -1.2729
  190DOPC  H15S23463   0.881   2.266  11.040  0.9142 -2.5511  3.8349
  190DOPC  C21623464   0.841   2.079  11.127  0.2431  0.3260 -0.5565
  190DOPC  H16R23465   0.950   2.071  11.148  0.1902 -1.1141 -0.7301
  190DOPC  H16S23466   0.798   1.980  11.101  2.0382 -0.3131 -1.2432
  190DOPC  C21723467   0.782   2.115  11.265  0.0290 -0.2824  0.5748
  190DOPC  H17R23468   0.824   2.215  11.291 -2.8051  1.7015 -1.7403
  190DOPC  H17S23469   0.809   2.024  11.321 -0.6662 -1.2199 -0.5720
  190DOPC  C21823470   0.630   2.137  11.261 -0.1228  0.4916  0.0300
  190DOPC  H18R23471   0.606   2.236  11.217 -1.0977  0.9362  1.4986
  190DOPC  H18S23472   0.593   2.126  11.365  0.9432 -1.5917  0.2444
  190DOPC  H18T23473   0.584   2.050  11.208 -0.6370  1.7873 -1.7523
  190DOPC   C3323474   1.261   2.369  10.179  0.0763 -0.0210 -0.3969
  190DOPC   H3X23475   1.165   2.327  10.143 -1.8724  2.9704  0.8497
  190DOPC   H3Y23476   1.286   2.456  10.114  0.6582 -0.4589 -0.7691
  190DOPC   C3423477   1.255   2.413  10.330  0.1973 -0.0292  0.2888
  190DOPC   H4X23478   1.322   2.502  10.337 -0.8240  0.9629 -1.5392
  190DOPC   H4Y23479   1.295   2.335  10.398  0.9972 -0.4363 -0.6097
  190DOPC   C3523480   1.111   2.446  10.359 -0.0607 -0.2728  0.0441
  190DOPC   H5X23481   1.069   2.490  10.265  1.0605 -0.1701 -0.4284
  190DOPC   H5Y23482   1.106   2.529  10.432  0.3110 -0.6976  0.5585
  190DOPC   C3623483   1.015   2.333  10.400 -0.2373  0.7671  0.0629
  190DOPC   H6X23484   1.044   2.241  10.344  1.7030  2.0058 -1.0776
  190DOPC   H6Y23485   1.033   2.314  10.507 -0.5497 -1.2418 -0.1987
  190DOPC   C3723486   0.872   2.364  10.379  0.4173 -0.0406 -0.0828
  190DOPC   H7X23487   0.856   2.460  10.433  0.6125 -0.3199  0.4783
  190DOPC   H7Y23488   0.863   2.390  10.271  1.7354  0.3514 -0.1124
  190DOPC   C3823489   0.776   2.254  10.429 -0.4054  0.4734 -1.1765
  190DOPC   H8X23490   0.807   2.234  10.534  0.3575  1.0321 -1.2829
  190DOPC   H8Y23491   0.796   2.163  10.369 -1.6023 -1.8501  1.7313
  190DOPC   C3923492   0.626   2.282  10.421 -0.3342  0.8917 -0.0291
  190DOPC   H9X23493   0.601   2.324  10.322 -0.8400 -0.3810 -0.4749
  190DOPC  C31023494   0.524   2.279  10.511 -0.0315 -0.3344 -0.5119
  190DOPC  H10X23495   0.419   2.297  10.484 -0.0607  0.7084  0.2623
  190DOPC  C31123496   0.547   2.252  10.656  0.1028 -0.4177  0.2488
  190DOPC  H11X23497   0.614   2.322  10.710  0.3526 -1.1450  0.9057
  190DOPC  H11Y23498   0.590   2.150  10.670  0.0280 -0.2826  1.6452
  190DOPC  C31223499   0.414   2.255  10.732  0.4594 -0.0034  0.1769
  190DOPC  H12X23500   0.340   2.185  10.686  1.4556 -1.1026  0.1905
  190DOPC  H12Y23501   0.364   2.354  10.738 -1.5952 -1.0897  2.3717
  190DOPC  C31323502   0.425   2.221  10.878 -0.1949  0.2256 -0.1910
  190DOPC  H13X23503   0.456   2.117  10.901  0.1551  0.3071 -0.2861
  190DOPC  H13Y23504   0.501   2.291  10.920 -1.8125  0.5337  2.3966
  190DOPC  C31423505   0.305   2.247  10.970  1.0821  0.2514 -0.3708
  190DOPC  H14X23506   0.345   2.254  11.074 -2.9206 -0.9455  1.4394
  190DOPC  H14Y23507   0.267   2.349  10.949 -2.2860 -0.5937  1.0706
  190DOPC  C31523508   0.198   2.137  10.961  0.0762 -0.5738 -0.2490
  190DOPC  H15X23509   0.231   2.031  10.970 -1.8610 -1.6114 -3.5219
  190DOPC  H15Y23510   0.151   2.145  10.860 -0.4094 -1.7325 -0.1323
  190DOPC  C31623511   0.092   2.165  11.072 -0.3471  0.3319  0.1267
  190DOPC  H16X23512   0.017   2.083  11.076  0.2298 -0.2683 -1.0781
  190DOPC  H16Y23513   0.144   2.163  11.170 -1.3827 -0.1503  0.6909
  190DOPC  C31723514   0.023   2.302  11.070 -0.9055 -0.6089  0.0056
  190DOPC  H17X23515   0.081   2.380  11.123 -1.4299 -0.5115  0.4447
  190DOPC  H17Y23516   0.001   2.339  10.968 -0.5517  0.6653  0.3819
  190DOPC  C31823517  -0.107   2.295  11.150  0.0297  0.5498  0.2508
  190DOPC  H18X23518  -0.159   2.393  11.154  0.8742  1.0043  0.3782
  190DOPC  H18Y23519  -0.164   2.221  11.090  0.4168 -1.3449  2.0801
  190DOPC  H18Z23520  -0.099   2.255  11.254 -1.2062 -1.8643 -0.5066
  191DOPC     N23521   2.841   8.001   9.093  0.4365  0.2061  0.3027
  191DOPC   C1223522   2.719   7.941   9.157 -0.0565 -0.0436 -0.2657
  191DOPC  H12A23523   2.734   7.834   9.157 -0.0803 -0.0519  0.4378
  191DOPC  H12B23524   2.632   7.967   9.098 -1.3760  0.0596  1.6357
  191DOPC   C1323525   2.968   8.019   9.179 -0.0197  0.0732  0.7188
  191DOPC  H13A23526   3.054   8.046   9.120  1.3261  0.1520  2.6335
  191DOPC  H13B23527   2.958   8.110   9.235 -2.1780  0.1653  0.2557
  191DOPC  H13C23528   2.983   7.934   9.244  0.7529 -2.3811 -2.3663
  191DOPC   C1423529   2.813   8.143   9.045  0.3469  0.3649 -0.4191
  191DOPC  H14A23530   2.728   8.132   8.979 -0.7795 -2.5208  1.3109
  191DOPC  H14B23531   2.768   8.204   9.123  0.8739 -0.5395  0.6179
  191DOPC  H14C23532   2.900   8.192   9.003  0.2455  2.8309  1.9764
  191DOPC   C1523533   2.884   7.921   8.971  0.8197 -0.6588 -0.7905
  191DOPC  H15A23534   2.973   7.959   8.922 -1.9092  2.4745 -3.7662
  191DOPC  H15B23535   2.805   7.915   8.898  0.4136 -0.4194 -0.3752
  191DOPC  H15C23536   2.897   7.816   8.993  2.2293 -0.0616  1.5724
  191DOPC   C1123537   2.684   7.991   9.291  1.2510  0.1522 -0.3875
  191DOPC  H11A23538   2.763   7.966   9.365  0.0457 -1.3211  0.4552
  191DOPC  H11B23539   2.674   8.102   9.287 -0.6094  0.0044 -0.6588
  191DOPC     P23540   2.565   7.785   9.400  0.0850  0.0141 -0.1396
  191DOPC   O1323541   2.684   7.709   9.340  0.5750  0.3997 -0.1747
  191DOPC   O1423542   2.429   7.726   9.392  0.3321  0.0994  0.0616
  191DOPC   O1223543   2.557   7.926   9.325 -0.4396 -0.0850  0.2073
  191DOPC   O1123544   2.602   7.812   9.556 -0.2558 -0.0906 -0.1503
  191DOPC    C123545   2.537   7.921   9.624 -0.6931  1.0627  0.3023
  191DOPC    HA23546   2.462   7.980   9.566  1.7049  2.9097 -1.1397
  191DOPC    HB23547   2.619   7.991   9.650  1.4152 -0.2687 -2.2414
  191DOPC    C223548   2.452   7.861   9.750 -0.8717 -0.2202  0.4040
  191DOPC    HS23549   2.402   7.951   9.792 -0.3942  1.6343 -2.6613
  191DOPC   O2123550   2.542   7.792   9.838  0.5829 -0.2597 -0.5039
  191DOPC   C2123551   2.632   7.870   9.904 -0.0499 -0.2227  0.4178
  191DOPC   O2223552   2.620   7.992   9.901  0.0833  0.5117  0.8404
  191DOPC   C2223553   2.748   7.796   9.961  0.5625 -0.1872 -0.3115
  191DOPC   H2R23554   2.836   7.807   9.895  0.7544 -1.3483 -0.2768
  191DOPC   H2S23555   2.728   7.689   9.981  0.6727  0.2366  2.5226
  191DOPC    C323556   2.342   7.754   9.709  0.3709 -0.4771  0.1613
  191DOPC    HX23557   2.393   7.656   9.694  0.0700 -0.3471 -2.0721
  191DOPC    HY23558   2.314   7.776   9.604 -0.8641  0.0646  0.5953
  191DOPC   O3123559   2.236   7.747   9.811 -0.1763 -0.0226  0.1618
  191DOPC   C3123560   2.127   7.709   9.761  0.8201  0.0713 -0.2249
  191DOPC   O3223561   2.108   7.684   9.643  0.0941  0.4627  0.3796
  191DOPC   C3223562   2.025   7.697   9.884  0.0424 -0.7636 -0.0826
  191DOPC   H2X23563   2.062   7.606   9.937  0.7205  1.2763  3.2240
  191DOPC   H2Y23564   2.051   7.778   9.956  1.3421 -3.0707  2.2277
  191DOPC   C2323565   2.767   7.861  10.104 -1.3448 -0.0388 -0.3436
  191DOPC   H3R23566   2.671   7.867  10.159 -2.3178  0.7037 -2.0471
  191DOPC   H3S23567   2.813   7.962  10.100 -0.8314 -0.2008  1.0756
  191DOPC   C2423568   2.860   7.790  10.196 -0.2449 -0.1728 -0.9885
  191DOPC   H4R23569   2.951   7.759  10.139  2.1634 -0.6585  2.7874
  191DOPC   H4S23570   2.815   7.696  10.234 -3.5911  2.1961  1.4834
  191DOPC   C2523571   2.899   7.865  10.325 -0.2311 -0.6875  0.0402
  191DOPC   H5R23572   2.905   7.974  10.307 -1.9899 -0.3838  1.0176
  191DOPC   H5S23573   2.996   7.844  10.375  0.9930 -0.2941 -2.0600
  191DOPC   C2623574   2.788   7.848  10.431  0.2287 -0.7531 -0.7022
  191DOPC   H6R23575   2.763   7.745  10.464  2.3760 -0.1627  3.3881
  191DOPC   H6S23576   2.696   7.897  10.394  0.4394 -0.7327 -1.2094
  191DOPC   C2723577   2.827   7.918  10.558 -0.5402  0.1861 -0.2134
  191DOPC   H7R23578   2.735   7.938  10.618 -0.3508 -0.2184  0.2254
  191DOPC   H7S23579   2.891   8.004  10.531 -1.7590  1.3271  0.4312
  191DOPC   C2823580   2.904   7.819  10.644 -0.4530 -0.0227  0.1656
  191DOPC   H8R23581   2.973   7.882  10.704  0.7430 -0.2352 -0.9478
  191DOPC   H8S23582   2.972   7.764  10.576 -0.5968  0.7261 -0.6001
  191DOPC   C2923583   2.829   7.719  10.731 -0.4195  0.8759  0.2113
  191DOPC   H9R23584   2.764   7.651  10.674 -0.0949  2.0684 -1.6750
  191DOPC  C21023585   2.843   7.696  10.864 -0.3403 -0.9370 -0.4182
  191DOPC  H10R23586   2.786   7.614  10.911  1.4737 -1.0177  1.8325
  191DOPC  C21123587   2.932   7.770  10.960 -0.2560 -0.3978 -0.5126
  191DOPC  H11R23588   2.916   7.878  10.941 -1.0761 -0.3784  0.2168
  191DOPC  H11S23589   3.037   7.737  10.945  0.9183  1.3710  2.8074
  191DOPC  C21223590   2.881   7.750  11.104  0.0311 -0.6894  0.7253
  191DOPC  H12R23591   2.770   7.756  11.107  0.0016  0.9415 -1.0728
  191DOPC  H12S23592   2.903   7.840  11.166  1.1687  0.3702 -1.1254
  191DOPC  C21323593   2.936   7.630  11.174  0.0199 -0.5162  0.6461
  191DOPC  H13R23594   3.047   7.627  11.179  0.0204 -1.2637  0.2223
  191DOPC  H13S23595   2.900   7.541  11.119  0.2559 -1.1057  1.4333
  191DOPC  C21423596   2.877   7.614  11.315 -0.4722  0.1521 -0.2049
  191DOPC  H14R23597   2.767   7.629  11.309 -0.5642 -0.7810 -1.3571
  191DOPC  H14S23598   2.917   7.697  11.378 -1.2201  1.6332 -1.6157
  191DOPC  C21523599   2.917   7.488  11.396  0.3782 -0.4282 -0.5789
  191DOPC  H15R23600   3.027   7.496  11.409  0.3748 -0.7119 -0.3650
  191DOPC  H15S23601   2.898   7.397  11.336 -2.9343 -1.6409  1.9868
  191DOPC  C21623602   2.829   7.480  11.530 -0.0275 -0.3103 -0.1992
  191DOPC  H16R23603   2.722   7.505  11.510 -0.2970 -1.1237  0.1992
  191DOPC  H16S23604   2.869   7.557  11.599  1.7237 -0.8381 -0.5728
  191DOPC  C21723605   2.841   7.335  11.586  0.2318 -0.2066 -0.7733
  191DOPC  H17R23606   2.834   7.343  11.697  0.2910  1.0959 -0.8399
  191DOPC  H17S23607   2.939   7.286  11.570  1.1763 -0.1434  3.4798
  191DOPC  C21823608   2.730   7.235  11.540 -0.4305  0.1704 -0.4750
  191DOPC  H18R23609   2.739   7.220  11.431  0.7112  0.6166 -0.4596
  191DOPC  H18S23610   2.628   7.266  11.570 -1.0692 -3.0087  1.1444
  191DOPC  H18T23611   2.735   7.140  11.598 -2.0288  0.6583  0.5394
  191DOPC   C3323612   1.881   7.689   9.832  0.2773  0.3671  0.1732
  191DOPC   H3X23613   1.886   7.601   9.764 -0.8356 -0.9895  1.7545
  191DOPC   H3Y23614   1.859   7.783   9.778  2.4811  0.7961 -0.1026
  191DOPC   C3423615   1.785   7.662   9.954  0.7852  0.4584  0.1984
  191DOPC   H4X23616   1.823   7.575  10.012 -1.6911 -0.9269 -0.1120
  191DOPC   H4Y23617   1.682   7.626   9.931  0.9412  1.6611 -2.7594
  191DOPC   C3523618   1.761   7.780  10.054 -0.0669 -0.5917 -0.0887
  191DOPC   H5X23619   1.785   7.875  10.002  0.1666 -0.6049 -0.0084
  191DOPC   H5Y23620   1.825   7.767  10.144 -1.7641 -1.3881  1.0484
  191DOPC   C3623621   1.617   7.772  10.090 -0.5815  0.3088 -0.7855
  191DOPC   H6X23622   1.554   7.799  10.002 -3.2043  1.5344  1.3162
  191DOPC   H6Y23623   1.590   7.669  10.119  1.2214  0.0807  0.2193
  191DOPC   C3723624   1.581   7.868  10.206  0.3399  0.3388  0.1462
  191DOPC   H7X23625   1.644   7.846  10.294  0.3359  3.0999  0.9333
  191DOPC   H7Y23626   1.609   7.972  10.175  1.6713  0.2816  1.0464
  191DOPC   C3823627   1.435   7.873  10.246  0.3602 -0.2178 -0.0344
  191DOPC   H8X23628   1.375   7.879  10.152  2.1206 -1.6437 -1.3235
  191DOPC   H8Y23629   1.416   7.968  10.300 -1.6731 -1.6296  1.9171
  191DOPC   C3923630   1.383   7.753  10.317  0.9483 -0.2752 -0.1282
  191DOPC   H9X23631   1.332   7.675  10.260  0.8692 -0.6688  0.4657
  191DOPC  C31023632   1.355   7.759  10.446  0.8179  0.0259  0.1256
  191DOPC  H10X23633   1.316   7.666  10.489 -0.0767 -0.6140 -1.9489
  191DOPC  C31123634   1.384   7.857  10.558 -0.2733  0.9169  0.1156
  191DOPC  H11X23635   1.299   7.928  10.571 -1.2845 -0.6844  3.4614
  191DOPC  H11Y23636   1.482   7.905  10.536  0.5761 -0.8778 -0.1875
  191DOPC  C31223637   1.410   7.783  10.697 -0.3584  0.2646 -0.1234
  191DOPC  H12X23638   1.509   7.734  10.681  0.3374  1.6193 -0.1654
  191DOPC  H12Y23639   1.336   7.708  10.731 -1.3363  0.1399 -2.3824
  191DOPC  C31323640   1.439   7.883  10.813 -0.1182  0.2759  0.3784
  191DOPC  H13X23641   1.527   7.936  10.772 -1.5113  1.4800 -1.2282
  191DOPC  H13Y23642   1.362   7.963  10.826  1.2468  1.4785  1.4105
  191DOPC  C31423643   1.458   7.816  10.950  0.5216 -0.2442  0.0350
  191DOPC  H14X23644   1.367   7.770  10.994 -1.9047  2.4753 -1.7671
  191DOPC  H14Y23645   1.520   7.728  10.927  0.2860 -0.4485  0.1720
  191DOPC  C31523646   1.512   7.913  11.047  0.0957  0.2938 -0.0720
  191DOPC  H15X23647   1.449   8.005  11.053 -0.2086  0.1476 -0.9000
  191DOPC  H15Y23648   1.612   7.953  11.020  0.6848  0.3314  1.9792
  191DOPC  C31623649   1.520   7.850  11.192 -0.4714 -0.1607 -0.2882
  191DOPC  H16X23650   1.417   7.822  11.221  0.2512 -4.3080 -1.0626
  191DOPC  H16Y23651   1.571   7.751  11.194  0.2029  0.1427 -1.3793
  191DOPC  C31723652   1.582   7.954  11.287 -0.0369  0.0977  0.2379
  191DOPC  H17X23653   1.693   7.955  11.273 -0.1892  1.0858 -1.0548
  191DOPC  H17Y23654   1.541   8.053  11.258 -1.5999 -0.6184 -0.0835
  191DOPC  C31823655   1.559   7.900  11.426 -0.0555 -0.0534 -0.4171
  191DOPC  H18X23656   1.601   7.798  11.423 -0.8660 -0.4601  0.9676
  191DOPC  H18Y23657   1.621   7.952  11.503 -1.3093  0.3229  0.3762
  191DOPC  H18Z23658   1.452   7.893  11.455 -0.2807  1.1111 -0.9023
  192DOPC     N23659   7.702   0.367  10.080  0.1021  0.2203 -0.0459
  192DOPC   C1223660   7.843   0.319  10.062 -0.4773 -0.4072 -0.2529
  192DOPC  H12A23661   7.905   0.358  10.142 -0.5679  1.0479 -0.8487
  192DOPC  H12B23662   7.887   0.363   9.973 -0.0532 -0.3752 -0.0330
  192DOPC   C1323663   7.643   0.304  10.205  0.0568  0.3983  0.4417
  192DOPC  H13A23664   7.700   0.333  10.291 -0.4657  0.6542  0.7064
  192DOPC  H13B23665   7.540   0.338  10.213  0.1182  0.6565  0.1643
  192DOPC  H13C23666   7.654   0.197  10.192 -0.7096  0.5682 -2.2149
  192DOPC   C1423667   7.615   0.340   9.963 -0.7478 -0.3294  0.9169
  192DOPC  H14A23668   7.514   0.377   9.978  0.0068  2.6517 -0.5679
  192DOPC  H14B23669   7.654   0.396   9.879 -1.6578 -0.0501  0.6648
  192DOPC  H14C23670   7.616   0.239   9.925  3.1071 -0.2226  0.3310
  192DOPC   C1523671   7.703   0.510  10.103 -0.0222  0.2409 -0.0759
  192DOPC  H15A23672   7.604   0.543  10.130  0.1272  0.3442  0.3519
  192DOPC  H15B23673   7.730   0.569  10.016  0.4544 -0.5890 -0.4968
  192DOPC  H15C23674   7.777   0.532  10.178 -1.6273  0.7847  1.4216
  192DOPC   C1123675   7.872   0.168  10.061  0.2647  1.0568  0.0633
  192DOPC  H11A23676   7.803   0.121   9.987  1.1487  0.2678 -0.2859
  192DOPC  H11B23677   7.969   0.128  10.024 -0.6116 -2.4395  1.0978
  192DOPC     P23678   7.972   0.050  10.269  0.0076 -0.4764 -0.0709
  192DOPC   O1323679   8.088   0.144  10.261  0.3503 -0.5972  0.0893
  192DOPC   O1423680   7.990  -0.088  10.227 -0.4448  0.1786  0.7333
  192DOPC   O1223681   7.850   0.105  10.187  0.2836 -0.2944 -0.2207
  192DOPC   O1123682   7.923   0.047  10.417  0.0842 -0.0638  0.4239
  192DOPC    C123683   7.783   0.039  10.436 -0.0433 -0.1006  0.5520
  192DOPC    HA23684   7.726  -0.002  10.350  0.2735  0.1703  0.2127
  192DOPC    HB23685   7.741   0.142  10.437  0.0928 -0.0212 -0.6452
  192DOPC    C223686   7.750  -0.032  10.569  0.1889  0.5848  0.1298
  192DOPC    HS23687   7.642  -0.009  10.584  0.3807  0.1260  2.6770
  192DOPC   O2123688   7.826   0.014  10.681  0.5705  0.2781 -0.1210
  192DOPC   C2123689   7.817   0.137  10.715 -0.1675 -0.9805 -0.4869
  192DOPC   O2223690   7.725   0.208  10.678  0.0765 -0.0065  0.0205
  192DOPC   C2223691   7.926   0.186  10.814  0.0302 -0.1677 -0.0808
  192DOPC   H2R23692   8.017   0.230  10.767  0.6395 -2.4724 -1.2354
  192DOPC   H2S23693   7.966   0.095  10.864 -0.1017 -1.1676 -1.7130
  192DOPC    C323694   7.767  -0.189  10.575 -0.2846 -0.3986  0.2213
  192DOPC    HX23695   7.874  -0.193  10.547 -0.6190  1.1838 -1.5165
  192DOPC    HY23696   7.720  -0.246  10.492 -1.4090  2.0456 -0.9527
  192DOPC   O3123697   7.755  -0.244  10.705  0.3207 -0.4720 -0.4570
  192DOPC   C3123698   7.635  -0.278  10.739 -0.0239  0.0050 -0.2391
  192DOPC   O3223699   7.532  -0.252  10.673  0.2463 -0.3177 -1.0016
  192DOPC   C3223700   7.634  -0.362  10.871 -0.7067 -0.8945 -0.5740
  192DOPC   H2X23701   7.527  -0.348  10.899 -0.4676  0.9469 -0.4638
  192DOPC   H2Y23702   7.646  -0.467  10.838 -0.9052 -0.6665 -1.3871
  192DOPC   C2323703   7.872   0.295  10.921 -0.2164  0.0392 -0.3185
  192DOPC   H3R23704   7.773   0.258  10.957 -0.4957  0.5293 -0.5780
  192DOPC   H3S23705   7.853   0.396  10.879  1.5428  0.5030 -0.0752
  192DOPC   C2423706   7.950   0.310  11.049 -0.0697  0.0365  0.4777
  192DOPC   H4R23707   8.060   0.300  11.031  0.0900  2.4747 -0.2756
  192DOPC   H4S23708   7.920   0.237  11.127 -0.6318 -0.3802 -0.1113
  192DOPC   C2523709   7.918   0.450  11.110  0.2018 -0.3194 -0.4154
  192DOPC   H5R23710   7.814   0.446  11.147  1.2065  1.1770  2.9474
  192DOPC   H5S23711   7.925   0.539  11.043  0.5789  1.1208  1.4453
  192DOPC   C2623712   7.993   0.481  11.247  0.7119  0.2770  0.2490
  192DOPC   H6R23713   8.099   0.498  11.220  1.7238 -5.3581 -0.5786
  192DOPC   H6S23714   7.986   0.397  11.320 -0.4250  1.3327  1.4136
  192DOPC   C2723715   7.933   0.605  11.312  0.5278 -0.1957 -0.1019
  192DOPC   H7R23716   7.831   0.578  11.344 -0.3974  3.1749  0.2031
  192DOPC   H7S23717   7.923   0.687  11.238  1.9783  1.8345  1.7962
  192DOPC   C2823718   8.017   0.664  11.426 -0.3366  0.3895 -0.4997
  192DOPC   H8R23719   7.988   0.771  11.434 -2.0421 -0.0819  0.0523
  192DOPC   H8S23720   8.125   0.655  11.400  0.4547  3.4979  1.1954
  192DOPC   C2923721   8.013   0.590  11.560  0.2587 -0.4272 -0.0086
  192DOPC   H9R23722   8.013   0.482  11.540  2.4198 -0.2902 -1.1453
  192DOPC  C21023723   7.984   0.632  11.685 -0.0222  0.7453  0.6162
  192DOPC  H10R23724   7.982   0.556  11.765  1.6370 -0.0681 -0.0532
  192DOPC  C21123725   7.975   0.780  11.723  0.2760  0.2628 -0.6569
  192DOPC  H11R23726   8.007   0.834  11.631  1.4003  1.4919  0.4177
  192DOPC  H11S23727   8.057   0.798  11.796  0.1067 -0.1591 -0.3574
  192DOPC  C21223728   7.833   0.814  11.785  0.4192 -0.0592  0.2138
  192DOPC  H12R23729   7.744   0.785  11.726 -0.4903 -0.8510  1.8937
  192DOPC  H12S23730   7.816   0.923  11.799  2.0891  0.3671 -0.8794
  192DOPC  C21323731   7.823   0.744  11.928 -0.2484 -0.2654  0.1912
  192DOPC  H13R23732   7.786   0.641  11.911  0.1646 -0.2808 -0.6723
  192DOPC  H13S23733   7.750   0.804  11.987 -0.7687 -0.4721 -0.2320
  192DOPC  C21423734   7.951   0.737  12.013  0.1087 -0.1729  0.0598
  192DOPC  H14R23735   8.024   0.820  12.012  0.0634 -0.1296  0.3057
  192DOPC  H14S23736   8.001   0.649  11.967 -0.0657 -0.3090  0.1296
  192DOPC  C21523737   7.923   0.711  12.157  0.0936  0.7963  0.2991
  192DOPC  H15R23738   7.821   0.668  12.166 -0.0138  0.6481 -1.2769
  192DOPC  H15S23739   7.922   0.812  12.203  2.6622  0.2980  1.6468
  192DOPC  C21623740   8.029   0.628  12.223 -0.1199  0.4345  0.6128
  192DOPC  H16R23741   8.133   0.665  12.224  0.6056 -1.5114  1.9314
  192DOPC  H16S23742   8.025   0.534  12.165 -0.4194  0.6216  0.3220
  192DOPC  C21723743   7.986   0.598  12.365  0.3110 -1.0192 -0.5504
  192DOPC  H17R23744   7.877   0.577  12.359 -0.1019  0.9544 -0.4677
  192DOPC  H17S23745   8.001   0.693  12.420  1.8036  1.5004 -4.7851
  192DOPC  C21823746   8.054   0.485  12.425 -0.0309 -0.0086  0.1387
  192DOPC  H18R23747   8.049   0.497  12.536  1.6562  1.8825  0.0710
  192DOPC  H18S23748   8.164   0.492  12.414  0.0015 -0.5920  0.0530
  192DOPC  H18T23749   8.013   0.391  12.382  0.1613 -1.2222  2.4289
  192DOPC   C3323750   7.728  -0.324  10.988 -0.5067  0.0113 -0.6751
  192DOPC   H3X23751   7.834  -0.330  10.957  0.2128  0.6615  1.4919
  192DOPC   H3Y23752   7.708  -0.401  11.066 -0.0353  1.3096  0.7888
  192DOPC   C3423753   7.708  -0.184  11.046  0.4897  0.0056  0.3345
  192DOPC   H4X23754   7.604  -0.157  11.074  0.1405 -1.2885  0.3167
  192DOPC   H4Y23755   7.744  -0.105  10.976 -0.1250  0.5660  0.6359
  192DOPC   C3523756   7.787  -0.175  11.175 -0.4917 -0.2859  0.3858
  192DOPC   H5X23757   7.894  -0.167  11.145 -1.0895  1.9091 -1.5205
  192DOPC   H5Y23758   7.766  -0.262  11.240 -1.0856 -1.6814 -1.5676
  192DOPC   C3623759   7.773  -0.033  11.233 -0.0688 -0.1004 -0.4609
  192DOPC   H6X23760   7.761   0.047  11.157  0.7951  3.2985  2.6945
  192DOPC   H6Y23761   7.685  -0.016  11.299  0.7279 -0.7322  0.7870
  192DOPC   C3723762   7.885   0.019  11.335  0.5336 -0.3346  0.8663
  192DOPC   H7X23763   7.987   0.014  11.290  1.2366  3.2378  1.7654
  192DOPC   H7Y23764   7.868   0.128  11.345 -1.4460 -0.6307  1.0298
  192DOPC   C3823765   7.890  -0.055  11.469  0.8065 -0.5098  0.5377
  192DOPC   H8X23766   7.997  -0.047  11.498  0.6245 -1.3402  1.4875
  192DOPC   H8Y23767   7.865  -0.163  11.456  0.1139 -0.1940 -1.0663
  192DOPC   C3923768   7.800   0.000  11.573  0.0026 -0.2691  0.6192
  192DOPC   H9X23769   7.692  -0.006  11.550 -0.2585  1.3741  1.2843
  192DOPC  C31023770   7.842   0.058  11.686 -0.2715 -0.3424 -0.6864
  192DOPC  H10X23771   7.768   0.117  11.742  0.9752 -0.1039  0.8108
  192DOPC  C31123772   7.988   0.071  11.731  0.0739 -0.2408  0.6704
  192DOPC  H11X23773   8.000   0.150  11.809 -0.4394  1.0269 -0.4885
  192DOPC  H11Y23774   8.054   0.102  11.646 -0.2585  1.1806  0.9101
  192DOPC  C31223775   8.029  -0.063  11.795  0.2214  0.8247 -0.2566
  192DOPC  H12X23776   8.001  -0.144  11.724 -1.0552  1.5253 -0.5949
  192DOPC  H12Y23777   7.962  -0.077  11.882  0.3289 -1.5156 -0.4934
  192DOPC  C31323778   8.178  -0.079  11.830  0.9384 -0.1403  0.0758
  192DOPC  H13X23779   8.242  -0.076  11.740  0.1334 -1.7668 -0.5976
  192DOPC  H13Y23780   8.213  -0.007  11.906 -1.5160  1.3982 -0.1257
  192DOPC  C31423781   8.197  -0.220  11.890 -0.1639 -0.2308  0.4427
  192DOPC  H14X23782   8.128  -0.236  11.976 -1.4796  0.3062 -0.4795
  192DOPC  H14Y23783   8.167  -0.297  11.816  0.8675 -1.2356  1.0239
  192DOPC  C31523784   8.338  -0.249  11.940  0.2228  1.0015  0.0451
  192DOPC  H15X23785   8.368  -0.171  12.013 -0.7686  1.7597 -0.3289
  192DOPC  H15Y23786   8.397  -0.243  11.846  0.8201 -0.4046  0.3042
  192DOPC  C31623787   8.369  -0.389  11.999 -0.2073  0.0984 -0.0988
  192DOPC  H16X23788   8.343  -0.382  12.106 -1.0296 -2.8766 -0.0212
  192DOPC  H16Y23789   8.310  -0.466  11.945  1.3166  0.2515 -2.1422
  192DOPC  C31723790   8.516  -0.429  11.987 -0.4805  0.1767 -0.1928
  192DOPC  H17X23791   8.545  -0.394  11.886 -1.1380  2.4607  0.3701
  192DOPC  H17Y23792   8.578  -0.373  12.060  0.1873  0.6014 -1.0708
  192DOPC  C31823793   8.539  -0.579  12.008 -0.0877  0.5179 -0.1102
  192DOPC  H18X23794   8.635  -0.605  11.957 -1.2517 -1.1912 -1.5565
  192DOPC  H18Y23795   8.543  -0.604  12.116 -1.1115 -1.1944 -0.4386
  192DOPC  H18Z23796   8.460  -0.645  11.966  0.0971  0.9319 -1.1333
  193DOPC     N23797   5.651   2.631   8.890 -0.7958 -0.2338 -0.4810
  193DOPC   C1223798   5.698   2.666   9.037  0.9769 -0.3470  0.3518
  193DOPC  H12A23799   5.655   2.762   9.061  2.4318 -0.1913  2.5713
  193DOPC  H12B23800   5.802   2.697   9.035  1.0185 -0.3661  1.6821
  193DOPC   C1323801   5.507   2.596   8.884  0.1216  0.3598 -0.9201
  193DOPC  H13A23802   5.443   2.680   8.907 -2.5596 -1.0717 -2.6517
  193DOPC  H13B23803   5.486   2.556   8.786  0.7631  0.3234 -1.0464
  193DOPC  H13C23804   5.485   2.519   8.956  1.3609 -1.4724 -2.4414
  193DOPC   C1423805   5.730   2.512   8.833 -0.0116  0.6054 -0.8388
  193DOPC  H14A23806   5.836   2.524   8.820  0.4674 -2.0273  0.1075
  193DOPC  H14B23807   5.716   2.414   8.875  0.7902  0.9375  0.2415
  193DOPC  H14C23808   5.698   2.498   8.731  0.5355 -2.3595 -0.6747
  193DOPC   C1523809   5.680   2.748   8.804 -0.0779 -0.6296  0.2859
  193DOPC  H15A23810   5.785   2.760   8.785  0.0500  0.1127  1.4103
  193DOPC  H15B23811   5.641   2.839   8.846  0.9064 -0.4735  0.8786
  193DOPC  H15C23812   5.639   2.735   8.704  0.8041  1.2779 -0.3589
  193DOPC   C1123813   5.671   2.573   9.158 -0.4854  0.4456  0.6206
  193DOPC  H11A23814   5.703   2.633   9.246  1.0498 -0.8891  1.0290
  193DOPC  H11B23815   5.565   2.547   9.179 -0.5999  0.5640  0.1962
  193DOPC     P23816   5.891   2.437   9.142 -0.2458 -0.6621  0.0667
  193DOPC   O1323817   5.948   2.570   9.094  0.5958  0.1373 -0.1113
  193DOPC   O1423818   5.939   2.315   9.072  0.3200 -0.1462  0.1924
  193DOPC   O1223819   5.743   2.456   9.144  0.3536 -0.3256 -0.7115
  193DOPC   O1123820   5.916   2.418   9.297  0.4126  0.0949 -0.4148
  193DOPC    C123821   5.852   2.304   9.359  0.2304 -0.1571 -0.7842
  193DOPC    HA23822   5.912   2.212   9.342  0.8610  0.6204 -3.3238
  193DOPC    HB23823   5.747   2.289   9.326 -0.6347  2.1277  0.6656
  193DOPC    C223824   5.844   2.318   9.516 -0.1336 -0.4391 -0.4916
  193DOPC    HS23825   5.781   2.408   9.531 -0.9620 -0.7408 -1.9599
  193DOPC   O2123826   5.980   2.334   9.575 -0.0509 -0.2721  0.3427
  193DOPC   C2123827   5.980   2.408   9.685 -0.0855  0.1600  0.5578
  193DOPC   O2223828   5.886   2.473   9.731  0.1315  0.5241  0.5023
  193DOPC   C2223829   6.123   2.398   9.738  0.3401 -0.4702 -0.0583
  193DOPC   H2R23830   6.184   2.462   9.671 -2.0268  0.6654 -1.2608
  193DOPC   H2S23831   6.155   2.293   9.753  1.0066  0.0068  2.3895
  193DOPC    C323832   5.789   2.183   9.574 -0.5201  0.8705  0.0148
  193DOPC    HX23833   5.870   2.107   9.578 -1.3612 -0.4375 -3.8920
  193DOPC    HY23834   5.714   2.141   9.504  1.5004 -2.3759 -0.3937
  193DOPC   O3123835   5.704   2.197   9.693  0.8154 -0.4132 -0.2387
  193DOPC   C3123836   5.764   2.190   9.808  0.4125 -0.2467  0.1712
  193DOPC   O3223837   5.867   2.137   9.836 -0.2101 -0.2414 -0.0730
  193DOPC   C3223838   5.698   2.281   9.910  0.2015  0.5274 -0.1964
  193DOPC   H2X23839   5.701   2.386   9.874 -2.6288  0.8417  0.2771
  193DOPC   H2Y23840   5.593   2.247   9.913 -0.1501  1.3782 -1.7947
  193DOPC   C2323841   6.131   2.470   9.875 -0.0151 -0.2096  0.6740
  193DOPC   H3R23842   6.078   2.400   9.943  0.7750 -2.1116 -0.5947
  193DOPC   H3S23843   6.074   2.566   9.876  0.2793  0.0224 -1.2537
  193DOPC   C2423844   6.273   2.508   9.919 -0.1342  0.0039  0.5452
  193DOPC   H4R23845   6.325   2.543   9.827  1.9415 -0.7774  1.3653
  193DOPC   H4S23846   6.335   2.422   9.950  0.7143  0.5585  0.4087
  193DOPC   C2523847   6.287   2.611  10.024 -0.4380 -0.4660  0.8463
  193DOPC   H5R23848   6.234   2.702   9.988 -0.0890 -0.8200 -0.6300
  193DOPC   H5S23849   6.393   2.643  10.025  0.0446 -1.6743 -2.1047
  193DOPC   C2623850   6.232   2.569  10.162 -0.0176 -0.3101 -0.7840
  193DOPC   H6R23851   6.280   2.473  10.190  1.3262  0.1609 -1.3474
  193DOPC   H6S23852   6.122   2.562  10.154 -0.1936  0.1497  0.8901
  193DOPC   C2723853   6.286   2.670  10.268 -0.4656  0.5342 -0.1010
  193DOPC   H7R23854   6.242   2.770  10.251 -0.6879  0.9328  2.3509
  193DOPC   H7S23855   6.395   2.682  10.248 -0.4137  0.0765 -0.0947
  193DOPC   C2823856   6.272   2.614  10.413 -0.2150 -0.2731 -0.2545
  193DOPC   H8R23857   6.364   2.649  10.465  0.2292 -3.3863  1.2901
  193DOPC   H8S23858   6.281   2.504  10.400 -0.4092 -0.3486  0.2364
  193DOPC   C2923859   6.143   2.672  10.475 -0.2836 -0.0262 -0.2283
  193DOPC   H9R23860   6.066   2.687  10.397  0.1324  0.7524 -0.5058
  193DOPC  C21023861   6.106   2.684  10.602 -0.3655  0.8047 -0.1676
  193DOPC  H10R23862   6.003   2.717  10.620  0.1616  2.8973 -0.7042
  193DOPC  C21123863   6.189   2.638  10.727  0.4917 -0.5221 -0.3701
  193DOPC  H11R23864   6.231   2.720  10.789  1.2930 -0.3527 -1.1231
  193DOPC  H11S23865   6.284   2.595  10.688  0.0308 -2.6574  0.6807
  193DOPC  C21223866   6.107   2.549  10.822  0.0964 -0.3054  0.1612
  193DOPC  H12R23867   6.026   2.597  10.881  0.4791 -0.2616  0.6607
  193DOPC  H12S23868   6.174   2.504  10.899 -0.3293 -0.1401  0.6357
  193DOPC  C21323869   6.026   2.433  10.751 -0.5247 -0.0660 -0.5269
  193DOPC  H13R23870   5.943   2.475  10.690 -0.2048  2.1646  0.4619
  193DOPC  H13S23871   5.971   2.380  10.831  0.5490  0.3167  0.4976
  193DOPC  C21423872   6.103   2.332  10.663 -0.3095 -0.1449  0.0360
  193DOPC  H14R23873   6.166   2.268  10.728 -1.5220 -1.1103  0.2785
  193DOPC  H14S23874   6.182   2.382  10.601  2.0198 -3.2578  0.2805
  193DOPC  C21523875   6.015   2.248  10.574  0.5996  0.1751  0.2205
  193DOPC  H15R23876   5.971   2.321  10.503  1.1152  2.2527  1.9438
  193DOPC  H15S23877   5.956   2.180  10.640  2.9699  0.2781  2.6267
  193DOPC  C21623878   6.095   2.145  10.490 -0.3392 -0.7441  0.3563
  193DOPC  H16R23879   6.142   2.061  10.546  0.5580  0.3063  1.2223
  193DOPC  H16S23880   6.171   2.199  10.429 -1.1932 -2.5988 -2.5685
  193DOPC  C21723881   6.015   2.081  10.382  0.0100 -0.7449  0.7803
  193DOPC  H17R23882   5.929   2.146  10.356  0.2779 -0.2013  1.2430
  193DOPC  H17S23883   5.969   1.989  10.424  0.4890  0.0103  3.1211
  193DOPC  C21823884   6.098   2.042  10.255 -0.2065  0.5150  0.3666
  193DOPC  H18R23885   6.151   2.131  10.216 -1.0981  1.3679  1.0654
  193DOPC  H18S23886   6.043   1.997  10.169  1.4053 -1.8869  0.4830
  193DOPC  H18T23887   6.168   1.962  10.288  1.0527  0.8480 -1.3881
  193DOPC   C3323888   5.764   2.290  10.052  0.9025  0.4267 -0.2471
  193DOPC   H3X23889   5.865   2.333  10.034  1.5263 -0.6976  0.4332
  193DOPC   H3Y23890   5.771   2.186  10.090  0.2440  0.3934 -0.1960
  193DOPC   C3423891   5.689   2.382  10.147 -0.3121 -0.0883  0.6182
  193DOPC   H4X23892   5.591   2.330  10.155 -0.3906  0.1943  1.5008
  193DOPC   H4Y23893   5.667   2.471  10.085 -0.1834 -0.3655  0.1590
  193DOPC   C3523894   5.776   2.421  10.267  0.3686  0.1438 -0.0566
  193DOPC   H5X23895   5.875   2.459  10.235  1.6295 -2.1797  0.8215
  193DOPC   H5Y23896   5.783   2.330  10.330 -2.5999 -0.7725 -0.8963
  193DOPC   C3623897   5.696   2.513  10.352  0.1073 -1.0131  0.2182
  193DOPC   H6X23898   5.635   2.577  10.284  0.2149  1.6203  2.4477
  193DOPC   H6Y23899   5.615   2.457  10.404 -0.3234 -1.2793 -0.7216
  193DOPC   C3723900   5.778   2.606  10.443  0.4266 -0.0892  0.2742
  193DOPC   H7X23901   5.842   2.546  10.511  1.3765  1.3894  0.7436
  193DOPC   H7Y23902   5.831   2.679  10.378 -0.6369 -0.7443 -1.3993
  193DOPC   C3823903   5.682   2.685  10.538  0.3147  0.4643 -0.4756
  193DOPC   H8X23904   5.629   2.627  10.617 -1.6124  2.8841  0.1507
  193DOPC   H8Y23905   5.592   2.712  10.478  0.7018 -0.7206 -1.6335
  193DOPC   C3923906   5.742   2.812  10.588 -0.5000 -1.1332 -0.3918
  193DOPC   H9X23907   5.721   2.896  10.520  0.6708 -0.3793  0.1359
  193DOPC  C31023908   5.789   2.834  10.715  0.1887 -0.2111  0.6716
  193DOPC  H10X23909   5.823   2.935  10.741  1.0746 -0.4516  0.4977
  193DOPC  C31123910   5.775   2.730  10.819 -0.2227 -0.3914  0.1020
  193DOPC  H11X23911   5.846   2.750  10.902  0.2619  0.7116 -0.5572
  193DOPC  H11Y23912   5.809   2.629  10.787 -1.7770 -0.6090 -0.9467
  193DOPC  C31223913   5.641   2.713  10.892 -0.1280  0.0613  0.4442
  193DOPC  H12X23914   5.648   2.636  10.971  0.1090  0.7153  1.0790
  193DOPC  H12Y23915   5.555   2.689  10.826 -0.7697  0.9403  0.9383
  193DOPC  C31323916   5.597   2.842  10.968 -0.1677  0.6901 -0.2307
  193DOPC  H13X23917   5.613   2.922  10.894  2.9081  0.7630  0.4005
  193DOPC  H13Y23918   5.492   2.820  11.001 -0.1077  1.4901  0.5465
  193DOPC  C31423919   5.667   2.873  11.100 -0.9868 -0.2195  0.0875
  193DOPC  H14X23920   5.647   2.796  11.177  0.9024  2.1416  3.1700
  193DOPC  H14Y23921   5.778   2.875  11.103 -0.9117  0.2268 -1.7416
  193DOPC  C31523922   5.619   3.004  11.170 -0.0520  1.0833  0.3274
  193DOPC  H15X23923   5.513   2.981  11.191 -0.6451  0.1757 -3.0140
  193DOPC  H15Y23924   5.625   3.085  11.094 -1.2538  1.0212  0.1560
  193DOPC  C31623925   5.684   3.025  11.302 -0.1779  0.6078 -0.4558
  193DOPC  H16X23926   5.659   2.945  11.374  0.8283  1.2624  0.6429
  193DOPC  H16Y23927   5.793   3.010  11.290 -0.1325 -0.6227  1.2320
  193DOPC  C31723928   5.650   3.165  11.357 -0.1439  0.0510 -0.0569
  193DOPC  H17X23929   5.705   3.241  11.299 -1.6553 -0.2207 -1.9615
  193DOPC  H17Y23930   5.542   3.193  11.349  0.3673  1.9365 -0.7409
  193DOPC  C31823931   5.697   3.179  11.508 -0.1046 -0.1117  0.8565
  193DOPC  H18X23932   5.803   3.145  11.514  0.5191  1.5243 -0.2118
  193DOPC  H18Y23933   5.691   3.285  11.539  0.4222 -0.4397  2.1431
  193DOPC  H18Z23934   5.635   3.120  11.578 -0.9252 -0.1758  0.0991
  194DOPC     N23935   0.780   1.728   9.335 -0.3622  0.3547 -0.0412
  194DOPC   C1223936   0.759   1.864   9.398  0.3542  0.1157  0.7719
  194DOPC  H12A23937   0.656   1.894   9.384  0.7511  1.0163 -0.4326
  194DOPC  H12B23938   0.823   1.936   9.349 -2.0167  1.1600 -1.0131
  194DOPC   C1323939   0.734   1.732   9.190 -0.1341  0.1346 -0.4658
  194DOPC  H13A23940   0.782   1.815   9.141  0.3474  0.1359 -0.0004
  194DOPC  H13B23941   0.750   1.633   9.149 -4.3087 -1.3190  0.8691
  194DOPC  H13C23942   0.627   1.744   9.179 -0.1367 -0.8206 -1.7354
  194DOPC   C1423943   0.713   1.620   9.403 -0.1415  0.0517 -0.0304
  194DOPC  H14A23944   0.735   1.518   9.374 -2.0487 -0.6788  0.9035
  194DOPC  H14B23945   0.751   1.622   9.504  1.8505  0.5610 -0.7482
  194DOPC  H14C23946   0.606   1.616   9.420 -0.3779  0.2027 -1.3741
  194DOPC   C1523947   0.927   1.697   9.336 -0.7072  0.6610  0.3665
  194DOPC  H15A23948   0.952   1.595   9.315 -1.7722  0.8354 -2.0869
  194DOPC  H15B23949   0.971   1.715   9.433  2.3283 -1.3310 -0.5165
  194DOPC  H15C23950   0.975   1.766   9.268 -0.4997 -0.4294 -0.6207
  194DOPC   C1123951   0.788   1.894   9.553 -0.0190  0.9980  0.6470
  194DOPC  H11A23952   0.757   1.999   9.570  2.7061  1.9565  0.2282
  194DOPC  H11B23953   0.724   1.822   9.608  0.3818  0.6884  0.7180
  194DOPC     P23954   1.036   1.976   9.548  0.3598 -0.1508  0.0446
  194DOPC   O1323955   0.995   2.053   9.427  0.4977 -0.3978 -0.1342
  194DOPC   O1423956   1.164   1.901   9.550  0.2924 -0.0978  0.3960
  194DOPC   O1223957   0.928   1.868   9.582  0.4168 -0.5706  0.2541
  194DOPC   O1123958   1.034   2.059   9.683 -0.1016  0.0437  0.1272
  194DOPC    C123959   1.021   1.995   9.812 -0.1986  0.0538  0.3245
  194DOPC    HA23960   1.114   2.003   9.871 -0.7150 -0.5080  1.2296
  194DOPC    HB23961   1.006   1.886   9.799 -1.2539  0.1449  0.6509
  194DOPC    C223962   0.895   2.057   9.876  0.0689 -0.6002  0.0273
  194DOPC    HS23963   0.819   2.036   9.797  0.0613 -1.7805  0.3288
  194DOPC   O2123964   0.920   2.193   9.890  0.4020 -0.4052 -0.5583
  194DOPC   C2123965   0.846   2.283   9.828  0.7460  0.1936 -0.2825
  194DOPC   O2223966   0.753   2.258   9.753  0.1862 -0.4043 -0.2198
  194DOPC   C2223967   0.892   2.418   9.881  0.5586 -0.1488 -0.1053
  194DOPC   H2R23968   0.926   2.481   9.796 -1.5069 -0.5736 -1.3055
  194DOPC   H2S23969   0.975   2.406   9.954  0.4070  0.3406  0.1541
  194DOPC    C323970   0.857   1.986  10.002 -0.0680  0.7820 -0.9499
  194DOPC    HX23971   0.935   2.008  10.079 -0.5383 -4.1326  1.3736
  194DOPC    HY23972   0.863   1.877   9.979 -0.9495  0.5007  0.0411
  194DOPC   O3123973   0.728   2.020  10.047 -0.1651 -0.2263  0.1924
  194DOPC   C3123974   0.631   1.957   9.985  0.4905  0.6888 -0.3582
  194DOPC   O3223975   0.649   1.874   9.895 -0.3498  0.7566 -0.4781
  194DOPC   C3223976   0.500   2.001  10.055  0.0316 -0.4867  0.0757
  194DOPC   H2X23977   0.479   2.109  10.041 -0.7227 -0.9446 -2.9091
  194DOPC   H2Y23978   0.420   1.958   9.992 -3.2888  1.3584  2.6675
  194DOPC   C2323979   0.777   2.503   9.942  0.3504  0.1222  0.0472
  194DOPC   H3R23980   0.721   2.460  10.028 -0.8217 -1.7382 -1.5513
  194DOPC   H3S23981   0.703   2.523   9.862 -0.7715  2.5371  1.5731
  194DOPC   C2423982   0.822   2.654   9.978  0.8848 -0.6086  0.3497
  194DOPC   H4R23983   0.731   2.716   9.993  0.9696 -0.0955 -1.0835
  194DOPC   H4S23984   0.879   2.703   9.895  0.8331  1.3294  1.4009
  194DOPC   C2523985   0.914   2.665  10.105 -0.4147  0.1190  0.3094
  194DOPC   H5R23986   1.012   2.617  10.086 -0.7168 -0.9096  1.2354
  194DOPC   H5S23987   0.873   2.617  10.197  1.0117 -0.3021  0.7531
  194DOPC   C2623988   0.943   2.810  10.147  0.0696 -0.1376 -0.2244
  194DOPC   H6R23989   0.852   2.866  10.178 -0.8793 -2.0238  0.5303
  194DOPC   H6S23990   0.981   2.852  10.052  1.8436 -2.6526 -0.7474
  194DOPC   C2723991   1.053   2.805  10.253 -0.3625 -0.3650 -0.7988
  194DOPC   H7R23992   1.143   2.742  10.236 -0.8558 -1.0713 -0.8148
  194DOPC   H7S23993   1.002   2.757  10.340 -3.2034  2.7991 -0.5117
  194DOPC   C2823994   1.086   2.947  10.304 -0.7567 -0.5658 -0.1586
  194DOPC   H8R23995   0.988   2.999  10.302 -0.8292 -0.6419  0.8904
  194DOPC   H8S23996   1.146   2.994  10.224 -1.1103  1.4687  0.7104
  194DOPC   C2923997   1.156   2.960  10.437  0.1468  0.0499 -0.4982
  194DOPC   H9R23998   1.186   2.863  10.480  1.7026  0.4460 -0.6360
  194DOPC  C21023999   1.161   3.069  10.511 -0.1715  0.3810  0.1879
  194DOPC  H10R24000   1.225   3.068  10.601  0.4734  1.4528 -0.2423
  194DOPC  C21124001   1.121   3.201  10.472  0.7915 -0.3384  0.2135
  194DOPC  H11R24002   1.055   3.184  10.384 -0.8709  0.6407  1.2292
  194DOPC  H11S24003   1.208   3.252  10.425 -0.3573  2.1931  0.6842
  194DOPC  C21224004   1.047   3.279  10.577  0.2448 -0.4266 -0.4785
  194DOPC  H12R24005   0.972   3.206  10.614  2.0079 -1.6741  0.8684
  194DOPC  H12S24006   0.997   3.366  10.529 -1.0902 -0.5650  0.6222
  194DOPC  C21324007   1.138   3.322  10.693 -0.2019 -0.4196 -0.1020
  194DOPC  H13R24008   1.189   3.418  10.674 -1.2007  0.3512  1.0100
  194DOPC  H13S24009   1.215   3.245  10.717  0.7183 -0.3991 -2.7369
  194DOPC  C21424010   1.058   3.345  10.823 -0.0012  0.1024  0.6407
  194DOPC  H14R24011   0.990   3.259  10.843  0.5397 -0.1162  1.5524
  194DOPC  H14S24012   0.987   3.428  10.800 -1.7161 -0.3388  3.8112
  194DOPC  C21524013   1.136   3.377  10.950  0.4378  0.0351 -0.4271
  194DOPC  H15R24014   1.213   3.297  10.952  1.8309  1.3366 -0.2431
  194DOPC  H15S24015   1.070   3.363  11.038  0.6124 -0.2996 -0.3483
  194DOPC  C21624016   1.194   3.519  10.952  0.0637  0.2141  0.5092
  194DOPC  H16R24017   1.108   3.587  10.934  0.0950  0.2630  0.5433
  194DOPC  H16S24018   1.269   3.534  10.871 -0.2821  3.9926  0.6926
  194DOPC  C21724019   1.260   3.549  11.088 -0.1139  0.7134  0.2080
  194DOPC  H17R24020   1.197   3.523  11.175  0.1871  1.6002  0.7043
  194DOPC  H17S24021   1.282   3.657  11.102 -0.6295  0.5326  2.7807
  194DOPC  C21824022   1.389   3.472  11.111 -0.5235 -0.0549  1.0340
  194DOPC  H18R24023   1.441   3.507  11.202  1.4633 -1.0289  0.3372
  194DOPC  H18S24024   1.461   3.482  11.027 -0.3675  0.0854  1.1851
  194DOPC  H18T24025   1.375   3.362  11.123  0.8427 -0.6298 -1.7879
  194DOPC   C3324026   0.495   1.956  10.206 -0.3067  0.8058  0.0244
  194DOPC   H3X24027   0.563   2.014  10.271  0.9982  0.8385 -1.3333
  194DOPC   H3Y24028   0.526   1.854  10.237 -2.1071  0.0890 -0.3588
  194DOPC   C3424029   0.345   1.961  10.255 -0.2028 -1.0504 -0.0029
  194DOPC   H4X24030   0.283   1.898  10.188  0.6206 -0.1115 -1.6984
  194DOPC   H4Y24031   0.318   2.068  10.253  0.8318 -0.7695  0.6132
  194DOPC   C3524032   0.332   1.938  10.405  0.4662  0.5180 -0.5259
  194DOPC   H5X24033   0.384   2.025  10.451  0.2345  1.4094 -1.8666
  194DOPC   H5Y24034   0.376   1.838  10.427  0.3995  0.1592 -1.9200
  194DOPC   C3624035   0.185   1.925  10.452  0.0379 -0.0379 -0.7990
  194DOPC   H6X24036   0.144   1.827  10.420 -2.2014  0.8702 -0.8760
  194DOPC   H6Y24037   0.182   1.918  10.563 -2.4628 -1.0974 -0.8703
  194DOPC   C3724038   0.090   2.036  10.405  0.1149  0.0480  0.1498
  194DOPC   H7X24039   0.087   2.027  10.294  2.0534  0.8784 -0.0196
  194DOPC   H7Y24040  -0.012   2.010  10.439 -0.9903 -1.7038 -3.8773
  194DOPC   C3824041   0.127   2.168  10.473  0.5422  0.1547  0.2444
  194DOPC   H8X24042   0.222   2.202  10.428 -1.0618  1.4798 -2.4063
  194DOPC   H8Y24043   0.117   2.166  10.584 -2.1916  0.6024  0.0810
  194DOPC   C3924044   0.028   2.263  10.422  1.2981 -0.1550  0.5591
  194DOPC   H9X24045   0.054   2.310  10.326  0.2211 -0.5283  0.0695
  194DOPC  C31024046  -0.082   2.302  10.491  0.4121 -0.3582 -0.4843
  194DOPC  H10X24047  -0.152   2.374  10.445 -0.7690 -1.7058 -0.8668
  194DOPC  C31124048  -0.133   2.244  10.622  0.0931 -0.1864 -0.2288
  194DOPC  H11X24049  -0.055   2.264  10.698 -0.4225 -0.4089  0.3655
  194DOPC  H11Y24050  -0.142   2.134  10.623  0.0124 -0.2796  3.5340
  194DOPC  C31224051  -0.271   2.284  10.667  0.4154 -0.2871  0.3071
  194DOPC  H12X24052  -0.266   2.395  10.657  0.4172 -0.3346 -0.2620
  194DOPC  H12Y24053  -0.284   2.249  10.771  0.7531 -2.9969 -0.4847
  194DOPC  C31324054  -0.384   2.230  10.575 -0.4104 -0.3056 -1.0336
  194DOPC  H13X24055  -0.340   2.229  10.472  0.9670 -0.7694 -0.4680
  194DOPC  H13Y24056  -0.414   2.127  10.602 -0.2855 -0.3393 -1.0206
  194DOPC  C31424057  -0.502   2.324  10.574 -0.4544  0.1076  0.4912
  194DOPC  H14X24058  -0.542   2.316  10.678 -0.3490  0.9551  0.6055
  194DOPC  H14Y24059  -0.466   2.427  10.558  1.9677 -0.5351  1.3075
  194DOPC  C31524060  -0.596   2.277  10.466  0.4089 -0.1730 -0.2143
  194DOPC  H15X24061  -0.625   2.172  10.487 -0.4106 -0.1725 -1.2598
  194DOPC  H15Y24062  -0.549   2.285  10.366 -0.8127  0.7748 -0.7372
  194DOPC  C31624063  -0.713   2.370  10.450  0.0381  0.7322 -0.0235
  194DOPC  H16X24064  -0.774   2.371  10.543 -1.7024  1.2551 -1.1207
  194DOPC  H16Y24065  -0.681   2.476  10.442 -2.3250  1.6540  1.5963
  194DOPC  C31724066  -0.794   2.343  10.328 -0.4943  0.2326  0.0420
  194DOPC  H17X24067  -0.718   2.336  10.247 -1.0369  1.1252 -0.5550
  194DOPC  H17Y24068  -0.837   2.241  10.319 -1.8004  0.8231 -0.6813
  194DOPC  C31824069  -0.887   2.461  10.291 -0.2536 -0.1263 -0.1156
  194DOPC  H18X24070  -0.834   2.557  10.271 -0.3939  0.5029  2.2662
  194DOPC  H18Y24071  -0.950   2.438  10.202 -3.3732  2.0230  1.3697
  194DOPC  H18Z24072  -0.961   2.498  10.365 -3.0064 -1.7362 -1.8889
  195DOPC     N24073   3.757   8.366   9.771 -0.2925  0.1840  0.0816
  195DOPC   C1224074   3.804   8.233   9.828 -0.1957 -0.2922 -0.0055
  195DOPC  H12A24075   3.749   8.213   9.918 -2.1434  1.9922 -0.5718
  195DOPC  H12B24076   3.910   8.234   9.846 -0.3787 -1.2828  1.2553
  195DOPC   C1324077   3.830   8.397   9.648  0.1315  0.9841  0.4643
  195DOPC  H13A24078   3.795   8.329   9.573 -0.0974  0.6916  0.8312
  195DOPC  H13B24079   3.803   8.493   9.607 -3.7527 -1.0446 -2.3926
  195DOPC  H13C24080   3.936   8.380   9.656  0.8045  3.4978 -1.7556
  195DOPC   C1424081   3.773   8.470   9.877  0.1732  0.3225 -0.3776
  195DOPC  H14A24082   3.726   8.448   9.971  0.3976 -0.8703 -0.5210
  195DOPC  H14B24083   3.877   8.499   9.882  0.3774 -0.6090  3.7713
  195DOPC  H14C24084   3.728   8.562   9.842  0.8733  2.1665  3.1950
  195DOPC   C1524085   3.612   8.359   9.724  0.0866  0.1970  0.2713
  195DOPC  H15A24086   3.540   8.326   9.798 -1.8458 -2.4427 -2.5448
  195DOPC  H15B24087   3.605   8.287   9.644 -0.6911 -1.0993  1.4476
  195DOPC  H15C24088   3.576   8.449   9.676  1.6776 -0.8310 -3.1463
  195DOPC   C1124089   3.789   8.101   9.748 -0.0427  0.0395  0.5884
  195DOPC  H11A24090   3.831   8.117   9.646  0.3965  1.2094  0.9384
  195DOPC  H11B24091   3.855   8.028   9.798 -0.1781  0.1073  0.8668
  195DOPC     P24092   3.600   7.972   9.859  0.0572 -0.3231  0.1269
  195DOPC   O1324093   3.553   7.839   9.810  0.4759 -0.1705 -0.3278
  195DOPC   O1424094   3.487   8.049   9.907 -0.3840 -0.4023  0.3435
  195DOPC   O1224095   3.656   8.051   9.740 -0.4587  0.6592 -0.1472
  195DOPC   O1124096   3.707   7.965   9.970  0.3905 -0.2126  0.2396
  195DOPC    C124097   3.738   7.846  10.041 -0.0283  0.0644  0.5595
  195DOPC    HA24098   3.848   7.834  10.041 -0.0320 -0.2756 -1.3958
  195DOPC    HB24099   3.703   7.752   9.992 -0.2628  0.6702 -0.4539
  195DOPC    C224100   3.669   7.846  10.181 -0.8996  0.2010 -0.2861
  195DOPC    HS24101   3.716   7.763  10.238 -1.1635 -0.9330 -1.6801
  195DOPC   O2124102   3.526   7.835  10.180 -0.1446  0.0076  0.0592
  195DOPC   C2124103   3.475   7.717  10.137 -0.2262 -0.7903  0.1117
  195DOPC   O2224104   3.545   7.620  10.120  0.1862  0.2755 -0.4425
  195DOPC   C2224105   3.324   7.721  10.116  0.2507 -0.4211  0.3652
  195DOPC   H2R24106   3.317   7.769  10.016 -0.6471  0.2354  0.7226
  195DOPC   H2S24107   3.276   7.786  10.193 -1.1200 -0.6153 -0.2971
  195DOPC    C324108   3.696   7.980  10.264  0.6005 -0.0230  0.3611
  195DOPC    HX24109   3.664   7.949  10.366  0.8749 -0.8587  0.2021
  195DOPC    HY24110   3.622   8.050  10.219 -1.5059 -2.9029 -0.9594
  195DOPC   O3124111   3.834   8.010  10.275  0.3038  0.4370  0.4576
  195DOPC   C3124112   3.867   8.113  10.202 -0.9768  0.2356  0.0180
  195DOPC   O3224113   3.801   8.198  10.145  0.1353  0.0959  0.3236
  195DOPC   C3224114   4.024   8.114  10.198  0.3487  0.5620  0.0218
  195DOPC   H2X24115   4.069   8.027  10.252 -0.5455  1.0540  1.6403
  195DOPC   H2Y24116   4.048   8.098  10.091 -1.2106 -0.3890 -0.2325
  195DOPC   C2324117   3.243   7.596  10.093  0.0851 -0.2854  0.7013
  195DOPC   H3R24118   3.291   7.538  10.012  1.7365 -0.2750  1.6333
  195DOPC   H3S24119   3.141   7.622  10.058  0.3544  1.5866  1.2033
  195DOPC   C2424120   3.234   7.514  10.219 -0.0642  0.2273  0.5094
  195DOPC   H4R24121   3.292   7.559  10.303  0.5686  2.5474 -1.0660
  195DOPC   H4S24122   3.276   7.413  10.201 -0.3361  0.2916 -0.5874
  195DOPC   C2524123   3.085   7.505  10.259  0.2032 -0.1488 -0.2887
  195DOPC   H5R24124   3.017   7.492  10.173  0.7140 -2.0827 -0.4615
  195DOPC   H5S24125   3.056   7.602  10.306  4.1130  0.6422  0.9205
  195DOPC   C2624126   3.060   7.382  10.353  0.3054 -0.0180 -0.5691
  195DOPC   H6R24127   3.095   7.405  10.456  0.6757 -1.1874 -0.4244
  195DOPC   H6S24128   3.120   7.301  10.307 -1.2285 -0.5771 -1.6645
  195DOPC   C2724129   2.908   7.343  10.367 -0.0372 -0.1214 -0.2247
  195DOPC   H7R24130   2.905   7.237  10.402  1.0829  0.3846  1.5546
  195DOPC   H7S24131   2.886   7.345  10.258  0.0298 -0.5308 -0.2488
  195DOPC   C2824132   2.819   7.429  10.463  0.1726  0.5796  1.1989
  195DOPC   H8R24133   2.711   7.421  10.439  0.3398  1.8382 -0.1130
  195DOPC   H8S24134   2.833   7.536  10.438 -1.0775  0.4114 -0.3809
  195DOPC   C2924135   2.840   7.399  10.610 -0.3227 -0.2063  0.2575
  195DOPC   H9R24136   2.931   7.446  10.651 -0.2451  4.6754 -4.3597
  195DOPC  C21024137   2.754   7.329  10.686 -1.3155  0.9577  0.0291
  195DOPC  H10R24138   2.771   7.309  10.793 -2.4977 -2.2410 -0.2828
  195DOPC  C21124139   2.629   7.259  10.647  0.5269 -0.7198 -0.1999
  195DOPC  H11R24140   2.657   7.151  10.643  1.6354 -0.4060 -2.1966
  195DOPC  H11S24141   2.594   7.290  10.547  0.7855  1.3911  0.3332
  195DOPC  C21224142   2.511   7.294  10.741  0.7240  0.2657  0.3779
  195DOPC  H12R24143   2.418   7.253  10.697  0.9562  1.3905 -1.2162
  195DOPC  H12S24144   2.502   7.403  10.757 -1.2195  0.1013  0.6874
  195DOPC  C21324145   2.519   7.230  10.882 -0.6796 -0.0384 -0.0804
  195DOPC  H13R24146   2.431   7.246  10.948  0.3959  0.6188  1.2455
  195DOPC  H13S24147   2.613   7.262  10.931 -0.9359  0.1749  0.2749
  195DOPC  C21424148   2.520   7.077  10.885 -0.1695 -0.2138 -0.6687
  195DOPC  H14R24149   2.615   7.038  10.843 -1.5225 -1.0849 -3.0751
  195DOPC  H14S24150   2.436   7.034  10.828  0.2218 -1.2680 -0.4599
  195DOPC  C21524151   2.515   7.025  11.027  0.5337  0.1384  0.3165
  195DOPC  H15R24152   2.548   7.103  11.099 -0.5812  1.1842 -0.2700
  195DOPC  H15S24153   2.576   6.933  11.039  1.3592  0.7583  0.9042
  195DOPC  C21624154   2.364   6.990  11.076 -0.4904 -0.2433 -0.1437
  195DOPC  H16R24155   2.309   7.086  11.072 -1.3870 -0.5750  2.4034
  195DOPC  H16S24156   2.383   6.976  11.185  0.4462 -1.7255 -0.4668
  195DOPC  C21724157   2.287   6.876  11.010 -0.3146  0.6247  0.3465
  195DOPC  H17R24158   2.277   6.899  10.902 -1.5973 -0.0546  0.3066
  195DOPC  H17S24159   2.185   6.859  11.048 -0.5122  0.6357 -0.1670
  195DOPC  C21824160   2.365   6.740  11.012 -0.4457 -0.6393  0.0471
  195DOPC  H18R24161   2.314   6.666  10.947 -0.2751  0.7822 -1.7985
  195DOPC  H18S24162   2.356   6.703  11.117 -0.0180 -0.6199  0.0910
  195DOPC  H18T24163   2.473   6.754  10.992 -0.6542  0.5080 -0.3853
  195DOPC   C3324164   4.089   8.247  10.252  0.2364 -0.0312  0.0845
  195DOPC   H3X24165   4.051   8.330  10.188  0.5954  0.6207  0.6964
  195DOPC   H3Y24166   4.198   8.238  10.229  0.3378 -0.4502  0.7012
  195DOPC   C3424167   4.050   8.282  10.397  0.8000 -0.6195 -1.0217
  195DOPC   H4X24168   4.071   8.201  10.470  0.0045 -0.0117 -0.0921
  195DOPC   H4Y24169   3.940   8.298  10.399  0.6562 -1.4328  1.7161
  195DOPC   C3524170   4.127   8.394  10.464  0.6434 -0.1821 -0.5390
  195DOPC   H5X24171   4.138   8.476  10.390 -1.5962  0.0643 -0.6765
  195DOPC   H5Y24172   4.230   8.359  10.485 -0.0516  0.0126  4.4080
  195DOPC   C3624173   4.066   8.445  10.598 -0.1089  0.0472 -0.2793
  195DOPC   H6X24174   4.124   8.536  10.622 -0.0069 -0.0615 -0.1149
  195DOPC   H6Y24175   3.961   8.482  10.597  0.8350  2.9674 -1.6237
  195DOPC   C3724176   4.078   8.338  10.715 -0.5693 -0.3508 -1.1409
  195DOPC   H7X24177   3.978   8.294  10.733  0.6064 -3.3884 -1.5057
  195DOPC   H7Y24178   4.135   8.249  10.681  0.1356  0.6903 -2.8169
  195DOPC   C3824179   4.146   8.404  10.839  0.1096 -1.2052 -1.1035
  195DOPC   H8X24180   4.127   8.331  10.921  0.8858  1.4831  1.6821
  195DOPC   H8Y24181   4.088   8.496  10.864  0.7937 -0.0004 -3.6889
  195DOPC   C3924182   4.294   8.442  10.829 -0.3003 -0.3386  0.1284
  195DOPC   H9X24183   4.351   8.389  10.752 -1.0350  0.0209 -0.6750
  195DOPC  C31024184   4.342   8.555  10.886  0.3914  0.3735 -0.7065
  195DOPC  H10X24185   4.450   8.577  10.884  0.3194  0.6714 -2.0391
  195DOPC  C31124186   4.272   8.652  10.983 -0.2890  0.0916  0.4395
  195DOPC  H11X24187   4.329   8.673  11.076 -2.2614 -1.4109  2.1039
  195DOPC  H11Y24188   4.180   8.602  11.021 -1.1609  0.7497 -0.7562
  195DOPC  C31224189   4.233   8.784  10.919 -0.1277  0.6564  0.1141
  195DOPC  H12X24190   4.325   8.834  10.882  1.9323 -2.9031 -0.0541
  195DOPC  H12Y24191   4.179   8.843  10.995 -1.2076 -0.1231 -0.0205
  195DOPC  C31324192   4.137   8.778  10.800  0.6317 -0.3309 -0.0495
  195DOPC  H13X24193   4.178   8.721  10.714  0.3317  1.2425 -1.3009
  195DOPC  H13Y24194   4.050   8.718  10.835  1.8759 -0.5872  2.8213
  195DOPC  C31424195   4.079   8.922  10.765 -0.7638  0.0551  0.3095
  195DOPC  H14X24196   4.052   8.965  10.864  0.3053  1.1812  0.1284
  195DOPC  H14Y24197   4.173   8.969  10.731 -2.9995  4.2674 -0.7407
  195DOPC  C31524198   3.980   8.920  10.651 -0.0192 -0.6667 -0.5626
  195DOPC  H15X24199   3.882   8.886  10.691  1.0901 -3.9856 -0.3098
  195DOPC  H15Y24200   4.016   8.841  10.582 -0.4400 -0.8780 -0.5437
  195DOPC  C31624201   3.949   9.052  10.578 -0.5168  0.1669  0.4797
  195DOPC  H16X24202   3.892   9.120  10.644 -2.7640  1.1159 -2.2591
  195DOPC  H16Y24203   4.049   9.094  10.553 -0.0152  0.1592  2.3135
  195DOPC  C31724204   3.871   9.047  10.453  0.0881 -0.0915  0.1838
  195DOPC  H17X24205   3.911   8.969  10.385 -0.3325 -1.1567  1.1282
  195DOPC  H17Y24206   3.771   9.016  10.492  0.4892  0.2968  1.6001
  195DOPC  C31824207   3.853   9.183  10.380 -0.6470  0.5874 -0.0151
  195DOPC  H18X24208   3.768   9.237  10.426 -0.2923  0.3259  0.9756
  195DOPC  H18Y24209   3.952   9.234  10.381  1.7131 -3.4803  0.9332
  195DOPC  H18Z24210   3.836   9.161  10.272  0.8932  0.6789 -0.3051
  196DOPC     N24211   7.211   2.827   9.338 -0.2993  0.0482 -0.0829
  196DOPC   C1224212   7.335   2.764   9.278  0.3154 -0.0115  0.3547
  196DOPC  H12A24213   7.394   2.841   9.231 -1.2425  0.9504 -0.1277
  196DOPC  H12B24214   7.306   2.694   9.200 -0.5587 -0.5556  1.1438
  196DOPC   C1324215   7.131   2.713   9.379  0.6680 -0.3057 -0.3636
  196DOPC  H13A24216   7.039   2.747   9.425  0.4348 -4.0754  2.4414
  196DOPC  H13B24217   7.102   2.646   9.300 -0.2426 -0.2355 -0.1118
  196DOPC  H13C24218   7.191   2.663   9.454  2.1829 -0.0244 -1.3606
  196DOPC   C1424219   7.127   2.900   9.234 -0.0655  0.7521  0.1024
  196DOPC  H14A24220   7.083   2.832   9.162  1.0468  1.0501 -0.8976
  196DOPC  H14B24221   7.034   2.940   9.271  1.1523  3.1442  0.7706
  196DOPC  H14C24222   7.192   2.956   9.170  1.0066 -0.7540 -0.1938
  196DOPC   C1524223   7.239   2.915   9.453  0.4149  0.2308 -0.0325
  196DOPC  H15A24224   7.147   2.961   9.488  1.1346  0.6346  1.4059
  196DOPC  H15B24225   7.294   3.000   9.416 -0.8897  0.2266 -2.1638
  196DOPC  H15C24226   7.291   2.866   9.534  1.7947  1.0273 -0.3923
  196DOPC   C1124227   7.429   2.695   9.370 -0.1711  0.0712  0.0325
  196DOPC  H11A24228   7.501   2.653   9.295 -0.3587  0.6866 -0.4981
  196DOPC  H11B24229   7.486   2.767   9.432  2.5380 -1.7235 -0.1808
  196DOPC     P24230   7.395   2.445   9.442  0.2875  0.0423  0.1360
  196DOPC   O1324231   7.542   2.420   9.420  0.2560  0.1955  0.2979
  196DOPC   O1424232   7.299   2.404   9.335 -0.7411  0.1507  0.3472
  196DOPC   O1224233   7.373   2.600   9.460 -0.3471 -0.7352  0.3941
  196DOPC   O1124234   7.350   2.378   9.573 -0.1208 -0.6768 -0.2232
  196DOPC    C124235   7.409   2.419   9.700 -0.2209  0.7461 -0.4303
  196DOPC    HA24236   7.483   2.500   9.687  0.1420  0.2833 -1.3270
  196DOPC    HB24237   7.465   2.335   9.746 -2.0808 -0.6619 -0.6124
  196DOPC    C224238   7.309   2.469   9.812  0.1880  0.0142  0.4549
  196DOPC    HS24239   7.368   2.526   9.887  0.2952  1.4193 -0.6432
  196DOPC   O2124240   7.218   2.365   9.871 -0.1286 -0.0363  0.3296
  196DOPC   C2124241   7.281   2.283   9.952  0.0042 -0.5222 -0.2236
  196DOPC   O2224242   7.400   2.293   9.981 -0.3687  0.1913  0.8870
  196DOPC   C2224243   7.181   2.190  10.021  0.5688 -0.2549  0.1361
  196DOPC   H2R24244   7.234   2.127  10.096  1.2250  0.4275  0.2594
  196DOPC   H2S24245   7.132   2.121   9.949  0.2970 -0.4525  0.5106
  196DOPC    C324246   7.216   2.582   9.748 -0.0372  0.1608 -0.5447
  196DOPC    HX24247   7.160   2.521   9.674 -0.7749  1.4944 -1.1072
  196DOPC    HY24248   7.276   2.662   9.700  2.8749 -0.7393  1.2776
  196DOPC   O3124249   7.131   2.635   9.854  0.7080 -0.7064 -0.1601
  196DOPC   C3124250   7.083   2.759   9.834 -0.3522 -0.5537 -0.1965
  196DOPC   O3224251   7.096   2.835   9.738 -0.5308 -0.5590 -0.5952
  196DOPC   C3224252   6.984   2.788   9.954 -0.0741  0.2851 -0.2302
  196DOPC   H2X24253   6.882   2.799   9.911 -1.0791 -1.5231  1.5138
  196DOPC   H2Y24254   6.996   2.710  10.033  2.2777  1.6151  0.8612
  196DOPC   C2324255   7.070   2.264  10.105  0.2348 -0.6701 -0.1323
  196DOPC   H3R24256   7.013   2.186  10.159 -3.3555  2.0352  0.4084
  196DOPC   H3S24257   7.002   2.322  10.039 -0.9523 -0.9664  0.7999
  196DOPC   C2424258   7.121   2.357  10.220  0.1217  0.7876 -0.6414
  196DOPC   H4R24259   7.025   2.410  10.240 -0.7425 -0.5326 -1.1230
  196DOPC   H4S24260   7.185   2.434  10.173 -0.9082  1.9015 -0.2574
  196DOPC   C2524261   7.193   2.287  10.328  0.5609  0.1155  0.2369
  196DOPC   H5R24262   7.294   2.264  10.289  0.5756 -1.4373  1.1189
  196DOPC   H5S24263   7.142   2.191  10.352  1.8315 -0.4981  0.5879
  196DOPC   C2624264   7.199   2.365  10.455  0.1636 -0.2378  0.1212
  196DOPC   H6R24265   7.097   2.370  10.501 -0.9135 -2.0827 -1.9071
  196DOPC   H6S24266   7.231   2.468  10.426 -1.6919  0.1430 -0.7793
  196DOPC   C2724267   7.300   2.312  10.559  0.2032 -0.3265 -0.4867
  196DOPC   H7R24268   7.402   2.326  10.519  0.5659  0.0287  0.5186
  196DOPC   H7S24269   7.288   2.203  10.576 -0.2128 -0.2072  0.0255
  196DOPC   C2824270   7.274   2.394  10.691  0.2422 -0.0967  1.0992
  196DOPC   H8R24271   7.166   2.404  10.712 -0.0088  0.0112 -0.1868
  196DOPC   H8S24272   7.321   2.492  10.666  1.4096 -0.5608  1.4032
  196DOPC   C2924273   7.358   2.332  10.799 -0.0491  0.4656  0.2787
  196DOPC   H9R24274   7.417   2.243  10.773 -1.6503  0.0997 -2.4670
  196DOPC  C21024275   7.350   2.366  10.925  0.4237  0.1832 -0.8747
  196DOPC  H10R24276   7.387   2.293  10.999  0.6182 -0.1589 -1.3047
  196DOPC  C21124277   7.248   2.464  10.981 -0.0465 -0.5373 -0.1453
  196DOPC  H11R24278   7.225   2.545  10.909  1.0059 -0.2190 -0.1401
  196DOPC  H11S24279   7.294   2.524  11.063  2.4041 -1.1683 -0.9550
  196DOPC  C21224280   7.122   2.401  11.034  0.7851  0.6751  0.0805
  196DOPC  H12R24281   7.145   2.311  11.096 -1.6762 -0.7980 -1.0176
  196DOPC  H12S24282   7.063   2.361  10.949  0.8197 -2.0646  1.2303
  196DOPC  C21324283   7.029   2.480  11.136 -0.0972  0.6804 -0.3615
  196DOPC  H13R24284   6.982   2.557  11.071  1.8893  1.3607 -1.0815
  196DOPC  H13S24285   7.089   2.535  11.213 -2.2059  0.9622  1.1643
  196DOPC  C21424286   6.921   2.394  11.208 -0.5154  0.0958 -0.6088
  196DOPC  H14R24287   6.984   2.346  11.286  0.6724  1.3541 -0.7643
  196DOPC  H14S24288   6.877   2.317  11.141 -0.2753 -0.5305 -0.0586
  196DOPC  C21524289   6.808   2.471  11.280 -0.2998 -0.0075  0.1998
  196DOPC  H15R24290   6.730   2.501  11.207  1.2141  3.4711 -0.1781
  196DOPC  H15S24291   6.849   2.565  11.320  1.7201 -0.0157 -1.6330
  196DOPC  C21624292   6.740   2.392  11.396 -0.1098 -0.0689 -0.0395
  196DOPC  H16R24293   6.651   2.454  11.422  1.3873  1.9000  0.6939
  196DOPC  H16S24294   6.807   2.380  11.484 -0.6404 -1.7710  0.1665
  196DOPC  C21724295   6.688   2.247  11.355  0.1084 -0.3831 -0.0302
  196DOPC  H17R24296   6.775   2.178  11.343 -0.3802 -1.4378  2.0243
  196DOPC  H17S24297   6.644   2.266  11.255 -0.1998  0.0875  0.1921
  196DOPC  C21824298   6.592   2.198  11.459 -0.1754  0.3592 -1.0549
  196DOPC  H18R24299   6.554   2.097  11.432 -0.3299 -0.3409  1.5241
  196DOPC  H18S24300   6.503   2.263  11.474 -0.2851  0.3226 -1.5241
  196DOPC  H18T24301   6.646   2.190  11.556 -3.1984 -0.6667  0.6879
  196DOPC   C3324302   7.019   2.919  10.028  0.2480  0.6141 -0.4471
  196DOPC   H3X24303   6.995   3.008   9.967 -0.4962 -0.4313 -1.7415
  196DOPC   H3Y24304   7.130   2.922  10.040  0.3942  0.0724 -1.5777
  196DOPC   C3424305   6.942   2.926  10.155 -0.2367  0.6730 -0.0667
  196DOPC   H4X24306   6.978   2.844  10.221  1.5619  0.6440 -1.0276
  196DOPC   H4Y24307   6.839   2.898  10.124  0.7187 -1.1891 -1.8106
  196DOPC   C3524308   6.946   3.069  10.210 -0.2593  0.4080  0.0002
  196DOPC   H5X24309   6.892   3.135  10.139 -1.7146 -1.2231 -0.4898
  196DOPC   H5Y24310   7.048   3.111  10.218 -1.1946  2.4705  2.7408
  196DOPC   C3624311   6.889   3.076  10.357  0.2676 -0.1040  0.3072
  196DOPC   H6X24312   6.944   3.001  10.418  0.3256  0.1393  0.5529
  196DOPC   H6Y24313   6.905   3.176  10.401 -0.4879  1.0269 -1.8633
  196DOPC   C3724314   6.737   3.051  10.371 -0.3689 -0.3173  0.1518
  196DOPC   H7X24315   6.676   3.142  10.347 -0.6366 -0.4252  0.4227
  196DOPC   H7Y24316   6.719   2.970  10.297 -1.7709  1.3363 -1.4143
  196DOPC   C3824317   6.696   3.006  10.513  0.3065  0.4332  0.5845
  196DOPC   H8X24318   6.709   3.086  10.589 -0.3635  1.4386 -0.3402
  196DOPC   H8Y24319   6.767   2.925  10.540  2.5070  2.1427  0.2258
  196DOPC   C3924320   6.555   2.965  10.519 -0.2813  0.5443  0.1738
  196DOPC   H9X24321   6.505   2.960  10.421 -1.0619 -0.2857  0.6036
  196DOPC  C31024322   6.480   2.945  10.636 -0.7667  0.1650  0.0153
  196DOPC  H10X24323   6.386   2.889  10.626 -0.0009 -0.8642 -2.0776
  196DOPC  C31124324   6.524   2.985  10.780  0.9125 -0.3716  0.2561
  196DOPC  H11X24325   6.441   3.039  10.831  0.9987 -0.7897  0.8588
  196DOPC  H11Y24326   6.616   3.046  10.799 -0.6796  2.2722 -0.0530
  196DOPC  C31224327   6.526   2.857  10.867  0.7322 -0.1569 -0.6575
  196DOPC  H12X24328   6.621   2.803  10.845  1.5065  0.6749  0.5102
  196DOPC  H12Y24329   6.435   2.801  10.836  0.2892  0.5936 -0.7404
  196DOPC  C31324330   6.511   2.870  11.024 -0.4209 -0.4907  0.0667
  196DOPC  H13X24331   6.595   2.938  11.051  0.0061 -0.6902 -0.7503
  196DOPC  H13Y24332   6.412   2.916  11.047  0.5556  1.5865  0.3877
  196DOPC  C31424333   6.528   2.734  11.092  0.2320 -0.1979  0.1672
  196DOPC  H14X24334   6.445   2.665  11.068  0.1868  0.2288 -0.9838
  196DOPC  H14Y24335   6.627   2.696  11.058  0.7851 -0.6813  2.2266
  196DOPC  C31524336   6.548   2.756  11.237  0.6148 -0.2511 -0.4099
  196DOPC  H15X24337   6.589   2.855  11.265  0.5140 -0.1109 -0.7470
  196DOPC  H15Y24338   6.607   2.675  11.285  1.5652  1.0621  0.7220
  196DOPC  C31624339   6.410   2.770  11.305 -0.1635  0.2260 -0.2021
  196DOPC  H16X24340   6.373   2.875  11.302  1.2402  0.8156  1.6291
  196DOPC  H16Y24341   6.347   2.696  11.250  0.9082 -1.5131  0.8087
  196DOPC  C31724342   6.411   2.719  11.453 -0.1799 -0.4605 -0.3076
  196DOPC  H17X24343   6.423   2.608  11.450 -2.1197 -0.7520  0.9789
  196DOPC  H17Y24344   6.492   2.764  11.516 -0.4727  0.8910 -0.8703
  196DOPC  C31824345   6.279   2.743  11.530  0.6999 -0.7147  0.1298
  196DOPC  H18X24346   6.278   2.852  11.551  0.6400 -1.0429  1.9620
  196DOPC  H18Y24347   6.187   2.720  11.471 -0.2891  0.5083  1.1556
  196DOPC  H18Z24348   6.287   2.689  11.627  1.8455 -1.8759 -0.5725
  197DOPC     N24349   1.645   1.699   9.285 -0.6415  0.4939  0.3684
  197DOPC   C1224350   1.616   1.663   9.428  0.0087 -0.1459  0.3906
  197DOPC  H12A24351   1.657   1.567   9.458 -1.0853 -1.1127 -1.0291
  197DOPC  H12B24352   1.509   1.647   9.431 -0.1042  0.6176  0.4758
  197DOPC   C1324353   1.588   1.835   9.272 -0.6392 -0.8740  0.4463
  197DOPC  H13A24354   1.487   1.842   9.309 -1.0545 -0.0856 -0.7912
  197DOPC  H13B24355   1.652   1.894   9.337 -0.3087  1.3932 -1.7703
  197DOPC  H13C24356   1.594   1.879   9.174 -0.4613  0.0398  0.8494
  197DOPC   C1424357   1.579   1.598   9.195 -0.1662 -0.3352  0.2903
  197DOPC  H14A24358   1.472   1.610   9.197 -0.0776  0.9964 -1.0797
  197DOPC  H14B24359   1.597   1.627   9.093 -3.6167  2.5521  0.2978
  197DOPC  H14C24360   1.620   1.498   9.196  1.5433  0.3098  2.6450
  197DOPC   C1524361   1.794   1.686   9.250 -0.5271 -0.2821  0.0762
  197DOPC  H15A24362   1.802   1.701   9.143 -3.6152 -0.5673 -0.2774
  197DOPC  H15B24363   1.836   1.591   9.277 -0.5779  0.3190  2.5220
  197DOPC  H15C24364   1.850   1.762   9.303 -1.0012 -0.7965  1.3551
  197DOPC   C1124365   1.645   1.763   9.541  0.3445 -0.5472  0.4273
  197DOPC  H11A24366   1.602   1.861   9.512 -0.0019 -0.8525 -0.1097
  197DOPC  H11B24367   1.588   1.730   9.631 -3.3514  1.7158 -0.8727
  197DOPC     P24368   1.879   1.670   9.621 -0.0901 -0.5457 -0.1540
  197DOPC   O1324369   2.011   1.674   9.558 -0.3459  0.6799  0.1489
  197DOPC   O1424370   1.812   1.545   9.618 -0.2873 -0.2083 -0.2748
  197DOPC   O1224371   1.779   1.775   9.559 -0.1084 -0.4379  0.0495
  197DOPC   O1124372   1.888   1.720   9.772  0.5732 -0.2400 -0.2307
  197DOPC    C124373   1.817   1.664   9.882  0.2272  1.1035  0.3827
  197DOPC    HA24374   1.741   1.590   9.851  0.7934 -0.1170  1.7782
  197DOPC    HB24375   1.766   1.738   9.947  1.4039  1.9676  0.3587
  197DOPC    C224376   1.915   1.584   9.969  0.2463 -0.2332  0.1890
  197DOPC    HS24377   1.848   1.540  10.046 -1.7271 -1.3469 -2.0143
  197DOPC   O2124378   2.020   1.666  10.021 -0.3606 -0.1539 -0.5127
  197DOPC   C2124379   1.973   1.745  10.118  0.9642 -0.1311 -1.0081
  197DOPC   O2224380   1.859   1.737  10.164 -0.8879 -0.1391 -0.1110
  197DOPC   C2224381   2.083   1.822  10.188  0.0324  0.6625  0.0455
  197DOPC   H2R24382   2.054   1.872  10.283  2.5115 -0.2423  1.3718
  197DOPC   H2S24383   2.112   1.902  10.116  2.5007 -1.5310 -1.5378
  197DOPC    C324384   1.984   1.463   9.899 -0.7533  0.1436  0.1639
  197DOPC    HX24385   2.053   1.510   9.825 -1.2752 -0.7494 -0.9368
  197DOPC    HY24386   1.907   1.403   9.845  0.3531 -0.5143 -0.7386
  197DOPC   O3124387   2.051   1.380  10.002  0.2183  0.2571 -0.6046
  197DOPC   C3124388   2.088   1.264   9.966 -0.3786  0.0785  0.5275
  197DOPC   O3224389   2.095   1.229   9.850  0.5761 -0.4869  0.5870
  197DOPC   C3224390   2.127   1.172  10.086 -0.2751 -0.0421  0.4453
  197DOPC   H2X24391   2.031   1.159  10.141 -0.9024 -1.1380 -0.8410
  197DOPC   H2Y24392   2.147   1.067  10.057 -0.1642  0.1056 -0.0345
  197DOPC   C2324393   2.198   1.721  10.229  0.1833  0.6257 -0.7424
  197DOPC   H3R24394   2.221   1.657  10.141  0.5490 -2.9761  1.7390
  197DOPC   H3S24395   2.151   1.660  10.309 -1.7632  2.0228 -0.7747
  197DOPC   C2424396   2.326   1.785  10.276  0.5691 -0.6278  0.0305
  197DOPC   H4R24397   2.297   1.866  10.346  0.6612  1.2081 -1.9275
  197DOPC   H4S24398   2.372   1.840  10.191  1.6500  2.3351  2.3673
  197DOPC   C2524399   2.423   1.679  10.333  0.3763 -0.4979  0.3824
  197DOPC   H5R24400   2.427   1.599  10.256 -1.1141  0.1009 -0.3529
  197DOPC   H5S24401   2.378   1.628  10.421  0.4431 -2.3733 -0.6225
  197DOPC   C2624402   2.568   1.729  10.355 -0.4584 -0.1289 -0.6127
  197DOPC   H6R24403   2.595   1.778  10.258 -2.2726 -0.1853 -1.1801
  197DOPC   H6S24404   2.627   1.638  10.377 -1.4164 -0.7310 -0.4940
  197DOPC   C2724405   2.569   1.836  10.467 -0.5483  0.1051  0.4499
  197DOPC   H7R24406   2.544   1.937  10.429  1.5452  1.0617  1.4104
  197DOPC   H7S24407   2.673   1.860  10.498  0.2551 -2.1856 -0.2159
  197DOPC   C2824408   2.498   1.789  10.594  0.7505 -0.5830  0.3552
  197DOPC   H8R24409   2.497   1.679  10.608 -0.5056 -0.6620 -0.2876
  197DOPC   H8S24410   2.389   1.806  10.580  0.2484 -3.2129  0.6116
  197DOPC   C2924411   2.540   1.867  10.713 -0.3329  0.2629 -0.1048
  197DOPC   H9R24412   2.504   1.970  10.728  0.3371  0.6811 -1.2351
  197DOPC  C21024413   2.625   1.829  10.807  0.5128 -0.2328 -0.9337
  197DOPC  H10R24414   2.652   1.897  10.889 -0.7264  0.1433 -0.8257
  197DOPC  C21124415   2.708   1.708  10.795  0.0379  0.0220 -1.1800
  197DOPC  H11R24416   2.813   1.745  10.804 -0.3011  1.0816 -1.4614
  197DOPC  H11S24417   2.704   1.653  10.699  3.8743 -3.2969  0.2628
  197DOPC  C21224418   2.673   1.599  10.895 -0.1771  0.1050  0.1519
  197DOPC  H12R24419   2.740   1.513  10.873 -0.7105 -0.3818  0.4253
  197DOPC  H12S24420   2.566   1.572  10.885 -0.3178  0.6679  0.0886
  197DOPC  C21324421   2.697   1.649  11.036 -0.6426 -0.0839  0.1256
  197DOPC  H13R24422   2.628   1.734  11.055 -0.5441 -0.0022  0.1195
  197DOPC  H13S24423   2.804   1.679  11.050 -1.0595  2.4104 -1.3105
  197DOPC  C21424424   2.675   1.534  11.130  0.4604  0.0456 -0.3194
  197DOPC  H14R24425   2.710   1.567  11.230 -0.2371  0.1445 -0.1048
  197DOPC  H14S24426   2.739   1.451  11.093  0.3030  0.1018 -0.7235
  197DOPC  C21524427   2.528   1.490  11.139  0.0482  0.6423 -0.2393
  197DOPC  H15R24428   2.495   1.450  11.041 -0.5206 -0.0691  0.2280
  197DOPC  H15S24429   2.464   1.579  11.154 -2.3825 -0.7173 -1.8212
  197DOPC  C21624430   2.501   1.381  11.243 -0.2190  0.3312 -0.4231
  197DOPC  H16R24431   2.396   1.345  11.242  0.1444 -0.8322  0.4470
  197DOPC  H16S24432   2.521   1.426  11.343 -0.5335 -0.0990 -0.1593
  197DOPC  C21724433   2.592   1.260  11.236 -0.2686 -0.8686  0.5230
  197DOPC  H17R24434   2.698   1.293  11.247  0.5662 -2.9750 -0.5553
  197DOPC  H17S24435   2.579   1.214  11.136 -1.9055 -0.3900  0.4912
  197DOPC  C21824436   2.573   1.151  11.338  0.0110 -0.0667  1.3221
  197DOPC  H18R24437   2.651   1.075  11.322 -0.7791 -1.1919  2.6030
  197DOPC  H18S24438   2.468   1.116  11.326 -0.5074  1.4053  1.2501
  197DOPC  H18T24439   2.584   1.187  11.442 -1.6730 -0.0005  1.5017
  197DOPC   C3324440   2.227   1.234  10.185 -0.5229 -0.3362 -0.2345
  197DOPC   H3X24441   2.312   1.280  10.131  0.8275 -3.6017 -1.1218
  197DOPC   H3Y24442   2.263   1.148  10.245  0.8715  1.2975  1.3621
  197DOPC   C3424443   2.171   1.334  10.289 -0.0598 -0.4724  0.3841
  197DOPC   H4X24444   2.073   1.304  10.330 -0.8640  1.9646  0.4077
  197DOPC   H4Y24445   2.148   1.429  10.235  1.9953 -0.7434 -1.0945
  197DOPC   C3524446   2.270   1.365  10.404 -0.3529  0.1198  0.0880
  197DOPC   H5X24447   2.349   1.432  10.365 -0.0167  0.1156  0.7452
  197DOPC   H5Y24448   2.328   1.275  10.432 -0.2832 -0.7059 -2.4776
  197DOPC   C3624449   2.210   1.424  10.533  0.0842 -0.6477  0.8042
  197DOPC   H6X24450   2.172   1.525  10.507 -1.5949 -0.9891  1.7994
  197DOPC   H6Y24451   2.125   1.359  10.562 -0.8900  1.1189  2.1119
  197DOPC   C3724452   2.305   1.425  10.648  0.3993 -0.6756  0.0596
  197DOPC   H7X24453   2.323   1.321  10.683 -1.8354 -0.5598  1.7214
  197DOPC   H7Y24454   2.401   1.470  10.616 -0.1151  0.4327  0.0485
  197DOPC   C3824455   2.267   1.529  10.756  0.1072  0.4702 -0.6391
  197DOPC   H8X24456   2.247   1.634  10.724 -3.1010 -0.3390 -1.6388
  197DOPC   H8Y24457   2.346   1.525  10.833 -0.5627  1.0838  0.0942
  197DOPC   C3924458   2.130   1.486  10.814 -0.4858 -0.4361  0.5087
  197DOPC   H9X24459   2.044   1.488  10.744 -0.6552 -2.2740  0.6107
  197DOPC  C31024460   2.093   1.459  10.943 -0.3114 -0.4907  0.2244
  197DOPC  H10X24461   1.996   1.415  10.969 -0.3980  0.2523  1.2461
  197DOPC  C31124462   2.172   1.445  11.066 -0.8527  0.0403 -0.8924
  197DOPC  H11X24463   2.278   1.468  11.041 -1.2435  0.4452 -2.2551
  197DOPC  H11Y24464   2.156   1.338  11.092 -3.8985  0.1584 -1.9031
  197DOPC  C31224465   2.121   1.533  11.186 -0.3245  0.0253 -0.7363
  197DOPC  H12X24466   2.101   1.633  11.142 -0.1601 -0.4896 -2.0370
  197DOPC  H12Y24467   2.197   1.525  11.267  0.0489 -0.2342 -1.1018
  197DOPC  C31324468   1.987   1.482  11.245  0.2671  0.6526 -0.1464
  197DOPC  H13X24469   1.909   1.478  11.165 -1.5149  0.5743  1.5219
  197DOPC  H13Y24470   1.995   1.387  11.301  0.3281  1.5806  1.4675
  197DOPC  C31424471   1.936   1.587  11.347  0.3825 -0.2337 -0.2390
  197DOPC  H14X24472   1.848   1.542  11.397  0.0923  0.6623  0.0713
  197DOPC  H14Y24473   2.013   1.614  11.422  0.7186 -3.7261  0.8282
  197DOPC  C31524474   1.884   1.719  11.282  0.4091  1.0389  0.0575
  197DOPC  H15X24475   1.832   1.699  11.185  2.1559 -0.4566 -0.6308
  197DOPC  H15Y24476   1.973   1.779  11.250  0.9134  1.3847  2.0223
  197DOPC  C31624477   1.805   1.819  11.368  0.1242  0.3197  0.4497
  197DOPC  H16X24478   1.710   1.772  11.402 -0.3892  1.4173  0.5543
  197DOPC  H16Y24479   1.856   1.846  11.463 -0.2787  2.1118  0.1827
  197DOPC  C31724480   1.771   1.941  11.283 -0.1398 -0.0259  0.2794
  197DOPC  H17X24481   1.868   1.994  11.271 -0.3312  0.7496  1.9141
  197DOPC  H17Y24482   1.751   1.915  11.176  0.4782  0.0778  0.1360
  197DOPC  C31824483   1.675   2.043  11.346  0.1297  0.4691 -0.1706
  197DOPC  H18X24484   1.583   2.061  11.286 -0.6180 -1.0512  0.4578
  197DOPC  H18Y24485   1.650   2.008  11.448 -0.6107 -1.8064 -1.0706
  197DOPC  H18Z24486   1.728   2.139  11.365  1.1459 -0.2988  0.9724
  198DOPC     N24487   6.504   0.699   9.788 -0.1726 -0.6488 -0.3958
  198DOPC   C1224488   6.373   0.621   9.782 -0.0903  0.5039  0.2717
  198DOPC  H12A24489   6.338   0.602   9.882  0.1349 -0.1818  0.2238
  198DOPC  H12B24490   6.393   0.524   9.739  1.1051 -0.1182  2.1253
  198DOPC   C1324491   6.485   0.836   9.858  0.3419  0.3697 -0.4149
  198DOPC  H13A24492   6.578   0.889   9.846  1.4048 -1.1530  0.5888
  198DOPC  H13B24493   6.396   0.888   9.827  0.4784  0.4401 -0.6931
  198DOPC  H13C24494   6.465   0.828   9.964 -0.0453  0.4441 -0.4799
  198DOPC   C1424495   6.551   0.720   9.648  0.6201  0.4600  0.2628
  198DOPC  H14A24496   6.637   0.782   9.628  1.3975 -0.8440 -0.5614
  198DOPC  H14B24497   6.567   0.620   9.611 -0.5832  1.0186 -1.9445
  198DOPC  H14C24498   6.470   0.760   9.589  0.0182  0.4821  1.0788
  198DOPC   C1524499   6.600   0.620   9.866 -0.4766 -0.1449 -0.0104
  198DOPC  H15A24500   6.567   0.599   9.966 -0.4651 -0.2706 -0.0317
  198DOPC  H15B24501   6.692   0.675   9.877  0.6972 -2.5117  4.0112
  198DOPC  H15C24502   6.636   0.529   9.819 -2.2461 -0.3145 -1.1655
  198DOPC   C1124503   6.243   0.686   9.713 -0.2987 -0.2713  0.4297
  198DOPC  H11A24504   6.267   0.689   9.604  1.1224 -0.8714  0.7046
  198DOPC  H11B24505   6.155   0.623   9.733 -1.6783  1.3485 -0.2471
  198DOPC     P24506   6.092   0.903   9.709  0.1835 -0.1394  0.1724
  198DOPC   O1324507   6.009   0.818   9.622  0.4950  0.2544  0.2403
  198DOPC   O1424508   6.133   1.038   9.662  0.4784 -0.3779  0.0564
  198DOPC   O1224509   6.224   0.822   9.765 -0.0382  0.1181  0.0672
  198DOPC   O1124510   5.999   0.925   9.832 -0.3406  0.3413  0.6361
  198DOPC    C124511   6.016   0.860   9.955  0.0928 -0.4725  0.2968
  198DOPC    HA24512   6.103   0.792   9.943  2.0796  1.4489  2.5699
  198DOPC    HB24513   5.930   0.797   9.983  1.7011 -2.5921  0.6933
  198DOPC    C224514   6.061   0.955  10.074  0.0627 -0.5851 -0.2746
  198DOPC    HS24515   6.131   0.901  10.142 -0.5469 -0.0919  0.7718
  198DOPC   O2124516   5.938   1.001  10.139  0.2856  0.2579  0.0374
  198DOPC   C2124517   5.920   0.943  10.262  0.3921  0.3838  0.5243
  198DOPC   O2224518   5.965   0.835  10.288 -0.7110  0.2624  0.3862
  198DOPC   C2224519   5.859   1.043  10.355 -0.4546 -0.4437 -0.2922
  198DOPC   H2R24520   5.762   1.075  10.312  0.3461 -2.2076 -3.7571
  198DOPC   H2S24521   5.931   1.128  10.360  1.1114 -1.5159 -2.6797
  198DOPC    C324522   6.149   1.068  10.019 -0.7459  0.0293  0.3091
  198DOPC    HX24523   6.073   1.122   9.958  0.2418 -0.1327 -1.1050
  198DOPC    HY24524   6.231   1.032   9.953 -0.1798  0.4932  0.7460
  198DOPC   O3124525   6.183   1.151  10.128 -0.3561 -0.5984  0.0939
  198DOPC   C3124526   6.310   1.170  10.155 -0.4547  0.4152 -0.3377
  198DOPC   O3224527   6.406   1.131  10.088 -0.5641  0.4943 -0.3575
  198DOPC   C3224528   6.320   1.249  10.285  0.3102  0.0765 -0.4702
  198DOPC   H2X24529   6.430   1.264  10.295  0.6546 -2.2249 -0.3801
  198DOPC   H2Y24530   6.259   1.342  10.280  0.3978  0.1111 -0.9235
  198DOPC   C2324531   5.836   0.976  10.492 -0.4013  0.3522  0.6720
  198DOPC   H3R24532   5.938   0.969  10.537  0.8225  1.6929 -1.7066
  198DOPC   H3S24533   5.782   0.880  10.480 -2.4159  1.6625 -1.6716
  198DOPC   C2424534   5.757   1.063  10.589 -0.5762 -0.0979 -0.9124
  198DOPC   H4R24535   5.653   1.078  10.553 -0.0327  2.1234 -1.7243
  198DOPC   H4S24536   5.805   1.161  10.609  2.2968 -1.7335  0.8246
  198DOPC   C2524537   5.758   0.985  10.726  0.4538  0.5030  0.2333
  198DOPC   H5R24538   5.858   0.944  10.751  0.7839  1.5226  0.6698
  198DOPC   H5S24539   5.691   0.897  10.721  1.3276 -0.1469 -0.1099
  198DOPC   C2624540   5.722   1.080  10.839 -0.2439  0.1253  0.1882
  198DOPC   H6R24541   5.622   1.116  10.809 -0.1328 -0.3112 -0.7746
  198DOPC   H6S24542   5.777   1.176  10.831  1.7160 -0.8822  0.8380
  198DOPC   C2724543   5.711   1.016  10.975 -0.2940 -0.4908  0.6354
  198DOPC   H7R24544   5.802   0.957  10.997  1.9719  1.9002 -1.5693
  198DOPC   H7S24545   5.618   0.955  10.980 -1.3878  1.1073  0.6433
  198DOPC   C2824546   5.687   1.126  11.086 -0.4687  0.7491 -0.1053
  198DOPC   H8R24547   5.586   1.171  11.073 -0.0014  1.8342 -0.0307
  198DOPC   H8S24548   5.756   1.210  11.064 -0.8374  0.9409 -0.5341
  198DOPC   C2924549   5.706   1.071  11.224  0.2899  0.2082 -1.3098
  198DOPC   H9R24550   5.786   0.996  11.233  0.1545  0.0752 -1.2086
  198DOPC  C21024551   5.637   1.118  11.332 -0.0919  0.0343  0.8336
  198DOPC  H10R24552   5.656   1.063  11.426  4.2435 -0.7888 -0.2660
  198DOPC  C21124553   5.531   1.226  11.332  0.5759 -0.3270  0.2924
  198DOPC  H11R24554   5.516   1.274  11.233 -2.3058 -2.4029 -0.4212
  198DOPC  H11S24555   5.573   1.312  11.388 -0.0374 -0.4486  0.9424
  198DOPC  C21224556   5.389   1.198  11.387  0.3108 -0.1415 -0.5110
  198DOPC  H12R24557   5.395   1.158  11.491  0.8088  0.9857 -0.0894
  198DOPC  H12S24558   5.345   1.104  11.347 -1.1167  0.0269  0.5798
  198DOPC  C21324559   5.304   1.321  11.404  0.0780  0.8831  0.3442
  198DOPC  H13R24560   5.240   1.327  11.313 -0.8485 -1.1261  0.7999
  198DOPC  H13S24561   5.368   1.411  11.389  0.6680  0.3791 -0.2264
  198DOPC  C21424562   5.233   1.344  11.535 -0.0372  0.4998  0.6290
  198DOPC  H14R24563   5.189   1.445  11.543  1.2516  1.2082 -0.7140
  198DOPC  H14S24564   5.311   1.321  11.611 -0.8297 -0.5579  1.1495
  198DOPC  C21524565   5.129   1.225  11.569 -0.8511 -0.1510  0.2328
  198DOPC  H15R24566   5.158   1.124  11.534 -0.2299  0.7963 -2.1505
  198DOPC  H15S24567   5.038   1.245  11.509 -0.4055 -1.7926 -1.0535
  198DOPC  C21624568   5.101   1.225  11.721 -0.0203  0.5971 -0.1948
  198DOPC  H16R24569   5.202   1.230  11.768  0.9039  1.0288 -2.1202
  198DOPC  H16S24570   5.048   1.134  11.754 -2.1599  0.7870 -2.7383
  198DOPC  C21724571   5.035   1.356  11.776  0.0922 -0.5235  0.0359
  198DOPC  H17R24572   4.939   1.372  11.723  2.0284 -0.1129 -3.6395
  198DOPC  H17S24573   5.112   1.429  11.741  1.4191 -2.8541 -2.1738
  198DOPC  C21824574   5.029   1.341  11.929  0.3164  0.1527 -0.3680
  198DOPC  H18R24575   4.992   1.436  11.973  1.6814  1.1546 -1.2982
  198DOPC  H18S24576   5.127   1.324  11.979  0.8173  0.3708 -1.2418
  198DOPC  H18T24577   4.962   1.256  11.952  3.1486 -2.0058  0.4480
  198DOPC   C3324578   6.271   1.154  10.399 -0.1238  0.2452 -1.0597
  198DOPC   H3X24579   6.337   1.065  10.397 -0.3975  0.0336 -0.8419
  198DOPC   H3Y24580   6.169   1.113  10.382 -0.2605  0.1930 -0.1638
  198DOPC   C3424581   6.276   1.205  10.540 -0.1822 -0.0561  0.0226
  198DOPC   H4X24582   6.217   1.299  10.535  0.4095  0.4404  1.5567
  198DOPC   H4Y24583   6.380   1.209  10.580  0.7611 -2.8862 -1.8609
  198DOPC   C3524584   6.196   1.120  10.645 -0.5671 -0.3697  0.1537
  198DOPC   H5X24585   6.246   1.021  10.658 -0.1244 -0.0615  0.8609
  198DOPC   H5Y24586   6.097   1.100  10.599 -0.3561 -1.6880  0.2262
  198DOPC   C3624587   6.192   1.193  10.784 -0.2204  0.6418 -0.1232
  198DOPC   H6X24588   6.293   1.184  10.829 -0.1381  1.0009 -0.2337
  198DOPC   H6Y24589   6.174   1.302  10.771  0.1882  0.5398 -1.7913
  198DOPC   C3724590   6.083   1.145  10.878 -0.6483 -0.0929 -0.2455
  198DOPC   H7X24591   5.986   1.160  10.827 -0.0622  0.7573 -1.1373
  198DOPC   H7Y24592   6.089   1.035  10.892 -1.4437 -0.2503 -1.0878
  198DOPC   C3824593   6.087   1.208  11.014 -0.5762  0.5079  0.0197
  198DOPC   H8X24594   6.003   1.179  11.081 -1.1014  0.9128 -0.4573
  198DOPC   H8Y24595   6.077   1.317  11.001 -1.0255  0.4879  0.1663
  198DOPC   C3924596   6.216   1.167  11.078 -0.0759  0.3332 -0.0222
  198DOPC   H9X24597   6.302   1.226  11.042 -1.7675  2.1546 -1.2710
  198DOPC  C31024598   6.237   1.074  11.175 -0.4338  0.0974  0.0838
  198DOPC  H10X24599   6.330   1.073  11.234 -0.1621 -2.1380 -0.3298
  198DOPC  C31124600   6.138   1.001  11.251  0.5031 -0.1332 -0.0427
  198DOPC  H11X24601   6.167   0.899  11.284 -3.0246 -1.2371  0.1091
  198DOPC  H11Y24602   6.056   0.993  11.177 -1.3006 -0.0287  1.8526
  198DOPC  C31224603   6.077   1.063  11.377  0.4718  0.3760 -0.1480
  198DOPC  H12X24604   6.006   1.002  11.437 -2.2486  2.9480 -0.4786
  198DOPC  H12Y24605   6.005   1.141  11.343  2.3183  1.4364 -1.7861
  198DOPC  C31324606   6.183   1.111  11.475 -0.4679 -0.6993  0.3561
  198DOPC  H13X24607   6.241   1.023  11.507 -0.0483 -1.9369 -3.3441
  198DOPC  H13Y24608   6.263   1.171  11.426 -2.4651  0.5942 -1.5588
  198DOPC  C31424609   6.128   1.190  11.593 -0.0850 -0.2124 -0.0822
  198DOPC  H14X24610   6.065   1.268  11.546 -2.1405 -0.7108  1.6579
  198DOPC  H14Y24611   6.068   1.115  11.650 -1.3224  0.7353 -0.1007
  198DOPC  C31524612   6.237   1.258  11.672  0.1889 -0.2316 -0.4666
  198DOPC  H15X24613   6.309   1.313  11.608  2.2176 -0.8967  1.1096
  198DOPC  H15Y24614   6.292   1.180  11.730  0.8755  1.2360  0.9307
  198DOPC  C31624615   6.179   1.362  11.768 -0.2794  0.0748  0.3801
  198DOPC  H16X24616   6.264   1.424  11.803 -1.3137  2.0202 -0.4233
  198DOPC  H16Y24617   6.111   1.435  11.719  0.2225  0.9858  1.0068
  198DOPC  C31724618   6.108   1.316  11.895  0.0676  0.9687  0.0265
  198DOPC  H17X24619   6.055   1.220  11.876  0.5012  0.5360  0.9410
  198DOPC  H17Y24620   6.189   1.292  11.967  0.4372  2.1476  0.0227
  198DOPC  C31824621   6.012   1.424  11.958  0.2402 -0.2856  0.1680
  198DOPC  H18X24622   5.962   1.374  12.043  0.4177 -0.6415  0.0643
  198DOPC  H18Y24623   6.061   1.521  11.980  0.7732 -1.0361  2.5972
  198DOPC  H18Z24624   5.918   1.436  11.900  0.5636 -1.6045 -0.6742
  199DOPC     N24625   4.838   1.421   9.251  0.5558  0.3419 -0.2167
  199DOPC   C1224626   4.825   1.438   9.404  0.6817  0.3312  0.1162
  199DOPC  H12A24627   4.927   1.467   9.425  0.7902 -0.7359  1.1280
  199DOPC  H12B24628   4.809   1.341   9.448  2.2789  1.5216  3.6568
  199DOPC   C1324629   4.700   1.397   9.186  0.1780 -0.3493 -0.5146
  199DOPC  H13A24630   4.715   1.389   9.079  0.4207 -2.3978 -0.3822
  199DOPC  H13B24631   4.656   1.302   9.215 -2.3884 -0.5768 -4.3909
  199DOPC  H13C24632   4.632   1.477   9.210  2.4158  0.9373  1.9951
  199DOPC   C1424633   4.928   1.303   9.227  0.5152 -0.4309 -0.7847
  199DOPC  H14A24634   5.024   1.317   9.274  0.2585  1.1463 -0.6800
  199DOPC  H14B24635   4.892   1.212   9.274 -1.1966  0.6470  0.0972
  199DOPC  H14C24636   4.940   1.290   9.120 -0.2569 -1.9371 -0.7228
  199DOPC   C1524637   4.889   1.543   9.194  0.1290  0.1408 -0.3313
  199DOPC  H15A24638   4.904   1.530   9.087  0.6684 -0.7063 -0.1625
  199DOPC  H15B24639   4.991   1.555   9.229  0.0231 -2.2016  0.9589
  199DOPC  H15C24640   4.823   1.625   9.217 -0.5704 -0.4791 -0.0812
  199DOPC   C1124641   4.719   1.540   9.461  0.0575  0.3339 -0.6831
  199DOPC  H11A24642   4.732   1.532   9.572 -0.3151 -0.3903 -0.6827
  199DOPC  H11B24643   4.753   1.640   9.428 -1.3399  0.7951 -0.7833
  199DOPC     P24644   4.505   1.399   9.478 -0.3168  0.2393 -0.3928
  199DOPC   O1324645   4.583   1.268   9.468  0.2734 -0.2276  0.2568
  199DOPC   O1424646   4.370   1.408   9.426 -0.0650 -0.0621 -0.0648
  199DOPC   O1224647   4.588   1.521   9.416  0.1649  0.6628 -0.0266
  199DOPC   O1124648   4.503   1.433   9.631  0.3374  0.0359 -0.3782
  199DOPC    C124649   4.446   1.555   9.669  0.1991  0.5763 -0.1987
  199DOPC    HA24650   4.349   1.582   9.620 -1.2357 -0.9548  1.6313
  199DOPC    HB24651   4.519   1.633   9.639 -0.7740  1.4128 -0.4620
  199DOPC    C224652   4.428   1.558   9.826  0.0378 -0.1354 -0.9480
  199DOPC    HS24653   4.439   1.659   9.871 -2.2409  1.1753 -3.0795
  199DOPC   O2124654   4.519   1.471   9.897  0.0293 -0.0536 -0.2416
  199DOPC   C2124655   4.646   1.518   9.887  0.5785 -0.3641 -0.4367
  199DOPC   O2224656   4.669   1.637   9.855  0.9329  0.4036  0.6235
  199DOPC   C2224657   4.756   1.408   9.903 -0.7847  0.0329 -0.0228
  199DOPC   H2R24658   4.791   1.394   9.799  1.6888  1.1575  0.6059
  199DOPC   H2S24659   4.699   1.319   9.939 -0.1519 -0.7232 -0.8660
  199DOPC    C324660   4.281   1.522   9.871  0.4617 -0.0736  0.2373
  199DOPC    HX24661   4.268   1.414   9.846 -1.6275  0.1982 -0.0409
  199DOPC    HY24662   4.208   1.591   9.824 -0.2113  1.2115  2.9494
  199DOPC   O3124663   4.258   1.540  10.015 -0.1422  0.1086 -0.1707
  199DOPC   C3124664   4.131   1.535  10.062  0.2255 -0.0165  0.5313
  199DOPC   O3224665   4.038   1.517   9.986 -0.1762 -0.3274 -0.3978
  199DOPC   C3224666   4.125   1.540  10.211  0.4230 -0.4175 -0.5712
  199DOPC   H2X24667   4.090   1.446  10.259 -0.2926  0.5725  0.9173
  199DOPC   H2Y24668   4.217   1.579  10.259 -0.9101  1.6177  0.4813
  199DOPC   C2324669   4.870   1.433  10.002 -0.4986  0.0021 -0.2221
  199DOPC   H3R24670   4.825   1.466  10.099  0.5550 -1.6821  0.8836
  199DOPC   H3S24671   4.939   1.514   9.971  1.7209 -1.8500 -0.3843
  199DOPC   C2424672   4.962   1.320  10.035 -0.0348  0.2111  0.3502
  199DOPC   H4R24673   5.032   1.347  10.116 -1.8543 -1.1220  2.5031
  199DOPC   H4S24674   5.010   1.278   9.943 -1.4991 -1.3313  0.2334
  199DOPC   C2524675   4.880   1.199  10.082  0.4320  0.0722  0.5209
  199DOPC   H5R24676   4.820   1.174   9.993 -0.3706  2.6774  0.2521
  199DOPC   H5S24677   4.813   1.224  10.168  0.3819 -1.5109  0.9654
  199DOPC   C2624678   4.959   1.081  10.133 -0.7133 -0.1889  0.7776
  199DOPC   H6R24679   5.038   1.121  10.200  0.0908 -1.2167  0.4701
  199DOPC   H6S24680   5.005   1.021  10.052 -0.8734 -0.1909  0.6882
  199DOPC   C2724681   4.880   0.983  10.211  0.3256  0.4642  0.2082
  199DOPC   H7R24682   4.789   0.982  10.147  0.7726  1.9979 -0.5234
  199DOPC   H7S24683   4.853   1.020  10.312  2.2151 -1.5856  1.5628
  199DOPC   C2824684   4.934   0.836  10.212  0.6187 -0.2714 -0.1959
  199DOPC   H8R24685   4.949   0.809  10.105  1.0982 -0.9953  0.0440
  199DOPC   H8S24686   4.843   0.779  10.242 -0.2857  1.2736  0.0944
  199DOPC   C2924687   5.056   0.824  10.307  0.6059 -0.3460  0.0297
  199DOPC   H9R24688   5.147   0.869  10.266  0.6321  0.8907  1.3525
  199DOPC  C21024689   5.057   0.799  10.438 -0.4169 -0.8145  0.2697
  199DOPC  H10R24690   5.151   0.802  10.494 -0.1633  1.9233 -0.1810
  199DOPC  C21124691   4.936   0.747  10.513  0.2399  0.4976 -0.2667
  199DOPC  H11R24692   4.845   0.765  10.451  0.7211  2.7423 -0.4055
  199DOPC  H11S24693   4.929   0.789  10.615 -0.0906 -1.1865  0.4502
  199DOPC  C21224694   4.932   0.593  10.531 -0.8777  0.4153  0.3030
  199DOPC  H12R24695   4.928   0.553  10.428 -0.5962  0.8399  0.1250
  199DOPC  H12S24696   4.836   0.563  10.579 -1.2722  2.8306  1.1572
  199DOPC  C21324697   5.035   0.540  10.631  0.0848  0.0074  0.2134
  199DOPC  H13R24698   5.098   0.618  10.678 -1.5503  0.7984  1.1918
  199DOPC  H13S24699   5.104   0.471  10.577  1.0687  0.7852  0.4384
  199DOPC  C21424700   4.972   0.457  10.749 -1.1016 -0.4506 -0.5377
  199DOPC  H14R24701   4.893   0.516  10.800  0.5403  0.0259  1.6223
  199DOPC  H14S24702   5.046   0.437  10.830  0.0168 -0.4506 -1.5260
  199DOPC  C21524703   4.928   0.315  10.711  0.4334 -0.0638 -0.3852
  199DOPC  H15R24704   5.014   0.271  10.655  0.1856  0.2426 -1.0239
  199DOPC  H15S24705   4.849   0.327  10.633 -0.1703  0.7400  0.3316
  199DOPC  C21624706   4.868   0.228  10.824 -0.2549 -0.9444 -0.8838
  199DOPC  H16R24707   4.953   0.207  10.892  0.0660  0.4601 -0.8278
  199DOPC  H16S24708   4.838   0.135  10.771 -2.6127 -0.2048 -0.9521
  199DOPC  C21724709   4.756   0.293  10.915 -0.2619 -0.4937  0.4081
  199DOPC  H17R24710   4.818   0.369  10.967  0.1747 -1.1910  0.9186
  199DOPC  H17S24711   4.714   0.215  10.981 -2.1886  0.0359 -0.1293
  199DOPC  C21824712   4.641   0.348  10.832 -0.6312  0.0369 -0.7098
  199DOPC  H18R24713   4.670   0.420  10.752  0.7248 -0.6339 -0.8500
  199DOPC  H18S24714   4.569   0.405  10.894 -0.0605 -0.8323  0.7830
  199DOPC  H18T24715   4.590   0.270  10.773 -1.1622 -2.3694  2.6752
  199DOPC   C3324716   4.021   1.646  10.260 -0.4484  0.2560 -0.0050
  199DOPC   H3X24717   4.014   1.644  10.370  0.2002  5.0609  0.3373
  199DOPC   H3Y24718   3.920   1.621  10.219 -0.2858 -1.2140  0.4429
  199DOPC   C3424719   4.053   1.792  10.227 -0.2040  0.1172 -0.8472
  199DOPC   H4X24720   4.043   1.804  10.117 -0.2974 -0.5894 -0.9241
  199DOPC   H4Y24721   4.156   1.810  10.263  0.0293 -0.1698 -1.3696
  199DOPC   C3524722   3.958   1.877  10.315 -0.2580  0.1444 -0.3166
  199DOPC   H5X24723   3.999   1.979  10.323 -0.7933  0.1772  4.4314
  199DOPC   H5Y24724   3.966   1.836  10.418  0.1280 -3.0785 -1.5076
  199DOPC   C3624725   3.813   1.886  10.279  0.6738 -0.0843  0.4984
  199DOPC   H6X24726   3.811   1.923  10.174  0.1636 -0.6913  0.2930
  199DOPC   H6Y24727   3.766   1.786  10.290  1.3909 -0.2248  2.8339
  199DOPC   C3724728   3.741   1.979  10.366  0.0994 -0.3550 -0.6701
  199DOPC   H7X24729   3.762   1.961  10.473 -2.3114  0.0067 -0.0834
  199DOPC   H7Y24730   3.777   2.076  10.324 -0.2816  0.8120  1.5677
  199DOPC   C3824731   3.586   1.976  10.338 -0.3486 -0.6409 -0.2399
  199DOPC   H8X24732   3.579   1.951  10.230 -0.1991 -1.9945  0.0544
  199DOPC   H8Y24733   3.542   2.077  10.349  0.6851 -0.0721 -1.0703
  199DOPC   C3924734   3.518   1.866  10.409  0.3701  0.8972 -0.3614
  199DOPC   H9X24735   3.515   1.770  10.355  1.3313  0.7522 -0.1626
  199DOPC  C31024736   3.451   1.878  10.525  0.0739  0.4761  0.1201
  199DOPC  H10X24737   3.401   1.789  10.566  2.9157 -1.7208 -0.8632
  199DOPC  C31124738   3.448   2.005  10.610  1.2631 -0.0321  0.0977
  199DOPC  H11X24739   3.345   2.047  10.609  1.2136 -0.1006  1.1716
  199DOPC  H11Y24740   3.502   2.093  10.568 -0.0758 -0.1896 -2.1435
  199DOPC  C31224741   3.497   1.981  10.753  0.1708 -0.2365  0.8597
  199DOPC  H12X24742   3.594   1.928  10.758  0.3261 -0.2934 -1.5909
  199DOPC  H12Y24743   3.421   1.914  10.798  1.0652 -2.1895 -0.3781
  199DOPC  C31324744   3.506   2.111  10.826 -0.5464 -0.3999  0.3284
  199DOPC  H13X24745   3.588   2.167  10.775 -1.5364 -1.2079 -2.3443
  199DOPC  H13Y24746   3.410   2.165  10.814  1.0744  2.3554 -1.1716
  199DOPC  C31424747   3.544   2.096  10.967 -0.1509  0.5773  0.4546
  199DOPC  H14X24748   3.482   2.164  11.029  1.4132  3.2490 -0.7432
  199DOPC  H14Y24749   3.516   1.996  11.008  0.4444 -0.2025 -0.9627
  199DOPC  C31524750   3.693   2.102  10.997 -1.2346 -0.9383  0.5060
  199DOPC  H15X24751   3.732   2.033  10.919 -2.0158  0.5515 -1.2705
  199DOPC  H15Y24752   3.707   2.063  11.101 -0.9205 -2.1822  0.0213
  199DOPC  C31624753   3.764   2.240  10.983 -0.3002  1.0112 -0.8824
  199DOPC  H16X24754   3.871   2.234  10.957  0.5210  1.3256  2.0482
  199DOPC  H16Y24755   3.706   2.293  10.904 -2.6594  0.2989  0.2504
  199DOPC  C31724756   3.769   2.323  11.108  0.0448  0.2860 -0.5707
  199DOPC  H17X24757   3.662   2.334  11.138  0.7659  2.2077  1.5351
  199DOPC  H17Y24758   3.817   2.266  11.190 -1.5163 -0.9208 -0.4589
  199DOPC  C31824759   3.827   2.461  11.086  0.0960 -0.2408 -0.1309
  199DOPC  H18X24760   3.821   2.514  11.183 -1.0383 -2.2634  0.9853
  199DOPC  H18Y24761   3.931   2.447  11.051  0.6132  0.5575  1.0430
  199DOPC  H18Z24762   3.769   2.513  11.007 -2.5353 -1.2661  1.0010
  200DOPC     N24763   8.284   1.969   9.532  0.2541  0.5932  0.5477
  200DOPC   C1224764   8.248   2.114   9.502 -0.2083  0.5015  0.4410
  200DOPC  H12A24765   8.152   2.121   9.453  0.3015 -0.9809 -0.8619
  200DOPC  H12B24766   8.322   2.146   9.430  0.0421 -0.0336  0.4610
  200DOPC   C1324767   8.427   1.950   9.574  0.3004  0.4232 -0.1174
  200DOPC  H13A24768   8.492   1.966   9.489 -1.7548  0.6747 -1.7249
  200DOPC  H13B24769   8.453   2.022   9.649  1.6659  1.6643 -1.7141
  200DOPC  H13C24770   8.445   1.847   9.600  0.8242 -0.3849 -3.2110
  200DOPC   C1424771   8.263   1.899   9.402 -0.2686  0.0570 -0.3161
  200DOPC  H14A24772   8.163   1.868   9.375 -1.5768  1.3895  2.4630
  200DOPC  H14B24773   8.296   1.958   9.318 -1.7575  0.4830 -0.6239
  200DOPC  H14C24774   8.320   1.808   9.405  1.1839  0.9455  0.0023
  200DOPC   C1524775   8.188   1.902   9.623  0.4165 -0.4225 -0.1547
  200DOPC  H15A24776   8.090   1.900   9.580  0.2423 -1.0391  0.2559
  200DOPC  H15B24777   8.186   1.947   9.721 -0.6326  0.9228 -0.7632
  200DOPC  H15C24778   8.232   1.807   9.651 -2.4567 -1.4353  1.3539
  200DOPC   C1124779   8.256   2.209   9.628 -0.5100  0.3263  0.3880
  200DOPC  H11A24780   8.233   2.313   9.598  1.0971  0.8281  0.7612
  200DOPC  H11B24781   8.181   2.191   9.708  1.0703  2.0908  2.4085
  200DOPC     P24782   8.496   2.307   9.635 -0.1882  0.0196 -0.1776
  200DOPC   O1324783   8.442   2.393   9.529  0.5348  0.1297  0.1185
  200DOPC   O1424784   8.614   2.229   9.600  0.0948  0.3040 -0.3564
  200DOPC   O1224785   8.383   2.217   9.694 -0.1259  0.1409 -0.2790
  200DOPC   O1124786   8.543   2.392   9.754 -0.5351  0.2622 -0.8668
  200DOPC    C124787   8.452   2.481   9.817 -0.1771  0.0554  0.5737
  200DOPC    HA24788   8.390   2.425   9.891  0.7338 -1.1607  0.4446
  200DOPC    HB24789   8.378   2.531   9.751  0.5054  1.1342  0.6105
  200DOPC    C224790   8.530   2.594   9.884  0.0078  0.6714  0.0482
  200DOPC    HS24791   8.564   2.656   9.799  0.4742 -0.0464 -0.2931
  200DOPC   O2124792   8.637   2.536   9.948 -0.7786 -0.8799 -0.6975
  200DOPC   C2124793   8.733   2.625   9.977  0.2324  0.4700 -0.3446
  200DOPC   O2224794   8.727   2.741   9.958  0.6901 -0.2106 -0.4629
  200DOPC   C2224795   8.852   2.562  10.046 -0.3322  0.4237 -0.2036
  200DOPC   H2R24796   8.944   2.589   9.989  0.0485  2.8631  1.3774
  200DOPC   H2S24797   8.837   2.452  10.045  0.5321  0.2944 -2.1585
  200DOPC    C324798   8.442   2.680   9.980 -0.0318  0.1109  0.0746
  200DOPC    HX24799   8.378   2.724   9.901 -0.1624 -0.8184 -0.3414
  200DOPC    HY24800   8.498   2.765  10.024  0.1728  0.2687 -0.4831
  200DOPC   O3124801   8.373   2.608  10.082  0.3199 -0.0293  0.1121
  200DOPC   C3124802   8.295   2.685  10.154 -0.0047 -0.2111 -0.3534
  200DOPC   O3224803   8.283   2.804  10.136 -0.1396  0.3656 -0.5924
  200DOPC   C3224804   8.217   2.595  10.255 -0.3171 -0.3551  0.3489
  200DOPC   H2X24805   8.274   2.500  10.265  0.9164  0.2936 -0.2986
  200DOPC   H2Y24806   8.208   2.655  10.348  0.9741  2.2830 -1.1083
  200DOPC   C2324807   8.872   2.620  10.191 -0.3897  0.2046  0.2726
  200DOPC   H3R24808   8.856   2.730  10.180 -0.5628  0.1959  0.4434
  200DOPC   H3S24809   8.976   2.593  10.215 -1.1864 -3.5980  0.0391
  200DOPC   C2424810   8.770   2.571  10.296 -0.4416 -0.0165 -0.4019
  200DOPC   H4R24811   8.790   2.462  10.304 -0.0932  0.1376  1.1453
  200DOPC   H4S24812   8.665   2.571  10.260 -1.1037  0.2973  1.4088
  200DOPC   C2524813   8.778   2.630  10.438  0.0533 -0.5561 -0.5752
  200DOPC   H5R24814   8.762   2.740  10.436  0.1126 -0.5266  0.1348
  200DOPC   H5S24815   8.880   2.606  10.476 -0.3030 -1.2019 -0.0046
  200DOPC   C2624816   8.669   2.579  10.538 -0.2940 -0.0027  1.0272
  200DOPC   H6R24817   8.668   2.469  10.524  0.8534  0.1697 -0.6935
  200DOPC   H6S24818   8.574   2.625  10.505 -0.2760 -0.1696  0.7459
  200DOPC   C2724819   8.710   2.614  10.686  0.1994 -0.8671  0.3789
  200DOPC   H7R24820   8.802   2.553  10.692 -1.0542 -2.9614 -0.3932
  200DOPC   H7S24821   8.628   2.582  10.754 -0.1340 -0.3468  0.2288
  200DOPC   C2824822   8.735   2.762  10.712 -0.5654 -0.5387  0.3422
  200DOPC   H8R24823   8.644   2.823  10.696  2.1257  2.8138 -4.3636
  200DOPC   H8S24824   8.814   2.803  10.647 -0.6020 -1.2567 -0.1716
  200DOPC   C2924825   8.788   2.783  10.846  0.7837 -0.1252 -0.5570
  200DOPC   H9R24826   8.839   2.701  10.899  2.7947  1.7250  0.5384
  200DOPC  C21024827   8.780   2.898  10.908  0.0658  0.2680 -0.4231
  200DOPC  H10R24828   8.790   2.884  11.016 -0.9093  0.2926 -0.3206
  200DOPC  C21124829   8.736   3.034  10.866 -0.6880  0.6215 -0.3394
  200DOPC  H11R24830   8.740   3.039  10.755 -1.1319  0.4737 -0.3645
  200DOPC  H11S24831   8.809   3.108  10.903  0.5519 -0.8364  0.2463
  200DOPC  C21224832   8.601   3.061  10.920 -0.0400 -0.2229  0.1704
  200DOPC  H12R24833   8.586   3.038  11.027 -0.2089  0.1577  0.2318
  200DOPC  H12S24834   8.527   3.004  10.859  0.3633  1.4740 -2.0467
  200DOPC  C21324835   8.576   3.217  10.909  0.3425 -0.2197  0.3563
  200DOPC  H13R24836   8.653   3.273  10.967  1.5436  0.7815 -2.0976
  200DOPC  H13S24837   8.476   3.236  10.953 -0.3805  2.2554 -2.1620
  200DOPC  C21424838   8.556   3.261  10.764 -0.2079 -0.5509 -0.6036
  200DOPC  H14R24839   8.486   3.188  10.718  0.9320 -0.3101 -2.8988
  200DOPC  H14S24840   8.650   3.250  10.706 -0.3083 -0.9430 -0.6940
  200DOPC  C21524841   8.487   3.402  10.744 -0.3617  0.1108  0.1528
  200DOPC  H15R24842   8.550   3.467  10.808  0.3259 -1.7285  1.4266
  200DOPC  H15S24843   8.386   3.396  10.789 -0.5429 -0.6381 -0.3382
  200DOPC  C21624844   8.470   3.450  10.597  0.9971  0.0057 -0.0366
  200DOPC  H16R24845   8.425   3.368  10.537 -0.0237  0.3789  0.2028
  200DOPC  H16S24846   8.568   3.475  10.551  1.8956 -1.1992  1.1181
  200DOPC  C21724847   8.367   3.567  10.601  0.9032  0.1324  0.8453
  200DOPC  H17R24848   8.379   3.624  10.696 -1.8717  1.8333  0.2656
  200DOPC  H17S24849   8.268   3.519  10.611  1.0217 -0.3977 -0.3229
  200DOPC  C21824850   8.348   3.642  10.471  0.1699 -0.4710 -0.0189
  200DOPC  H18R24851   8.286   3.732  10.487  2.2854  1.2980 -1.1943
  200DOPC  H18S24852   8.291   3.586  10.395 -0.7900 -0.1080  0.4248
  200DOPC  H18T24853   8.449   3.663  10.429 -0.0108  1.4931  0.4606
  200DOPC   C3324854   8.071   2.563  10.207 -0.0610 -0.6329 -0.6170
  200DOPC   H3X24855   8.033   2.487  10.279 -0.4732 -0.0198 -0.1747
  200DOPC   H3Y24856   8.082   2.509  10.110  0.4147 -0.9146 -0.4078
  200DOPC   C3424857   7.978   2.684  10.181 -0.2097 -0.9584  0.7340
  200DOPC   H4X24858   7.879   2.647  10.145 -0.6189  0.3125  0.5056
  200DOPC   H4Y24859   8.004   2.751  10.097 -1.1114 -0.2449  1.0056
  200DOPC   C3524860   7.965   2.794  10.299 -0.0165  0.2938  0.0331
  200DOPC   H5X24861   7.932   2.891  10.255 -2.4016 -1.0588 -1.3226
  200DOPC   H5Y24862   8.067   2.799  10.343 -0.1894 -1.3892  0.6695
  200DOPC   C3624863   7.850   2.751  10.399 -0.4514  0.1511 -0.3752
  200DOPC   H6X24864   7.755   2.733  10.344  0.8933 -1.9542 -2.2159
  200DOPC   H6Y24865   7.872   2.648  10.437  0.1265  0.6934  0.8248
  200DOPC   C3724866   7.833   2.850  10.522 -0.8476 -0.3069  0.0887
  200DOPC   H7X24867   7.906   2.822  10.601  1.5246  0.6223 -1.6692
  200DOPC   H7Y24868   7.865   2.951  10.489  1.0334 -0.5457  1.0817
  200DOPC   C3824869   7.691   2.839  10.580  0.2387  0.3562 -0.2105
  200DOPC   H8X24870   7.621   2.864  10.497 -0.2286  2.8590  0.8338
  200DOPC   H8Y24871   7.692   2.927  10.648 -0.5043 -0.5632  1.0188
  200DOPC   C3924872   7.640   2.718  10.659 -0.3734  0.2109 -0.7513
  200DOPC   H9X24873   7.645   2.623  10.605 -0.8325 -0.5629  0.5240
  200DOPC  C31024874   7.575   2.720  10.774  0.0066  0.8351 -0.4464
  200DOPC  H10X24875   7.536   2.625  10.814  0.9464  1.4508  2.1650
  200DOPC  C31124876   7.542   2.840  10.853  0.7541 -0.1532 -0.3045
  200DOPC  H11X24877   7.474   2.911  10.800 -1.6148 -3.5737 -2.2440
  200DOPC  H11Y24878   7.638   2.892  10.874  0.7012 -0.7363  1.6192
  200DOPC  C31224879   7.472   2.796  10.978 -0.8326  0.0705 -0.0940
  200DOPC  H12X24880   7.384   2.737  10.944  0.7644 -1.5594 -1.6169
  200DOPC  H12Y24881   7.442   2.892  11.026 -0.6613 -0.2919  0.7646
  200DOPC  C31324882   7.566   2.731  11.079 -0.2171 -0.6219  0.1014
  200DOPC  H13X24883   7.625   2.650  11.032  1.3398  1.0753 -0.9940
  200DOPC  H13Y24884   7.642   2.799  11.121 -1.0215  0.7691 -0.6402
  200DOPC  C31424885   7.489   2.672  11.206 -0.0163 -0.3871  0.5309
  200DOPC  H14X24886   7.397   2.733  11.217 -0.2045 -0.5734  0.0639
  200DOPC  H14Y24887   7.454   2.568  11.186 -0.4638 -0.1985  0.3060
  200DOPC  C31524888   7.569   2.659  11.337 -0.1372 -0.3178  0.9328
  200DOPC  H15X24889   7.609   2.763  11.346  0.0750 -0.1321 -1.4352
  200DOPC  H15Y24890   7.648   2.582  11.334  0.2371  0.0906 -0.4837
  200DOPC  C31624891   7.470   2.624  11.453 -0.5204  0.2749  0.0696
  200DOPC  H16X24892   7.533   2.607  11.542 -0.1978  0.9847 -0.0133
  200DOPC  H16Y24893   7.405   2.712  11.474 -0.8694 -0.4280  2.2075
  200DOPC  C31724894   7.370   2.509  11.433  0.8380  1.2746  0.3235
  200DOPC  H17X24895   7.326   2.488  11.533  1.4862  1.8817  0.7484
  200DOPC  H17Y24896   7.292   2.531  11.357  1.3428 -3.1689 -1.8042
  200DOPC  C31824897   7.438   2.377  11.386  0.0194 -0.9587  0.1276
  200DOPC  H18X24898   7.472   2.382  11.280  0.6242 -2.3722  0.2280
  200DOPC  H18Y24899   7.526   2.350  11.448 -0.2326 -1.9134  0.0797
  200DOPC  H18Z24900   7.373   2.288  11.402 -1.3189  0.1023  0.8233
  201SOD    SOD24901   4.153   0.712  13.320 -0.5964 -0.3431 -0.5792
  202SOD    SOD24902   0.695   3.822   8.855 -0.1311 -0.4476 -0.1481
  203SOD    SOD24903   8.372   7.053  14.657  0.3715 -0.2247  0.0075
  204SOD    SOD24904   3.919   2.318   9.106  0.0552 -0.0357  0.1291
  205SOD    SOD24905   5.639   2.622  12.983 -0.0365  0.2515  0.6220
  206SOD    SOD24906   3.332   5.265   9.100  0.0712 -0.1673  0.1072
  207SOD    SOD24907   4.729   3.792   8.102 -0.5154  0.0176 -0.1868
  208SOD    SOD24908   0.399   4.930  13.186 -0.2882  0.0991  0.4594
  209SOD    SOD24909   6.772   0.479   9.291 -0.5856  0.0071 -0.1530
  210SOD    SOD24910   6.420   3.933  14.631 -0.3432 -0.4189 -0.0066
  211SOD    SOD24911   5.939   0.011  13.299 -0.1447 -0.2212 -0.6726
  212SOD    SOD24912   5.140   8.367  13.259 -0.4144  0.0241 -0.2247
  213SOD    SOD24913   0.329   1.809   9.167 -0.0164  0.5337 -0.0263
  214SOD    SOD24914   1.779   2.724  14.795  0.2364 -0.0472 -0.1714
  215SOD    SOD24915   7.993   1.309  14.384  0.1410  0.1121 -0.1941
  216SOD    SOD24916   0.237   6.810  13.594 -0.5678  0.1043 -0.0016
  217SOD    SOD24917   6.992   6.978  10.045  0.4892  0.9620 -0.2051
  218SOD    SOD24918   7.666   2.837  13.386  0.0361  0.2678  0.4565
  219SOD    SOD24919   5.141   3.310  14.053 -0.1406  0.0276 -0.0363
  220SOD    SOD24920   0.979   7.471   9.111  0.3392  0.3753  0.2678
  221SOD    SOD24921   2.617   1.661   9.148  0.0011  0.3663  0.2939
  222SOD    SOD24922   1.259   7.114  13.476 -0.0491  0.1810  0.1311
  223SOD    SOD24923   4.803   4.333   9.151 -0.2686 -0.1998 -0.1848
  224SOD    SOD24924   6.547   3.969   8.803 -0.0806 -0.0157  0.4348
  225SOD    SOD24925   4.830   3.683   9.559 -0.0609  0.1296  0.1449
  226SOD    SOD24926   5.309   6.284  13.510  0.0489 -0.2683  0.5401
  227CLA    CLA24927   4.313   3.885   9.110 -0.2120  0.3083  0.1519
  228CLA    CLA24928   6.209   5.055   8.631  0.0305  0.5544  0.1903
  229CLA    CLA24929   6.334   1.162   8.345 -0.4782 -0.3558 -0.1375
  230CLA    CLA24930   5.073   4.517  14.103 -0.0845  0.2530 -0.1266
  231CLA    CLA24931   6.741   1.346  13.242 -0.4831 -0.3078 -0.4342
  232CLA    CLA24932   3.191   0.265  14.433 -0.0711 -0.4306  0.2941
  233CLA    CLA24933   0.100   2.109  13.803 -0.0246 -0.0007 -0.3258
  234CLA    CLA24934   1.032   6.482  14.095  0.0469 -0.0901 -0.2713
  235CLA    CLA24935   0.140   5.592   8.468  0.2032 -0.0891 -0.2106
  236CLA    CLA24936   2.525   4.703  14.557 -0.1598  0.0097  0.0461
  237CLA    CLA24937   5.935   8.280  14.324  0.2598  0.0124 -0.2465
  238CLA    CLA24938   7.565   2.497   8.424 -0.3393  0.5163  0.2917
  239CLA    CLA24939   1.291   4.525   8.653  0.1609 -0.1549 -0.0378
  240CLA    CLA24940   6.713   3.767  13.690  0.1764  0.3398 -0.3905
  241CLA    CLA24941   3.096   3.685   8.227 -0.2460  0.1287 -0.0309
  242CLA    CLA24942   6.584   6.992  14.662 -0.3020  0.3472  0.4122
  243CLA    CLA24943   7.803   8.006   9.294  0.1736  0.1650 -0.0325
  244CLA    CLA24944   6.699   4.648   8.719  0.0994  0.2326 -0.0563
  245CLA    CLA24945   3.610   6.456   8.924 -0.0814 -0.1448  0.2100
  246CLA    CLA24946   6.225   3.453  14.647  0.0615 -0.1366 -0.2024
  247CLA    CLA24947   8.314   0.311   8.950  0.0960  0.1704  0.3544
  248CLA    CLA24948   0.619   1.483   8.967  0.3593  0.0822  0.0425
  249CLA    CLA24949   3.167   0.039   8.683  0.6558  0.1516  0.1307
  250CLA    CLA24950   8.448   8.184  13.667 -0.2562  0.1469  0.3726
  251CLA    CLA24951   4.875   1.248  13.859 -0.0952 -0.4000  0.0473
  252CLA    CLA24952   5.502   3.693   8.823 -0.1483  0.2979  0.2343
  253TIP3   OH224953   0.230   0.176  14.210  0.0250  0.7462  0.1271
  253TIP3    H124954   0.286   0.104  14.179 -0.2542  0.2517  0.7524
  253TIP3    H224955   0.256   0.190  14.301 -1.1490  0.2159  0.5697
  254TIP3   OH224956   5.887   2.219  15.049  0.1970  0.3486 -0.1230
  254TIP3    H124957   5.821   2.264  15.101  0.7887 -0.2245  1.1597
  254TIP3    H224958   5.838   2.181  14.975 -0.6968  0.9589  0.1446
  255TIP3   OH224959   3.483   4.998  13.205  0.6400  0.0255  0.1316
  255TIP3    H124960   3.559   4.979  13.261  0.8739 -1.7024 -0.7074
  255TIP3    H224961   3.472   5.093  13.211  3.3996  0.4700 -0.3648
  256TIP3   OH224962   2.540   6.836  14.615 -0.0417 -0.4351 -0.0438
  256TIP3    H124963   2.586   6.892  14.553 -1.0559  1.5680  0.9339
  256TIP3    H224964   2.468   6.798  14.565 -0.9587  1.3040 -0.1074
  257TIP3   OH224965   2.343   1.721  13.763 -0.2348 -0.2159  0.2900
  257TIP3    H124966   2.422   1.725  13.709  1.5137 -1.3462  2.5485
  257TIP3    H224967   2.289   1.654  13.722  0.3170  0.0136 -0.8590
  258TIP3   OH224968   5.286   0.420  13.824  0.1484  0.5245  1.2009
  258TIP3    H124969   5.309   0.343  13.772 -2.5012 -0.7505  1.7544
  258TIP3    H224970   5.219   0.465  13.772 -0.1229  1.0755  2.0043
  259TIP3   OH224971   8.022   2.345  13.584  0.3860 -0.6329 -0.1743
  259TIP3    H124972   8.077   2.309  13.514 -0.2755 -1.6908 -0.1802
  259TIP3    H224973   8.083   2.386  13.644  1.0684 -0.7300 -0.7893
  260TIP3   OH224974   5.514   6.341  14.061  0.3868  0.4280  0.6121
  260TIP3    H124975   5.600   6.377  14.040 -0.1804  1.9430  0.7209
  260TIP3    H224976   5.521   6.313  14.152  1.1011 -0.5684  0.2572
  261TIP3   OH224977   7.384   4.598  14.069  0.1214  0.4881  0.3164
  261TIP3    H124978   7.405   4.514  14.111 -1.5454 -1.0578 -1.6865
  261TIP3    H224979   7.339   4.648  14.137  2.1859  0.3278  1.9189
  262TIP3   OH224980   5.025   5.469  14.409 -0.8124  0.3634 -0.1750
  262TIP3    H124981   4.971   5.390  14.409 -1.5727  0.8588 -1.0160
  262TIP3    H224982   5.015   5.506  14.497  0.8154 -1.2777  0.7703
  263TIP3   OH224983   1.662   2.612  13.173  0.7797  0.1129 -0.6059
  263TIP3    H124984   1.638   2.672  13.244 -0.2030  0.8508 -1.5316
  263TIP3    H224985   1.584   2.559  13.158  1.6651 -1.4963  0.2483
  264TIP3   OH224986   0.719   3.364  13.338 -0.2029  0.2608  0.1125
  264TIP3    H124987   0.736   3.336  13.428  0.8349  0.6628  0.0504
  264TIP3    H224988   0.693   3.456  13.346 -0.8267  0.0948  0.0583
  265TIP3   OH224989   7.344   7.672  13.037  0.0100 -0.0898 -0.1653
  265TIP3    H124990   7.277   7.705  12.976  0.1978  0.9675  0.1767
  265TIP3    H224991   7.364   7.584  13.006 -1.8294 -0.5963 -0.0462
  266TIP3   OH224992   4.377   5.424  14.466 -0.4945 -0.2568 -0.1037
  266TIP3    H124993   4.431   5.411  14.388 -0.2665  1.9198 -0.3833
  266TIP3    H224994   4.369   5.337  14.505  1.4083 -1.0020 -1.2284
  267TIP3   OH224995   0.693   3.120  12.591 -0.1915 -0.4388 -0.1589
  267TIP3    H124996   0.641   3.180  12.538 -1.2697 -0.0991  1.2231
  267TIP3    H224997   0.654   3.034  12.576 -1.4778 -0.1336  1.1661
  268TIP3   OH224998   0.965   3.369  13.951 -0.2083 -0.7051  0.1086
  268TIP3    H124999   1.009   3.358  14.035 -0.3109 -1.8990  0.0226
  268TIP3    H225000   1.031   3.410  13.895 -0.3301  0.6417  0.9178
  269TIP3   OH225001   0.260   4.011  14.270 -0.0802 -0.0330  0.1438
  269TIP3    H125002   0.346   4.032  14.306 -0.3890 -0.0328  0.9088
  269TIP3    H225003   0.272   3.926  14.227 -0.1098 -0.9734  1.8805
  270TIP3   OH225004   0.287   3.073  14.484 -0.2041  0.2889  0.0563
  270TIP3    H125005   0.226   3.146  14.476 -1.2901 -0.5931  0.0500
  270TIP3    H225006   0.259   3.026  14.562  0.6501  0.0308  0.2180
  271TIP3   OH225007   3.106   6.910  14.025 -0.0573 -0.1868  0.0256
  271TIP3    H125008   3.051   6.859  14.085 -0.9392 -0.4068 -0.9486
  271TIP3    H225009   3.044   6.955  13.968  0.7093  1.6063  0.5270
  272TIP3   OH225010   2.696   2.438  12.657 -0.3463  0.1825 -0.0734
  272TIP3    H125011   2.710   2.397  12.742  0.1187 -2.5390 -1.3452
  272TIP3    H225012   2.627   2.385  12.616 -2.3028  2.8683 -0.5545
  273TIP3   OH225013   2.127   7.960  14.066 -0.7135  0.3103  0.3984
  273TIP3    H125014   2.081   7.939  13.984 -0.7212  1.6316  0.0384
  273TIP3    H225015   2.207   7.908  14.062 -0.8661  0.1115 -0.3091
  274TIP3   OH225016   2.985   2.132  14.714  0.6928 -0.5247  0.0387
  274TIP3    H125017   2.932   2.208  14.689 -0.1259 -0.7628  0.9865
  274TIP3    H225018   2.924   2.075  14.761  1.6990 -1.0001  0.7925
  275TIP3   OH225019   6.835   7.549  13.917 -0.2443  0.3340 -0.0390
  275TIP3    H125020   6.913   7.530  13.969  0.1031 -1.2710 -1.0828
  275TIP3    H225021   6.860   7.624  13.863  0.0211  0.8315  0.7575
  276TIP3   OH225022   0.884   1.312  15.431 -0.0714 -0.5522 -0.1499
  276TIP3    H125023   0.935   1.388  15.459 -2.7324  0.5380  2.2694
  276TIP3    H225024   0.860   1.331  15.341  1.5423  0.1656 -0.4515
  277TIP3   OH225025   4.684   1.546  14.199 -0.0568 -0.0406  0.2070
  277TIP3    H125026   4.711   1.467  14.245  0.4952  0.6596  1.1185
  277TIP3    H225027   4.763   1.577  14.155 -0.6102 -0.7982 -1.4215
  278TIP3   OH225028   3.549   5.448  14.306  0.7437 -0.6729  0.1274
  278TIP3    H125029   3.605   5.524  14.290  0.8453 -0.5409  1.0489
  278TIP3    H225030   3.580   5.412  14.389 -2.6523  1.4335  2.5499
  279TIP3   OH225031   0.191   7.617  14.524  0.5276 -0.1144  0.1644
  279TIP3    H125032   0.238   7.539  14.494 -2.1041 -2.1849  1.0964
  279TIP3    H225033   0.145   7.648  14.446  0.0987 -0.6211  0.2149
  280TIP3   OH225034   8.301   6.971  13.755 -0.0466 -0.1636  0.0674
  280TIP3    H125035   8.280   7.046  13.699 -0.5601 -0.6860 -0.4525
  280TIP3    H225036   8.334   7.011  13.836  0.6422  0.5995 -0.5719
  281TIP3   OH225037   3.171   6.899  12.933  0.0583 -0.2990 -0.1863
  281TIP3    H125038   3.228   6.856  12.869  0.1763  1.1189 -1.0892
  281TIP3    H225039   3.152   6.832  12.998  0.0834 -1.7438 -1.6238
  282TIP3   OH225040   2.556   7.125  13.297  0.6149  0.0269  0.0608
  282TIP3    H125041   2.612   7.060  13.255  0.1091 -0.0310 -0.5283
  282TIP3    H225042   2.573   7.206  13.250 -0.6002 -0.2294 -0.8430
  283TIP3   OH225043   3.899   4.438  12.991 -0.3260  0.1564  0.1083
  283TIP3    H125044   3.841   4.424  13.066 -0.3854  0.9477  0.2158
  283TIP3    H225045   3.867   4.379  12.924  0.7705 -1.8747  1.2562
  284TIP3   OH225046   6.739   1.790   8.271  0.0649 -0.1668  0.7539
  284TIP3    H125047   6.807   1.731   8.304  2.3658  1.8281 -0.0185
  284TIP3    H225048   6.732   1.768   8.178  1.4360  1.1219  0.3058
  285TIP3   OH225049   1.847   2.896   9.341  0.6198 -0.4677 -0.3625
  285TIP3    H125050   1.756   2.922   9.353  0.9798  1.4142 -1.3130
  285TIP3    H225051   1.862   2.904   9.246  2.2173  0.9620 -0.0382
  286TIP3   OH225052   7.040   4.669   8.425 -0.3349 -0.1626 -0.1932
  286TIP3    H125053   7.087   4.701   8.501 -1.8521  1.0791  0.2781
  286TIP3    H225054   7.005   4.584   8.452  0.0018 -0.2056  0.1156
  287TIP3   OH225055   6.770   6.169  10.323  0.0379 -0.1805  0.3832
  287TIP3    H125056   6.692   6.131  10.365  0.1967 -0.6871  0.2245
  287TIP3    H225057   6.784   6.252  10.370 -0.7237  0.0255  0.2713
  288TIP3   OH225058   8.203   4.660   9.217 -0.4164 -0.1920 -0.1608
  288TIP3    H125059   8.211   4.590   9.282 -0.0579 -0.0244 -0.0190
  288TIP3    H225060   8.283   4.712   9.228 -0.8104  0.4095 -0.0694
  289TIP3   OH225061   6.527   7.898   7.816  0.0983 -0.1194 -0.4362
  289TIP3    H125062   6.519   7.946   7.733  1.9488 -0.1470 -0.6807
  289TIP3    H225063   6.594   7.832   7.798  0.8120  0.1186  1.1913
  290TIP3   OH225064   1.881   4.869   8.430  0.0670 -0.1301 -0.6666
  290TIP3    H125065   1.879   4.904   8.519 -0.2464  1.2333 -1.1829
  290TIP3    H225066   1.897   4.776   8.442  0.1684  0.0410  0.8112
  291TIP3   OH225067   8.398   1.344  10.290  0.5784  0.2442 -0.0326
  291TIP3    H125068   8.409   1.268  10.348  0.1223  1.4254  1.6973
  291TIP3    H225069   8.322   1.322  10.236  0.2113 -0.4001  0.7163
  292TIP3   OH225070   3.199   7.494   8.134 -0.6873 -0.2820 -0.8155
  292TIP3    H125071   3.121   7.516   8.083 -1.7002  1.3837  1.3111
  292TIP3    H225072   3.219   7.573   8.184  2.3768 -0.6654 -1.2163
  293TIP3   OH225073   6.943   0.043   9.188 -0.4593 -0.1881 -0.2707
  293TIP3    H125074   6.867  -0.008   9.217 -0.2757 -0.1836  0.2354
  293TIP3    H225075   6.978   0.081   9.269  0.0305 -0.1184 -0.5112
  294TIP3   OH225076   4.657   4.294   8.291 -0.2106  0.4006 -0.4108
  294TIP3    H125077   4.642   4.201   8.312 -0.0856  0.1488 -1.3656
  294TIP3    H225078   4.730   4.320   8.348 -0.1605 -0.1302 -0.2242
  295TIP3   OH225079   3.923   5.230   9.130 -0.7687  0.1900  0.5437
  295TIP3    H125080   3.876   5.184   9.060  0.5253 -2.0464  1.0195
  295TIP3    H225081   3.884   5.197   9.211 -0.2978  0.5022  0.9046
  296TIP3   OH225082   2.180   2.942   7.376  0.8047  0.4655  0.7270
  296TIP3    H125083   2.201   3.031   7.347  2.0932 -0.3954 -1.1997
  296TIP3    H225084   2.266   2.900   7.386  0.1990 -1.3809 -1.2596
  297TIP3   OH225085   4.996   7.664   8.207 -0.6194 -0.1641 -0.1018
  297TIP3    H125086   5.045   7.746   8.194  1.0082 -1.2172 -1.0155
  297TIP3    H225087   5.062   7.595   8.195 -2.0054 -1.6234  0.3812
  298TIP3   OH225088   3.204   4.169   8.857  0.4892  0.5494  0.2607
  298TIP3    H125089   3.193   4.184   8.763  1.2991 -0.0928  0.0486
  298TIP3    H225090   3.212   4.257   8.894  1.2668  0.7930 -0.4271
  299TIP3   OH225091   6.998   2.077   8.117  0.2066  0.2892 -0.0749
  299TIP3    H125092   6.952   2.036   8.043  0.5400  1.5210 -1.0077
  299TIP3    H225093   6.929   2.114   8.171 -0.0166 -0.1047 -0.0895
  300TIP3   OH225094   0.294   0.591   8.332 -0.3615 -1.3448 -0.5400
  300TIP3    H125095   0.230   0.549   8.389 -0.1756 -0.9851 -0.0655
  300TIP3    H225096   0.375   0.542   8.345 -0.1631 -0.8937 -0.0401
  301TIP3   OH225097   0.159   2.268  10.072 -0.5209  0.5404  0.0358
  301TIP3    H125098   0.209   2.214  10.011  0.5315  1.2685  0.2208
  301TIP3    H225099   0.184   2.358  10.051 -2.1761  0.9714 -0.2088
  302TIP3   OH225100   1.676   0.280   9.752 -0.1782  0.7576  0.2831
  302TIP3    H125101   1.771   0.267   9.753 -0.3063 -1.0233  3.5623
  302TIP3    H225102   1.641   0.194   9.726 -0.9520  1.2565 -0.3903
  303TIP3   OH225103   8.187   5.327   9.209  0.1018  0.2657 -0.1244
  303TIP3    H125104   8.276   5.319   9.244 -0.2596  0.0980  0.7919
  303TIP3    H225105   8.198   5.324   9.114  0.8677 -2.5474 -0.0465
  304TIP3   OH225106   4.569   6.885   8.448 -0.5421  0.5070  0.4208
  304TIP3    H125107   4.628   6.907   8.520 -1.4320  1.1896  0.9615
  304TIP3    H225108   4.491   6.849   8.490 -0.0287 -1.6369 -0.3409
  305TIP3   OH225109   1.555   7.175   8.113  0.1588  0.1131  0.1947
  305TIP3    H125110   1.482   7.119   8.137  0.9383 -1.6717 -1.3593
  305TIP3    H225111   1.518   7.239   8.051 -0.7616  1.4999  2.0867
  306TIP3   OH225112   0.054   5.454   8.719  0.3522 -0.1569 -0.1517
  306TIP3    H125113   0.062   5.544   8.752 -0.6877  0.0709 -0.4779
  306TIP3    H225114   0.068   5.463   8.624 -1.7707  0.0112 -0.5029
  307TIP3   OH225115   6.228   4.187   8.803  0.1685  0.4863 -0.4816
  307TIP3    H125116   6.146   4.142   8.822 -0.5615  2.2291  0.7516
  307TIP3    H225117   6.206   4.280   8.804  2.3387  1.0889  1.0297
  308TIP3   OH225118   3.364   6.713   8.105  0.1200 -0.4560 -0.0334
  308TIP3    H125119   3.366   6.749   8.193  1.0973  1.4042 -0.7735
  308TIP3    H225120   3.453   6.723   8.072 -0.7692  1.3437 -2.1549
  309TIP3   OH225121   2.337   0.308   8.272  0.0875  0.0985 -0.3582
  309TIP3    H125122   2.287   0.282   8.350  0.1876  1.0459  0.0372
  309TIP3    H225123   2.287   0.382   8.236 -0.0108 -0.4018 -1.2545
  310TIP3   OH225124   6.280   6.002   9.089  0.0768 -0.1266  0.0578
  310TIP3    H125125   6.329   5.973   9.012 -1.1673 -1.2978 -0.3468
  310TIP3    H225126   6.291   5.932   9.153 -3.0410 -1.7549 -0.9620
  311TIP3   OH225127   4.801   6.489   8.163  0.1652  0.0608 -0.0869
  311TIP3    H125128   4.721   6.535   8.187 -0.7170 -2.6392  2.8448
  311TIP3    H225129   4.776   6.433   8.090 -0.7202 -0.7721  0.8166
  312TIP3   OH225130   5.459   0.067   8.624 -0.5927 -0.1189 -0.3293
  312TIP3    H125131   5.529   0.015   8.584 -0.2691 -0.9750  1.2603
  312TIP3    H225132   5.409   0.003   8.676 -0.5632  1.0261  1.1803
  313TIP3   OH225133   1.349   2.364   9.695 -0.4319 -0.0934 -0.1271
  313TIP3    H125134   1.430   2.414   9.711 -0.9903  0.7497  0.1277
  313TIP3    H225135   1.322   2.334   9.782 -0.1900 -0.7099 -0.2595
  314TIP3   OH225136   4.750   3.885   7.476  0.2878  0.1856 -0.6463
  314TIP3    H125137   4.678   3.835   7.513  1.2614 -0.1560  0.9036
  314TIP3    H225138   4.709   3.944   7.413 -1.5807  1.2347  1.4252
  315TIP3   OH225139   6.978   5.770   9.171  0.4091  0.0201 -0.3991
  315TIP3    H125140   6.902   5.809   9.128 -0.3583 -1.9994 -0.9806
  315TIP3    H225141   7.001   5.833   9.240  0.0010  2.0368 -1.9915
  316TIP3   OH225142   4.339   4.946   8.945 -0.0913 -0.1892  0.0094
  316TIP3    H125143   4.311   4.948   8.854  2.2086 -0.8832 -0.7757
  316TIP3    H225144   4.398   5.020   8.955  0.7068 -0.8697  0.5523
  317TIP3   OH225145   2.936   4.556   7.869  0.2430 -0.4514  0.3690
  317TIP3    H125146   3.014   4.600   7.905  0.5620 -0.5836 -0.1556
  317TIP3    H225147   2.968   4.512   7.791 -0.5298  0.1851 -0.3240
  318TIP3   OH225148   7.834   5.540   8.626  0.2021  0.0472 -0.6136
  318TIP3    H125149   7.814   5.597   8.552 -1.7926  0.3519  0.0822
  318TIP3    H225150   7.774   5.569   8.695  1.3804 -0.8015  0.8266
  319TIP3   OH225151   0.380   0.077  10.079  0.2032  0.1793 -0.2868
  319TIP3    H125152   0.403   0.163  10.113 -0.2224  0.3018 -0.3042
  319TIP3    H225153   0.459   0.047  10.034  0.4326  0.4512 -0.0667
  320TIP3   OH225154   0.041   3.373   8.186 -0.3099  0.0570 -0.3570
  320TIP3    H125155   0.111   3.342   8.243 -1.3525  0.0586  1.0009
  320TIP3    H225156   0.074   3.454   8.148  0.2345  0.3286  0.6725
  321TIP3   OH225157   1.899   4.635   7.844 -0.4649  0.3607 -0.8994
  321TIP3    H125158   1.940   4.712   7.805 -0.7749  0.9008 -0.1997
  321TIP3    H225159   1.921   4.642   7.937  1.2341 -1.4966 -1.1014
  322TIP3   OH225160   0.072   4.591   7.859  0.1183  0.6876  0.5001
  322TIP3    H125161  -0.008   4.540   7.851  0.3892  0.3674 -0.2369
  322TIP3    H225162   0.117   4.553   7.935 -0.0230  0.3087  0.3950
  323TIP3   OH225163   3.712   1.269  14.194 -0.0057 -0.3750 -0.1387
  323TIP3    H125164   3.714   1.254  14.289 -1.0430  0.0229 -0.0440
  323TIP3    H225165   3.777   1.337  14.180 -0.3430  0.0690  0.3930
  324TIP3   OH225166   0.828   1.401  14.427 -0.2131 -0.0176 -0.1880
  324TIP3    H125167   0.825   1.468  14.360  0.2151  0.3021  0.1035
  324TIP3    H225168   0.737   1.375  14.440 -0.0988 -2.5572 -3.3354
  325TIP3   OH225169   3.333   6.939  13.197  0.0099  0.0150 -0.2288
  325TIP3    H125170   3.248   6.915  13.233  0.4828  0.4574  1.2330
  325TIP3    H225171   3.342   6.883  13.120 -1.8606  0.3905 -0.7879
  326TIP3   OH225172   4.208   4.783  14.061 -0.6710 -0.4339 -0.0169
  326TIP3    H125173   4.146   4.753  13.995  0.5804  0.5018 -1.6846
  326TIP3    H225174   4.245   4.702  14.097 -1.2612 -0.9557 -0.5473
  327TIP3   OH225175   8.270   7.669  15.036  0.2034  0.1068  0.2010
  327TIP3    H125176   8.326   7.624  15.099 -0.0172  1.8142  1.6762
  327TIP3    H225177   8.327   7.687  14.962  0.5814 -1.5312  0.0426
  328TIP3   OH225178   4.470   3.538  14.858 -0.3775  0.6957 -0.4196
  328TIP3    H125179   4.489   3.576  14.943  0.5869 -2.1273  0.7429
  328TIP3    H225180   4.384   3.574  14.834  0.0936  2.8576  0.8875
  329TIP3   OH225181   0.050   1.676  14.196  0.1360  0.3609  0.1217
  329TIP3    H125182   0.061   1.744  14.128 -1.1042 -0.0230 -0.4826
  329TIP3    H225183  -0.010   1.715  14.259  0.1072  0.1491  0.2233
  330TIP3   OH225184   7.819   2.032  14.731  0.2398 -0.2651  0.0822
  330TIP3    H125185   7.858   1.978  14.800 -1.8095 -1.9173  0.0389
  330TIP3    H225186   7.728   2.043  14.757 -0.2310  0.3110 -1.6306
  331TIP3   OH225187   2.396   2.651  14.635 -0.5553  0.0318 -0.2708
  331TIP3    H125188   2.408   2.571  14.583  0.2223 -0.2024  0.2406
  331TIP3    H225189   2.418   2.624  14.725  0.0824  0.9142 -0.1562
  332TIP3   OH225190   8.028   6.648  13.433  0.2648 -0.0090 -0.1889
  332TIP3    H125191   7.976   6.706  13.378  1.0956  1.0731  0.1322
  332TIP3    H225192   8.056   6.702  13.507  2.0559 -0.4445 -0.4869
  333TIP3   OH225193   5.863   4.501  14.913 -0.0138 -0.7485  0.4376
  333TIP3    H125194   5.788   4.443  14.899 -0.4241 -0.0741 -0.2472
  333TIP3    H225195   5.825   4.589  14.915  1.0210 -0.0708 -2.9280
  334TIP3   OH225196   4.760   0.094  13.927  0.0228  0.6028 -0.3644
  334TIP3    H125197   4.720   0.078  14.013  0.4926  2.1665  0.1814
  334TIP3    H225198   4.828   0.159  13.945  2.4709 -1.5354 -1.3383
  335TIP3   OH225199   1.976   4.009  14.737  0.1673  0.3424  0.0939
  335TIP3    H125200   2.041   4.012  14.667 -0.8614 -1.6954 -1.0115
  335TIP3    H225201   1.896   4.044  14.698 -0.3844 -0.6868  0.2830
  336TIP3   OH225202   4.550   2.847  13.278 -0.0061 -0.1353 -0.1785
  336TIP3    H125203   4.615   2.918  13.280 -1.4729  1.2396  0.5221
  336TIP3    H225204   4.590   2.780  13.222  1.5935  1.0681 -0.5590
  337TIP3   OH225205   7.558   5.102  13.717 -0.0122  0.3731  0.4084
  337TIP3    H125206   7.553   5.058  13.632 -1.6618 -1.4884  1.4060
  337TIP3    H225207   7.494   5.173  13.711  0.3188  0.6404 -0.0855
  338TIP3   OH225208   5.914   7.277  14.017 -0.0756 -0.3513  0.1174
  338TIP3    H125209   5.981   7.341  14.040 -0.1802 -0.1790 -0.0580
  338TIP3    H225210   5.854   7.278  14.093  0.5739 -1.1258  0.6545
  339TIP3   OH225211   8.324   1.981  14.176 -0.1435 -0.4281 -0.1395
  339TIP3    H125212   8.319   1.898  14.224 -0.2682  0.3553  1.2808
  339TIP3    H225213   8.416   1.986  14.149  0.1040 -0.5908  0.6225
  340TIP3   OH225214   7.122   3.338  13.445 -0.0856 -0.3655 -0.2017
  340TIP3    H125215   7.031   3.369  13.454 -0.4355 -0.7831 -1.8791
  340TIP3    H225216   7.128   3.264  13.505 -1.1815 -0.9631 -0.7978
  341TIP3   OH225217   6.153   6.860  13.123 -0.5086  0.1715  0.5906
  341TIP3    H125218   6.098   6.937  13.138 -1.1501  0.0945 -1.1465
  341TIP3    H225219   6.215   6.888  13.055 -1.4319 -1.1123 -0.8449
  342TIP3   OH225220   3.087   5.890  15.228  0.1560  0.7297 -0.2328
  342TIP3    H125221   3.017   5.826  15.231  1.2944 -0.7279 -2.1664
  342TIP3    H225222   3.098   5.919  15.318 -1.0538 -1.0830  0.5474
  343TIP3   OH225223   3.640   4.163  14.790  0.3053  0.5900  1.1363
  343TIP3    H125224   3.667   4.225  14.722  0.7018  0.8427  1.5164
  343TIP3    H225225   3.572   4.110  14.749  0.5133  0.7658  0.5581
  344TIP3   OH225226   4.653   3.730  15.393  0.6095  0.1003 -0.0481
  344TIP3    H125227   4.593   3.777  15.451  0.4679  1.5087 -1.2753
  344TIP3    H225228   4.598   3.663  15.350 -0.1741  1.4749 -1.2723
  345TIP3   OH225229   7.672   3.536  12.741  0.0587 -0.2058 -0.7112
  345TIP3    H125230   7.659   3.578  12.656  0.4732 -1.2506 -1.3100
  345TIP3    H225231   7.767   3.531  12.752  0.0145 -0.6262 -0.4691
  346TIP3   OH225232   5.530   2.623  13.995 -0.0453  0.3508  0.2321
  346TIP3    H125233   5.571   2.548  13.954  0.3425  1.0673 -0.7164
  346TIP3    H225234   5.599   2.661  14.050 -0.2312  0.0472  0.6859
  347TIP3   OH225235   6.999   2.753  14.013  0.2055  0.2434 -0.1948
  347TIP3    H125236   7.095   2.755  14.015  0.2929 -0.5719 -1.9198
  347TIP3    H225237   6.972   2.814  14.082  1.9521  0.1433  0.6235
  348TIP3   OH225238   5.314   7.961  14.249 -0.6161 -0.0622  0.4014
  348TIP3    H125239   5.368   7.932  14.175  0.7104  0.9172  0.9433
  348TIP3    H225240   5.256   8.027  14.212 -0.2509  0.1134  0.1303
  349TIP3   OH225241   6.107   4.861  14.304 -0.4026 -0.1493 -0.2339
  349TIP3    H125242   6.171   4.880  14.235 -0.0530 -1.3635 -0.2845
  349TIP3    H225243   6.149   4.893  14.384 -0.0692 -0.2311 -0.3723
  350TIP3   OH225244   4.197   0.275  15.155  0.6579  0.2634  0.1486
  350TIP3    H125245   4.268   0.324  15.114  0.5056 -0.1768 -0.6714
  350TIP3    H225246   4.228   0.258  15.244  0.7936  1.6512  0.3835
  351TIP3   OH225247   8.394   3.184  15.178 -0.0432  0.0594  0.0402
  351TIP3    H125248   8.390   3.271  15.216 -0.9293 -0.1102  0.3518
  351TIP3    H225249   8.311   3.175  15.130  1.5013  0.7508 -3.0397
  352TIP3   OH225250   5.298   6.679  14.404 -0.1537 -0.0822  0.4276
  352TIP3    H125251   5.353   6.600  14.405  0.3826  0.2873  0.1926
  352TIP3    H225252   5.353   6.746  14.364 -0.2641  0.6750  1.5301
  353TIP3   OH225253   5.350   4.148  14.260  0.3115  0.2898  0.2652
  353TIP3    H125254   5.428   4.180  14.215  1.3272  1.1110  2.5087
  353TIP3    H225255   5.351   4.054  14.245  1.5912  0.3186  0.0727
  354TIP3   OH225256   7.459   1.399  13.939  0.2208 -0.0421 -0.1589
  354TIP3    H125257   7.420   1.475  13.897 -0.0939 -0.1880 -0.1353
  354TIP3    H225258   7.468   1.424  14.031 -0.9412 -0.4337  0.0796
  355TIP3   OH225259   4.397   7.315  14.575  0.1618  0.4375  0.0503
  355TIP3    H125260   4.380   7.253  14.645 -0.3547  1.6921  1.0848
  355TIP3    H225261   4.431   7.262  14.503  0.4051 -0.9243  1.1327
  356TIP3   OH225262   4.722   0.574  14.676  0.3519 -0.4067  0.1436
  356TIP3    H125263   4.650   0.638  14.677 -0.9572 -1.7997  0.2203
  356TIP3    H225264   4.801   0.626  14.667 -0.8069  1.0866 -2.9437
  357TIP3   OH225265   5.685   3.142  13.384  0.4139 -0.2972 -0.1728
  357TIP3    H125266   5.643   3.228  13.382 -0.1400 -0.4996  1.4981
  357TIP3    H225267   5.699   3.124  13.477  1.3405 -1.6361 -0.5342
  358TIP3   OH225268   3.044   7.637  14.729 -0.4498  0.0964  0.2931
  358TIP3    H125269   3.016   7.722  14.696 -0.3699  0.2897  0.7100
  358TIP3    H225270   2.968   7.603  14.777 -0.9844 -0.7247 -1.0827
  359TIP3   OH225271   3.166   4.281  14.606  0.1415  0.5678  0.0699
  359TIP3    H125272   3.097   4.302  14.670 -1.0772  1.0791 -1.3649
  359TIP3    H225273   3.182   4.364  14.560  2.0528  0.5767  0.6383
  360TIP3   OH225274   1.695   4.796  14.990 -0.4874  0.2576 -0.1802
  360TIP3    H125275   1.677   4.732  15.058  0.6332  1.4893  1.3576
  360TIP3    H225276   1.764   4.757  14.936 -1.6421 -0.8771 -0.8834
  361TIP3   OH225277   0.406   1.961  13.730  0.3051 -0.9416  0.2763
  361TIP3    H125278   0.392   1.942  13.823  0.8752 -0.3864  0.4807
  361TIP3    H225279   0.323   1.997  13.701 -0.5634 -2.9841  0.0548
  362TIP3   OH225280   4.076   4.260  13.147 -0.2913  0.1429 -0.9475
  362TIP3    H125281   4.102   4.346  13.114 -0.2143  0.0314 -1.1838
  362TIP3    H225282   4.040   4.216  13.070 -0.0384 -0.1499 -0.8979
  363TIP3   OH225283   4.089   1.796  12.845 -0.6662 -0.4018 -0.1456
  363TIP3    H125284   4.155   1.828  12.783 -2.7437  0.8766 -1.8112
  363TIP3    H225285   4.114   1.836  12.929  0.5535  0.2109 -0.7664
  364TIP3   OH225286   0.680   1.890  15.150  0.1335 -0.4231 -0.0994
  364TIP3    H125287   0.651   1.980  15.136  1.0337 -0.4313 -2.3991
  364TIP3    H225288   0.601   1.844  15.177 -0.3850  0.9741  0.9526
  365TIP3   OH225289   2.195   4.323  14.277 -0.2310 -0.0219 -0.1682
  365TIP3    H125290   2.282   4.354  14.300  0.1256 -0.2185 -1.2267
  365TIP3    H225291   2.176   4.364  14.193 -0.8834 -0.5073 -0.2677
  366TIP3   OH225292   5.881   1.584  14.535  0.1434  0.5368  0.5386
  366TIP3    H125293   5.916   1.520  14.473 -1.5862  0.6457 -0.6073
  366TIP3    H225294   5.911   1.552  14.620  2.2049  0.1436 -0.2736
  367TIP3   OH225295   1.867   7.829  14.749  0.3055  0.2344  0.8641
  367TIP3    H125296   1.953   7.819  14.789  1.4480 -0.4338 -1.5812
  367TIP3    H225297   1.862   7.758  14.686 -1.6787  0.8303  0.2891
  368TIP3   OH225298   6.767   4.120  13.294 -0.4380 -0.1849 -0.1979
  368TIP3    H125299   6.839   4.175  13.263  0.5217 -0.9899  0.5187
  368TIP3    H225300   6.809   4.058  13.354 -1.7949 -0.4286  0.5398
  369TIP3   OH225301   1.490   1.655  14.955  0.4562  0.1420  0.0049
  369TIP3    H125302   1.460   1.616  14.873  0.2565  0.1056  0.0945
  369TIP3    H225303   1.410   1.691  14.995  0.0837 -2.1369  1.4584
  370TIP3   OH225304   4.512   0.372  13.850 -0.1468  0.3823 -0.4483
  370TIP3    H125305   4.432   0.371  13.798 -0.5992  1.4922  0.2002
  370TIP3    H225306   4.580   0.339  13.791 -1.0671 -0.5729 -1.0003
  371TIP3   OH225307   3.215   5.251  13.123 -0.0526 -0.1251  0.2042
  371TIP3    H125308   3.175   5.338  13.118  0.4132  0.0428 -1.0496
  371TIP3    H225309   3.309   5.268  13.112 -0.1051 -0.8951 -1.8009
  372TIP3   OH225310   4.097   6.398  13.972 -0.0203 -0.3040 -0.4716
  372TIP3    H125311   4.018   6.353  13.944 -0.2841 -0.3949  0.3984
  372TIP3    H225312   4.085   6.488  13.943  0.4637 -0.7443 -2.1284
  373TIP3   OH225313   6.217   1.928  13.602  0.6383 -0.2918 -0.5228
  373TIP3    H125314   6.302   1.961  13.633 -0.2558  0.2382  1.5562
  373TIP3    H225315   6.223   1.833  13.615  0.1214 -0.0500  1.9557
  374TIP3   OH225316   3.281   7.592  15.085  0.5041  0.3410 -0.0769
  374TIP3    H125317   3.284   7.512  15.136  1.2485  0.0308 -0.5932
  374TIP3    H225318   3.188   7.618  15.087  0.1430 -0.8686 -0.4278
  375TIP3   OH225319   1.974   8.342  13.775 -0.1960 -0.4337  0.4139
  375TIP3    H125320   1.977   8.287  13.697 -0.0844  1.2913 -0.8547
  375TIP3    H225321   2.059   8.329  13.817 -0.1099 -1.0864  0.0527
  376TIP3   OH225322   1.264   4.995  13.114 -0.1369  0.4120 -0.4055
  376TIP3    H125323   1.196   5.061  13.102  0.1060  1.0620  1.4847
  376TIP3    H225324   1.337   5.026  13.061 -1.1024 -0.0570 -2.0859
  377TIP3   OH225325   4.016   5.778  13.197  0.5162  0.2083  0.0663
  377TIP3    H125326   4.102   5.790  13.238 -0.3804 -1.0518  2.5249
  377TIP3    H225327   3.954   5.813  13.261 -0.8712  0.0347 -1.1430
  378TIP3   OH225328   7.565   6.484  13.497  0.5123  0.6526 -0.0731
  378TIP3    H125329   7.542   6.551  13.561 -0.5115 -0.4685  0.7753
  378TIP3    H225330   7.483   6.437  13.480  0.8636  0.6083 -1.8620
  379TIP3   OH225331   6.867   3.922  13.472 -0.5421 -0.5087 -0.1296
  379TIP3    H125332   6.924   3.846  13.466 -0.0256 -0.2029  0.7797
  379TIP3    H225333   6.812   3.905  13.548  0.4507  0.5898  0.8721
  380TIP3   OH225334   6.943   1.650  15.136 -0.1445  0.6482  0.1822
  380TIP3    H125335   6.930   1.729  15.187 -1.2415  1.1847 -0.8561
  380TIP3    H225336   6.854   1.617  15.121  0.3036 -0.8746  0.7364
  381TIP3   OH225337   2.226   7.410  14.804  0.1554 -0.2823  0.0613
  381TIP3    H125338   2.201   7.318  14.813 -0.2745 -0.0198  2.2508
  381TIP3    H225339   2.266   7.432  14.889 -1.1714  1.9351  0.2003
  382TIP3   OH225340   5.919   3.779  12.964 -0.3943 -0.5160 -0.0335
  382TIP3    H125341   5.988   3.787  12.898 -1.3894 -0.7727 -1.1340
  382TIP3    H225342   5.922   3.862  13.012 -0.4200  0.1553 -1.1681
  383TIP3   OH225343   8.112   3.815  13.921  0.2942 -0.0538  0.1261
  383TIP3    H125344   8.064   3.897  13.905 -0.3568 -0.7400 -1.7165
  383TIP3    H225345   8.194   3.826  13.874  0.3287 -0.3378  0.1183
  384TIP3   OH225346   7.222   4.784  15.181 -0.3077  0.4598  0.0289
  384TIP3    H125347   7.203   4.690  15.188  2.6357 -0.2065  0.3773
  384TIP3    H225348   7.170   4.813  15.105 -0.8848 -1.5541 -0.4086
  385TIP3   OH225349   7.666   7.796  13.206  0.0380 -0.5794 -0.5859
  385TIP3    H125350   7.579   7.829  13.185  0.0753 -1.0580 -1.5256
  385TIP3    H225351   7.724   7.841  13.144  0.3407 -0.9019 -0.5403
  386TIP3   OH225352   5.556   2.041  15.060 -0.4366 -0.6382 -0.5784
  386TIP3    H125353   5.578   2.059  15.152 -1.7826 -1.3938 -0.0901
  386TIP3    H225354   5.640   2.050  15.014  0.0380  1.0492  0.5022
  387TIP3   OH225355   5.963   5.205  13.617 -0.2661  0.7882  0.2735
  387TIP3    H125356   5.936   5.186  13.707  0.4337 -2.7269 -0.1169
  387TIP3    H225357   6.058   5.195  13.618 -0.3141  0.0860 -0.9534
  388TIP3   OH225358   8.321   7.252  14.743  0.0600  0.4127 -0.0466
  388TIP3    H125359   8.281   7.292  14.820  2.1078  0.1973  1.1914
  388TIP3    H225360   8.348   7.327  14.689  1.5120  0.7044  1.0159
  389TIP3   OH225361   8.273   5.165  15.247  0.4414  0.0654 -0.2860
  389TIP3    H125362   8.201   5.191  15.305  1.2877 -0.4399  1.0418
  389TIP3    H225363   8.247   5.197  15.161 -0.9957  0.5965  0.3105
  390TIP3   OH225364   3.072   1.318  14.296 -0.0642 -0.4307 -0.2755
  390TIP3    H125365   3.039   1.393  14.246 -0.8545 -0.4367  0.2257
  390TIP3    H225366   3.152   1.351  14.337 -0.0843 -0.0391 -0.5390
  391TIP3   OH225367   3.132   4.448  14.390  0.1543  0.5090  0.1427
  391TIP3    H125368   3.063   4.509  14.365 -0.4702  0.1255  0.8890
  391TIP3    H225369   3.111   4.367  14.345  1.3006  0.9682 -1.3076
  392TIP3   OH225370   1.478   5.761  14.039  0.2187 -0.3466  0.0715
  392TIP3    H125371   1.428   5.684  14.068  0.5333 -0.2206  0.9805
  392TIP3    H225372   1.515   5.797  14.120 -0.5786  1.2414 -0.2383
  393TIP3   OH225373   7.707   5.029  13.117  0.2268 -0.1646  0.0576
  393TIP3    H125374   7.704   5.124  13.134 -0.2682 -0.1832  0.0842
  393TIP3    H225375   7.616   5.000  13.127 -0.0137 -0.2782 -2.0321
  394TIP3   OH225376   2.250   1.737  14.530  0.0879 -0.6616  0.4780
  394TIP3    H125377   2.300   1.789  14.467 -1.1651 -2.9994 -2.7253
  394TIP3    H225378   2.310   1.668  14.558 -0.1054 -1.1806 -0.3321
  395TIP3   OH225379   6.356   1.188  14.824  0.4564 -0.3632 -0.5178
  395TIP3    H125380   6.350   1.188  14.728 -0.8888  0.2632 -0.4532
  395TIP3    H225381   6.266   1.177  14.854  0.7472  0.3664  0.6776
  396TIP3   OH225382   4.854   5.927  14.230 -0.1769 -0.3030  0.1122
  396TIP3    H125383   4.927   5.987  14.247 -0.0216 -0.6492  0.7246
  396TIP3    H225384   4.780   5.966  14.277 -0.1778 -0.3797  0.1740
  397TIP3   OH225385   4.637   3.213  14.074  0.2698 -0.1637 -0.3477
  397TIP3    H125386   4.678   3.128  14.058  0.5415 -0.1911  0.4610
  397TIP3    H225387   4.567   3.219  14.009  1.1607 -0.3804 -1.3491
  398TIP3   OH225388   2.673   6.599  13.590 -0.0378 -0.2046  0.1233
  398TIP3    H125389   2.589   6.624  13.628 -0.8284 -3.4338  0.8275
  398TIP3    H225390   2.719   6.556  13.662  1.5087 -0.0306 -0.7235
  399TIP3   OH225391   6.471   5.449  14.690  0.8073  0.4870  0.0159
  399TIP3    H125392   6.512   5.366  14.716 -0.8980 -0.8714 -1.3809
  399TIP3    H225393   6.525   5.481  14.618  1.1726  0.3209  0.2132
  400TIP3   OH225394   6.515   6.890  14.970 -0.1745  0.1026  0.5215
  400TIP3    H125395   6.424   6.877  14.944 -1.1862  2.6387  2.3886
  400TIP3    H225396   6.558   6.920  14.890 -1.1767 -0.3689 -0.2159
  401TIP3   OH225397   2.457   1.766  14.990 -0.4645 -0.3522  0.0649
  401TIP3    H125398   2.449   1.674  14.964 -1.0976 -0.4269  0.5087
  401TIP3    H225399   2.427   1.815  14.913 -0.6546 -0.5267  0.0284
  402TIP3   OH225400   4.882   6.739  14.341  0.1642 -0.5028 -0.0321
  402TIP3    H125401   4.946   6.715  14.407 -0.4794 -1.8575  0.1401
  402TIP3    H225402   4.831   6.810  14.380  1.2604  0.2946 -0.0118
  403TIP3   OH225403   5.356   8.206  14.754  0.2831 -0.4301 -0.5206
  403TIP3    H125404   5.439   8.207  14.708  0.1982  0.5233 -0.6766
  403TIP3    H225405   5.376   8.169  14.840  1.3283  1.7404  0.2386
  404TIP3   OH225406   4.849   2.421  14.973 -0.4789  0.0979  0.0339
  404TIP3    H125407   4.873   2.436  15.064  1.3764  1.5180 -0.6286
  404TIP3    H225408   4.865   2.505  14.930 -1.1896 -0.5741 -1.6388
  405TIP3   OH225409   2.112   3.525  14.892 -0.6410 -0.2966 -0.1928
  405TIP3    H125410   2.058   3.474  14.953 -3.2899  1.6133 -0.7476
  405TIP3    H225411   2.092   3.616  14.912  1.1437  0.4805 -1.6118
  406TIP3   OH225412   6.319   4.506  15.767 -0.4793  0.1195  0.5127
  406TIP3    H125413   6.368   4.424  15.759 -0.4844  0.1004  0.6774
  406TIP3    H225414   6.318   4.524  15.861 -0.2345  0.4534  0.4559
  407TIP3   OH225415   3.919   4.795  14.737 -0.2554 -0.7473  0.2293
  407TIP3    H125416   3.828   4.823  14.728  0.2146  0.8516  0.1415
  407TIP3    H225417   3.931   4.780  14.831  0.2110  2.2008  0.7220
  408TIP3   OH225418   2.117   6.253  14.969 -0.2899  0.0631 -0.0863
  408TIP3    H125419   2.132   6.158  14.975 -0.1904  0.0075 -1.0943
  408TIP3    H225420   2.039   6.262  14.914 -0.2352  0.5699 -0.0865
  409TIP3   OH225421   2.843   3.155  13.128  0.0338 -0.6897 -0.2472
  409TIP3    H125422   2.881   3.067  13.133  0.6514 -0.5128 -1.3844
  409TIP3    H225423   2.787   3.153  13.050 -0.1821 -0.1644 -0.1127
  410TIP3   OH225424   4.077   2.592  14.832 -0.0717  0.0495 -0.7176
  410TIP3    H125425   3.999   2.638  14.802  0.3891  0.1629 -1.7704
  410TIP3    H225426   4.055   2.499  14.823  0.4479  0.0679 -2.5213
  411TIP3   OH225427   5.057   2.543  13.581  0.4961 -0.1859  0.0817
  411TIP3    H125428   5.143   2.503  13.571 -0.4573 -1.8224 -2.3115
  411TIP3    H225429   5.074   2.637  13.585  2.3245 -0.4027 -1.6694
  412TIP3   OH225430   6.406   3.039  12.684 -0.3868 -0.2305 -0.0201
  412TIP3    H125431   6.493   3.073  12.665 -0.6815  0.8382  0.4918
  412TIP3    H225432   6.422   2.953  12.724  0.5209  0.6554  1.6083
  413TIP3   OH225433   0.532   8.103  13.049 -0.1627  0.4950 -0.1826
  413TIP3    H125434   0.601   8.162  13.019  1.6862 -2.4360 -2.2494
  413TIP3    H225435   0.577   8.039  13.104 -1.6481 -0.3361  0.1177
  414TIP3   OH225436   7.607   2.650  13.498  0.1500 -0.3065  0.1588
  414TIP3    H125437   7.637   2.560  13.509  0.2428 -0.4634 -1.2485
  414TIP3    H225438   7.513   2.642  13.480  0.2086 -0.1315 -0.2163
  415TIP3   OH225439   1.560   7.160  13.855  0.5720  0.4142 -0.4623
  415TIP3    H125440   1.567   7.146  13.950  1.7084  0.9207 -0.4485
  415TIP3    H225441   1.642   7.124  13.820  0.9644  1.7966 -1.0379
  416TIP3   OH225442   7.322   2.617  14.692  0.0989  0.2779 -0.9241
  416TIP3    H125443   7.243   2.640  14.643 -0.4223  1.2128  0.2797
  416TIP3    H225444   7.308   2.526  14.719 -2.3996  1.4100  2.3787
  417TIP3   OH225445   7.626   7.983  12.900 -0.5370  0.4839  0.3366
  417TIP3    H125446   7.629   7.927  12.822 -2.8665  1.0822 -0.2769
  417TIP3    H225447   7.567   7.937  12.960  4.0508 -1.9538  3.5858
  418TIP3   OH225448   2.039   5.072  13.770 -0.0900 -0.1977  0.3984
  418TIP3    H125449   2.089   5.011  13.824 -1.3881 -2.4836 -0.8372
  418TIP3    H225450   1.983   5.119  13.831  2.3592  1.3406  1.6217
  419TIP3   OH225451   3.088   7.912  13.775 -0.1781  0.1809 -0.0815
  419TIP3    H125452   3.115   7.878  13.861  0.1474  0.3216 -0.1286
  419TIP3    H225453   3.079   8.006  13.788  0.2807  0.2570 -0.3090
  420TIP3   OH225454   2.831   2.887  15.041 -0.0506  0.5173  0.4831
  420TIP3    H125455   2.840   2.982  15.050 -0.5065  0.6608 -0.4790
  420TIP3    H225456   2.744   2.874  15.004  0.5590 -0.1939 -0.7404
  421TIP3   OH225457   3.377   4.082  14.258  0.2925  0.0317  0.0593
  421TIP3    H125458   3.386   4.159  14.202  1.0648  0.3471  0.5895
  421TIP3    H225459   3.424   4.013  14.212  1.3325  0.4116  0.5159
  422TIP3   OH225460   6.228   0.572  13.914  0.6746  0.3794 -0.5532
  422TIP3    H125461   6.188   0.489  13.887 -1.4650  1.3629 -0.5948
  422TIP3    H225462   6.322   0.555  13.910  0.3121 -1.9053 -0.9739
  423TIP3   OH225463   5.681   1.162  13.585  0.0668  0.0324 -0.3966
  423TIP3    H125464   5.733   1.111  13.648  0.2525 -1.3054 -1.5884
  423TIP3    H225465   5.705   1.253  13.603  0.2614 -0.3210  1.3220
  424TIP3   OH225466   6.640   2.814  14.510 -0.4550  0.1193  0.2736
  424TIP3    H125467   6.640   2.883  14.576 -0.1980 -0.5808  1.0142
  424TIP3    H225468   6.605   2.737  14.555  1.3782 -0.8443  0.1265
  425TIP3   OH225469   1.711   1.858  14.706  0.2733  0.0278 -0.4841
  425TIP3    H125470   1.797   1.894  14.724  0.1545 -0.2582  0.7186
  425TIP3    H225471   1.725   1.763  14.702 -0.0827 -0.0763  0.4128
  426TIP3   OH225472   7.188   4.015  13.511  0.1687 -0.5415 -0.3742
  426TIP3    H125473   7.263   3.961  13.539 -0.0046 -0.9459 -0.6744
  426TIP3    H225474   7.143   4.037  13.592  1.3092  0.7683 -0.0593
  427TIP3   OH225475   1.132   1.086  14.111  0.1749 -0.3009 -0.0304
  427TIP3    H125476   1.087   1.133  14.181 -2.9233 -0.0049 -1.9979
  427TIP3    H225477   1.145   1.152  14.043  0.2321 -1.2111 -0.9295
  428TIP3   OH225478   2.768   4.609  14.063  0.5051 -0.2188  0.1099
  428TIP3    H125479   2.777   4.517  14.040 -1.0292 -0.0606 -1.3452
  428TIP3    H225480   2.734   4.608  14.153  1.0504 -1.0386  0.3182
  429TIP3   OH225481   0.257   0.543  13.877  0.0750  0.1813 -0.0541
  429TIP3    H125482   0.246   0.615  13.816  1.1243  1.2947  1.0182
  429TIP3    H225483   0.318   0.484  13.832  1.9070  1.6373  0.3823
  430TIP3   OH225484   2.336   7.870  14.373 -0.1262  0.6363 -0.5013
  430TIP3    H125485   2.376   7.787  14.399 -0.5086  0.4374 -0.5331
  430TIP3    H225486   2.269   7.886  14.439 -0.4387  0.6279 -0.8136
  431TIP3   OH225487   5.508   3.674  14.777 -0.2587  0.6175 -0.1968
  431TIP3    H125488   5.517   3.614  14.851 -0.0392  1.9560  0.9001
  431TIP3    H225489   5.598   3.694  14.751 -0.3346 -0.8411 -1.6941
  432TIP3   OH225490   0.665   4.335  13.491 -0.1690  0.1909  0.0797
  432TIP3    H125491   0.607   4.411  13.491  0.1750  0.4765  1.1789
  432TIP3    H225492   0.665   4.305  13.401 -0.6258  1.2611 -0.2947
  433TIP3   OH225493   0.537   7.145  13.353  0.7673  0.6277 -0.3955
  433TIP3    H125494   0.608   7.206  13.332  0.2376  1.3286 -0.1916
  433TIP3    H225495   0.570   7.059  13.327  1.7632  0.9177 -0.1189
  434TIP3   OH225496   2.205   6.352  14.300  0.1625 -0.2842  0.0171
  434TIP3    H125497   2.261   6.382  14.372 -1.8666 -0.4344  1.7729
  434TIP3    H225498   2.205   6.256  14.309  0.0708 -0.3182 -0.3404
  435TIP3   OH225499   4.629   6.927  14.946  0.1383 -0.2278  0.9074
  435TIP3    H125500   4.652   6.904  14.856  1.6300 -1.8000  1.6428
  435TIP3    H225501   4.599   7.017  14.941 -0.3782 -0.4735 -1.2524
  436TIP3   OH225502   1.201   7.845  14.007 -0.1260  0.6537  0.3277
  436TIP3    H125503   1.202   7.897  14.087 -0.3247  1.2987 -0.0797
  436TIP3    H225504   1.293   7.825  13.990  0.0417  1.6306  0.0155
  437TIP3   OH225505   4.119   6.017  14.713 -0.0997 -0.3626 -0.5119
  437TIP3    H125506   4.139   6.057  14.797  0.5401  1.7968 -1.6300
  437TIP3    H225507   4.200   5.971  14.689 -1.2558 -3.7877  1.4056
  438TIP3   OH225508   0.995   0.921  14.653  0.0535  0.3840 -0.2327
  438TIP3    H125509   0.903   0.896  14.666 -0.1653  1.2807  0.0339
  438TIP3    H225510   1.045   0.847  14.686 -0.5643 -1.1921 -2.5824
  439TIP3   OH225511   7.628   2.054  14.965 -0.0889  0.3306 -0.3064
  439TIP3    H125512   7.626   2.143  14.928 -1.6503 -0.0959 -1.3798
  439TIP3    H225513   7.538   2.023  14.955  0.1969 -1.0075  1.0091
  440TIP3   OH225514   7.779   0.744  13.388 -0.2378  0.1366 -0.5212
  440TIP3    H125515   7.772   0.730  13.293  1.5723 -0.7768 -0.5509
  440TIP3    H225516   7.805   0.836  13.397 -0.5476  0.2647 -0.8865
  441TIP3   OH225517   7.270   7.290  14.282 -0.1488  0.0093 -0.0976
  441TIP3    H125518   7.281   7.270  14.189  1.6105  0.8067 -0.1078
  441TIP3    H225519   7.191   7.242  14.308 -1.0183  0.2277 -2.1210
  442TIP3   OH225520   4.717   1.670  13.419  0.2174 -0.4766  0.0711
  442TIP3    H125521   4.728   1.618  13.499 -1.4818  1.2088  1.4965
  442TIP3    H225522   4.644   1.729  13.439 -0.5810 -0.3104 -2.9144
  443TIP3   OH225523   5.860   5.071  13.885 -0.1874  0.9688 -0.6845
  443TIP3    H125524   5.768   5.048  13.870 -0.0623 -0.7858  0.9041
  443TIP3    H225525   5.859   5.120  13.967  0.5444 -1.8582  1.1507
  444TIP3   OH225526   6.514   3.991  15.041  0.0860 -0.0243 -0.2758
  444TIP3    H125527   6.544   3.902  15.062 -1.1295 -0.1779  0.9800
  444TIP3    H225528   6.423   3.993  15.070 -0.0502  1.5052 -0.7138
  445TIP3   OH225529   5.563   1.699  13.387 -0.3480 -0.8644  0.3698
  445TIP3    H125530   5.599   1.705  13.475  0.7560  0.8650 -0.1464
  445TIP3    H225531   5.492   1.764  13.386 -0.2111 -0.7223 -0.0831
  446TIP3   OH225532   4.882   1.482  13.691  0.0618 -0.5123 -0.0395
  446TIP3    H125533   4.787   1.486  13.698  0.0599 -0.6600  0.0114
  446TIP3    H225534   4.907   1.405  13.741  0.2060 -0.4921 -0.0801
  447TIP3   OH225535   8.393   1.708  14.584  0.0188 -0.1359 -0.4713
  447TIP3    H125536   8.378   1.614  14.597  1.6418 -0.7464 -2.3986
  447TIP3    H225537   8.484   1.713  14.555 -0.0891  2.0422 -0.5727
  448TIP3   OH225538   0.501   4.845  14.608  0.2303 -0.0923  0.1330
  448TIP3    H125539   0.473   4.817  14.696 -0.8199  1.1484  0.2163
  448TIP3    H225540   0.444   4.796  14.549  0.1816 -0.0948  0.1812
  449TIP3   OH225541   2.143   8.242  13.947  0.3602  0.1458 -0.3868
  449TIP3    H125542   2.181   8.276  14.028  3.0140  0.2271 -1.5568
  449TIP3    H225543   2.140   8.148  13.960 -1.5031  0.3127  0.6637
  450TIP3   OH225544   6.978   4.835  13.813  0.2424  0.8331 -0.2352
  450TIP3    H125545   7.061   4.883  13.809 -0.4870  2.1398 -4.0139
  450TIP3    H225546   6.911   4.904  13.816 -0.7581 -0.0516 -1.3462
  451TIP3   OH225547   3.689   3.225  12.889 -0.3586 -0.7520  0.2240
  451TIP3    H125548   3.746   3.289  12.846 -1.6326 -0.4086 -0.9785
  451TIP3    H225549   3.741   3.144  12.890  0.1284 -0.4718 -0.9387
  452TIP3   OH225550   0.483   2.773  15.291 -0.4661 -0.4685 -0.2503
  452TIP3    H125551   0.443   2.728  15.366  1.0955 -1.5236 -0.0154
  452TIP3    H225552   0.409   2.814  15.246 -1.6367 -1.1888  0.9404
  453TIP3   OH225553   7.951   2.089  13.114 -0.3668 -0.2017  1.0429
  453TIP3    H125554   7.977   2.145  13.041 -0.5012 -1.4012  0.0419
  453TIP3    H225555   8.033   2.067  13.159 -0.0535 -0.9172  0.1535
  454TIP3   OH225556   0.397   4.832  13.395 -0.0973 -0.1923 -0.6441
  454TIP3    H125557   0.311   4.789  13.399  0.2564 -0.9439 -1.0330
  454TIP3    H225558   0.460   4.760  13.394  0.6169  0.3633  1.0443
  455TIP3   OH225559   6.752   6.559  13.575  0.2259 -0.2134  0.0663
  455TIP3    H125560   6.727   6.612  13.498  1.2318 -0.0048 -0.1342
  455TIP3    H225561   6.721   6.610  13.650  1.1289  0.6582 -0.1272
  456TIP3   OH225562   4.690   4.038  14.440  0.0374 -0.2348 -0.6588
  456TIP3    H125563   4.602   4.066  14.414 -0.1015  1.2473  1.2144
  456TIP3    H225564   4.743   4.054  14.362 -1.3146 -1.1606 -1.8293
  457TIP3   OH225565   7.225   0.554  13.749 -0.0096 -0.3066  0.3214
  457TIP3    H125566   7.169   0.587  13.679  0.0166 -0.0258  0.4316
  457TIP3    H225567   7.177   0.479  13.785 -1.3429  1.1559  1.7936
  458TIP3   OH225568   5.342   5.064  15.119  0.9235 -0.0570 -0.0214
  458TIP3    H125569   5.267   5.108  15.078 -0.2901 -1.6928  0.3327
  458TIP3    H225570   5.417   5.118  15.096 -0.0173  0.3397 -2.4633
  459TIP3   OH225571   2.910   8.085  14.492 -0.0154 -0.3392  0.2478
  459TIP3    H125572   2.935   8.166  14.537 -0.1929 -0.0782 -0.1220
  459TIP3    H225573   2.879   8.113  14.406 -1.1305 -0.7057  0.5144
  460TIP3   OH225574   0.214   0.333  12.998  0.1914 -0.7898  0.4098
  460TIP3    H125575   0.180   0.245  13.014 -0.6083 -0.8280 -1.3270
  460TIP3    H225576   0.137   0.390  13.000  0.2938 -0.5473 -1.1945
  461TIP3   OH225577   5.514   1.595  12.820  0.2162 -0.6555 -0.7177
  461TIP3    H125578   5.581   1.544  12.773 -0.1588 -1.6346 -0.2316
  461TIP3    H225579   5.435   1.542  12.812  0.4514 -1.5958  2.2031
  462TIP3   OH225580   6.932   5.803  13.993  0.1758  0.4565 -0.1133
  462TIP3    H125581   6.857   5.782  13.937 -0.4832 -1.9405  1.5319
  462TIP3    H225582   7.008   5.790  13.937 -0.4974 -0.9207 -0.7571
  463TIP3   OH225583   2.708   1.872  13.318  0.2441  0.2986 -0.5324
  463TIP3    H125584   2.693   1.919  13.400 -1.4220  0.7701 -1.0749
  463TIP3    H225585   2.643   1.908  13.257 -0.3583 -1.8882 -1.2825
  464TIP3   OH225586   2.933   7.878  14.326  0.6010  0.3505 -0.3378
  464TIP3    H125587   2.934   7.942  14.397  1.7514  0.4662 -0.4404
  464TIP3    H225588   2.901   7.798  14.367 -2.1105  1.2434 -0.4868
  465TIP3   OH225589   4.466   4.465  15.315 -0.5055 -0.0967 -0.2115
  465TIP3    H125590   4.424   4.403  15.375 -0.9381 -1.0141 -1.4192
  465TIP3    H225591   4.395   4.495  15.259 -0.3573  1.7643  0.5517
  466TIP3   OH225592   0.815   0.578  14.769 -0.1424  0.2444  0.0105
  466TIP3    H125593   0.850   0.532  14.693  0.0151 -0.0746  0.2791
  466TIP3    H225594   0.757   0.515  14.811 -1.6536  0.9954 -0.8537
  467TIP3   OH225595   2.073   8.421  14.288  0.0669  0.3519  0.2186
  467TIP3    H125596   2.000   8.377  14.245  1.4435 -0.9217 -0.9021
  467TIP3    H225597   2.151   8.380  14.252  1.3548  1.3550  1.7264
  468TIP3   OH225598   1.367   4.608  13.147 -0.6702  0.4638  0.1676
  468TIP3    H125599   1.452   4.599  13.104 -0.8347  0.6840 -0.2069
  468TIP3    H225600   1.382   4.575  13.236 -0.0686  0.9392  0.2562
  469TIP3   OH225601   5.586   3.281  14.896 -0.3105  0.6385 -0.0464
  469TIP3    H125602   5.643   3.209  14.924 -1.6507 -0.5094 -0.1371
  469TIP3    H225603   5.643   3.339  14.847  0.5543 -1.1525 -1.2925
  470TIP3   OH225604   1.314   0.555  13.635  0.0574  0.0905  0.1912
  470TIP3    H125605   1.347   0.642  13.611 -0.1354 -0.1782 -1.1291
  470TIP3    H225606   1.244   0.539  13.572  1.0051 -1.5952 -0.4950
  471TIP3   OH225607   2.656   2.759  14.058  0.3934 -0.2439  0.1923
  471TIP3    H125608   2.685   2.668  14.057 -0.3883 -0.5447  1.9855
  471TIP3    H225609   2.651   2.782  14.150 -0.1121  1.4007 -0.2107
  472TIP3   OH225610   2.922   1.931  14.387 -0.2367  0.3423  0.2630
  472TIP3    H125611   2.984   1.860  14.373 -0.8947 -0.3006  0.5488
  472TIP3    H225612   2.961   2.007  14.342  1.0159  0.1042  0.9026
  473TIP3   OH225613   6.899   6.024  14.151  0.4602  0.0401  0.0065
  473TIP3    H125614   6.887   5.954  14.088  1.3695 -0.5394  0.4479
  473TIP3    H225615   6.952   5.985  14.221  0.3944  0.9669  0.5999
  474TIP3   OH225616   2.216   0.334  13.486  0.7633  0.3153  0.1724
  474TIP3    H125617   2.302   0.375  13.502  1.4320 -1.0611  0.2325
  474TIP3    H225618   2.233   0.268  13.420  0.4746 -2.2125  2.4515
  475TIP3   OH225619   3.919   5.878  15.026 -0.1546 -0.5100 -0.3768
  475TIP3    H125620   3.899   5.906  14.937  0.5110  1.3368 -0.0022
  475TIP3    H225621   3.961   5.793  15.016  1.1153  0.2427 -1.9772
  476TIP3   OH225622   6.824   1.729  14.810 -0.5765  0.2381  0.5538
  476TIP3    H125623   6.855   1.648  14.771 -0.8780  0.3349  0.1057
  476TIP3    H225624   6.758   1.702  14.874  0.5885  0.0130  1.7024
  477TIP3   OH225625   7.517   1.244  15.224 -0.5156  0.3621  0.2818
  477TIP3    H125626   7.476   1.329  15.240  3.3624  2.4381  0.5825
  477TIP3    H225627   7.555   1.252  15.137  0.6728 -0.6659  0.6717
  478TIP3   OH225628   7.826   2.721  13.284 -0.2944  0.4052  0.1342
  478TIP3    H125629   7.840   2.702  13.192  0.9245  0.6783  0.2568
  478TIP3    H225630   7.912   2.714  13.325 -0.7117  0.8709  1.1500
  479TIP3   OH225631   7.560   0.955  14.831 -0.0750  0.5767 -0.0141
  479TIP3    H125632   7.566   0.971  14.736  0.9309  0.4646  0.0138
  479TIP3    H225633   7.650   0.969  14.862 -0.0032 -1.1146  0.6434
  480TIP3   OH225634   4.799   2.393  12.943 -0.5274  0.1142 -0.1558
  480TIP3    H125635   4.740   2.453  12.898 -0.3708 -0.3906 -1.0629
  480TIP3    H225636   4.785   2.411  13.036 -0.0135  2.0286 -0.3897
  481TIP3   OH225637   4.850   4.090  14.221  0.3362 -0.4513  0.1696
  481TIP3    H125638   4.939   4.124  14.224 -0.6321  2.2955  2.9765
  481TIP3    H225639   4.812   4.131  14.144  0.5975  1.0587  0.8153
  482TIP3   OH225640   5.184   8.424  13.040 -0.0362  0.1744 -0.8565
  482TIP3    H125641   5.273   8.415  13.075 -0.1840  1.2939 -0.1560
  482TIP3    H225642   5.192   8.492  12.973 -0.2848 -0.0218 -1.0863
  483TIP3   OH225643   1.381   3.730  13.625 -0.4355  0.4147 -0.0207
  483TIP3    H125644   1.335   3.737  13.709 -0.8116 -0.8314 -0.0958
  483TIP3    H225645   1.457   3.676  13.644 -0.4824  0.1877 -0.4611
  484TIP3   OH225646   2.274   4.018  14.401  0.1876 -0.6229 -0.3462
  484TIP3    H125647   2.258   3.990  14.310 -2.6228  0.2658 -0.2222
  484TIP3    H225648   2.188   4.043  14.433  1.3464  0.4317  2.1511
  485TIP3   OH225649   5.827   2.480  14.532  0.8346  0.4284  0.2134
  485TIP3    H125650   5.900   2.539  14.516  0.1236  1.1573 -0.4808
  485TIP3    H225651   5.867   2.396  14.556  1.9873 -0.0059 -2.8611
  486TIP3   OH225652   1.105   7.226  13.000 -0.1871 -0.0850  0.0242
  486TIP3    H125653   1.122   7.310  13.043 -1.0166  0.5371 -0.8175
  486TIP3    H225654   1.191   7.183  12.996  0.8295  1.9018 -1.9568
  487TIP3   OH225655   6.520   7.921  13.658 -0.0263 -0.5949  0.1761
  487TIP3    H125656   6.551   7.914  13.748 -0.3737  1.9161  0.5693
  487TIP3    H225657   6.434   7.879  13.659 -0.1576 -0.3347  1.1133
  488TIP3   OH225658   0.406   4.486  13.619 -0.0569 -0.0236  0.6304
  488TIP3    H125659   0.425   4.517  13.530  0.8823  0.6303  1.0511
  488TIP3    H225660   0.352   4.554  13.657 -0.4785 -0.3160  0.5669
  489TIP3   OH225661   4.055   6.670  13.860  0.1218  0.0594 -0.4805
  489TIP3    H125662   3.967   6.703  13.880 -0.0819 -0.1351 -1.0301
  489TIP3    H225663   4.049   6.640  13.769  0.9719  0.7367 -0.7640
  490TIP3   OH225664   3.859   2.246  14.870 -0.4515  0.4994  0.3185
  490TIP3    H125665   3.931   2.289  14.824  0.6712 -1.0121  0.6062
  490TIP3    H225666   3.810   2.318  14.910  1.9169  1.4910  1.5852
  491TIP3   OH225667   2.698   2.418  13.762 -0.2370 -0.5143  0.5958
  491TIP3    H125668   2.762   2.362  13.717 -0.4584  0.7711 -1.4569
  491TIP3    H225669   2.634   2.357  13.799  0.0211 -1.6701 -0.7925
  492TIP3   OH225670   0.824   5.204  15.135 -0.3992 -0.4982 -0.4952
  492TIP3    H125671   0.837   5.110  15.126 -0.7826 -0.8024  1.6546
  492TIP3    H225672   0.907   5.237  15.167 -1.1665 -0.6415  1.8127
  493TIP3   OH225673   3.360   8.406  13.585 -0.3581  0.1072  0.2666
  493TIP3    H125674   3.451   8.376  13.577 -0.4198 -0.2412  0.8085
  493TIP3    H225675   3.339   8.395  13.677 -0.3899  1.8550  0.4987
  494TIP3   OH225676   6.825   4.939  14.574 -0.7269  0.7411 -0.1961
  494TIP3    H125677   6.757   4.961  14.510 -1.7058  0.3192  0.6652
  494TIP3    H225678   6.779   4.939  14.658  0.1572 -0.4376  0.3091
  495TIP3   OH225679   8.059   1.699  13.809  0.2047 -0.4230 -0.2558
  495TIP3    H125680   8.080   1.787  13.840 -1.0911 -0.1829  0.0093
  495TIP3    H225681   8.073   1.702  13.715  1.2482 -0.2667 -0.1013
  496TIP3   OH225682   2.971   5.470  15.315  0.9083  0.0049 -0.0647
  496TIP3    H125683   3.064   5.489  15.311  0.6382  1.1418 -2.0915
  496TIP3    H225684   2.931   5.549  15.350  0.6596 -0.3094  0.3684
  497TIP3   OH225685   6.972   0.003  14.313  0.4336  0.3332  0.0862
  497TIP3    H125686   6.888  -0.011  14.358  1.3038 -1.8742  1.1800
  497TIP3    H225687   7.037   0.000  14.384  1.6477 -0.8490 -1.0241
  498TIP3   OH225688   0.161   0.013  13.791 -0.2201 -0.4023  0.2758
  498TIP3    H125689   0.102  -0.044  13.742  0.0188  0.7929 -1.4811
  498TIP3    H225690   0.243   0.011  13.742  0.1009  0.6712  0.7371
  499TIP3   OH225691   1.682   4.017  14.258  0.4150 -0.4722  0.1044
  499TIP3    H125692   1.612   4.025  14.323  0.2043 -1.4691  0.0144
  499TIP3    H225693   1.680   3.925  14.232 -1.2846  0.3169 -3.2858
  500TIP3   OH225694   2.594   5.273  14.843 -0.0081 -0.7831 -0.6153
  500TIP3    H125695   2.575   5.180  14.859 -2.5618 -0.1774  0.4705
  500TIP3    H225696   2.645   5.300  14.920  0.4661 -1.1952 -0.7775
  501TIP3   OH225697   6.295   5.783  13.879  0.1631 -0.3626 -0.2527
  501TIP3    H125698   6.236   5.709  13.892  2.4398 -2.0185  1.6542
  501TIP3    H225699   6.327   5.774  13.789  0.2659 -1.6202 -0.1029
  502TIP3   OH225700   2.582   0.944  14.926 -0.1157 -0.1034 -0.4586
  502TIP3    H125701   2.607   0.862  14.967 -1.2125 -0.6915 -0.9218
  502TIP3    H225702   2.605   0.932  14.833  0.6541  0.5127 -0.3606
  503TIP3   OH225703   2.828   3.347  13.996  0.2607  0.1650 -0.0503
  503TIP3    H125704   2.853   3.399  13.920  0.6920  0.0375  0.0021
  503TIP3    H225705   2.733   3.336  13.988  0.4793 -1.0330 -1.3108
  504TIP3   OH225706   5.610   3.382  14.490 -0.8604  0.8667 -0.2116
  504TIP3    H125707   5.586   3.294  14.461 -0.8498  0.6845  0.3104
  504TIP3    H225708   5.526   3.428  14.498 -0.8925  0.8025 -0.1767
  505TIP3   OH225709   4.841   2.044  13.142 -0.1922 -0.3712 -0.0798
  505TIP3    H125710   4.913   2.102  13.167  1.0679 -2.0079  0.3094
  505TIP3    H225711   4.795   2.027  13.224 -0.7122  0.2674 -0.2371
  506TIP3   OH225712   0.037   3.147  12.904  0.5433  0.5709  0.6258
  506TIP3    H125713   0.030   3.052  12.909  1.0498  0.4258 -0.8938
  506TIP3    H225714   0.117   3.168  12.952  0.2336  0.2739  1.2791
  507TIP3   OH225715   2.966   1.492  13.344  0.3736 -0.0536  0.5106
  507TIP3    H125716   3.002   1.470  13.258 -1.2158 -4.1576  0.6797
  507TIP3    H225717   3.004   1.427  13.403 -1.1217  0.5989  2.2667
  508TIP3   OH225718   7.222   0.315  14.972  0.2406  0.3158 -0.0215
  508TIP3    H125719   7.258   0.243  15.024 -0.9797  0.0685  0.5288
  508TIP3    H225720   7.133   0.327  15.006 -0.9217 -0.3829 -2.5859
  509TIP3   OH225721   1.592   2.299  13.041 -0.6218 -0.3442 -0.0988
  509TIP3    H125722   1.592   2.329  12.950  0.5859  0.2640  0.0792
  509TIP3    H225723   1.536   2.361  13.087 -0.3027  0.0477 -0.2303
  510TIP3   OH225724   3.131   4.218  13.296  0.0802 -0.3959  0.2717
  510TIP3    H125725   3.088   4.250  13.376 -2.8272 -1.0327 -0.9135
  510TIP3    H225726   3.102   4.127  13.289 -1.0970  0.0874 -2.2816
  511TIP3   OH225727   0.235   6.427  12.984  0.5500  0.1742  0.0291
  511TIP3    H125728   0.142   6.408  12.991  0.6723 -0.5318 -0.1092
  511TIP3    H225729   0.267   6.366  12.917  0.9255  1.0995 -0.6497
  512TIP3   OH225730   2.447   4.482  15.007  0.1992  0.6603  0.0196
  512TIP3    H125731   2.443   4.552  15.073 -0.5785  0.7334 -0.0947
  512TIP3    H225732   2.433   4.401  15.057 -1.4229  0.7871 -0.1533
  513TIP3   OH225733   7.751   6.124  15.284 -0.1150  0.4861  0.0437
  513TIP3    H125734   7.735   6.165  15.369 -0.4023  2.2419 -0.8149
  513TIP3    H225735   7.807   6.186  15.238  1.6807 -1.3126 -0.3951
  514TIP3   OH225736   5.330   6.140  13.670 -0.4521  0.1094 -0.1033
  514TIP3    H125737   5.394   6.133  13.741 -2.6925  1.1314  2.1888
  514TIP3    H225738   5.280   6.059  13.675 -1.1403  0.5355  0.0734
  515TIP3   OH225739   3.269   2.463  14.095  0.5556 -0.8786 -0.3368
  515TIP3    H125740   3.208   2.515  14.148 -1.9148 -3.6881 -0.1195
  515TIP3    H225741   3.271   2.507  14.010  0.8890  1.1062  0.6419
  516TIP3   OH225742   1.671   4.820  12.743 -0.5534  0.6812  0.6945
  516TIP3    H125743   1.735   4.805  12.812 -1.1500 -0.4163  1.0336
  516TIP3    H225744   1.721   4.812  12.662  0.0599  1.5395  0.9678
  517TIP3   OH225745   1.777   1.522  14.748 -0.1183 -0.1121 -0.5453
  517TIP3    H125746   1.684   1.539  14.763  0.1691  1.3509 -0.2923
  517TIP3    H225747   1.813   1.507  14.836  0.2825  1.5743 -0.3937
  518TIP3   OH225748   4.812   1.582  14.999  0.4828  0.2843 -0.2121
  518TIP3    H125749   4.761   1.638  14.941 -0.1336 -1.3685 -1.3319
  518TIP3    H225750   4.747   1.540  15.056  0.6729 -0.9795 -0.8900
  519TIP3   OH225751   3.502   6.814  14.314  0.3161 -0.3110  0.3288
  519TIP3    H125752   3.466   6.747  14.256  0.4368 -0.1749  0.0989
  519TIP3    H225753   3.515   6.890  14.258 -1.0593  0.3385  0.8487
  520TIP3   OH225754   0.559   0.425  14.817 -0.2642  0.1623 -0.5387
  520TIP3    H125755   0.582   0.389  14.732 -0.2817 -0.9044 -0.1076
  520TIP3    H225756   0.479   0.476  14.801  0.0589  0.4546 -1.2591
  521TIP3   OH225757   2.129   7.776  15.128  0.5901 -0.0839 -0.3033
  521TIP3    H125758   2.147   7.689  15.164  2.7132 -0.6291 -2.4442
  521TIP3    H225759   2.048   7.803  15.170 -1.0260 -3.7611 -0.6790
  522TIP3   OH225760   3.053   2.622  14.447 -0.4476 -0.0173  0.0068
  522TIP3    H125761   3.100   2.540  14.456 -1.2327 -0.7867 -2.1745
  522TIP3    H225762   3.087   2.678  14.517 -0.3947 -2.3895  2.0188
  523TIP3   OH225763   2.587   4.643  15.166 -0.1085 -1.2066 -0.1757
  523TIP3    H125764   2.611   4.675  15.253  0.3905  0.1329 -0.7832
  523TIP3    H225765   2.661   4.666  15.110 -0.1527 -2.6026 -0.8602
  524TIP3   OH225766   3.527   0.580  12.648  0.5409  0.2168 -0.4758
  524TIP3    H125767   3.585   0.652  12.624  1.7391 -1.2326 -2.1821
  524TIP3    H225768   3.572   0.502  12.617 -0.5945 -1.3322  1.5024
  525TIP3   OH225769   1.849   3.000  12.812  0.1763 -0.1601  0.3272
  525TIP3    H125770   1.845   2.962  12.899  1.4972 -0.0445  0.4552
  525TIP3    H225771   1.769   2.970  12.769  0.4585 -1.8423  0.9220
  526TIP3   OH225772   5.542   5.140  14.704  0.4237 -0.0122 -0.1794
  526TIP3    H125773   5.447   5.130  14.704  0.4695 -0.5369  0.1283
  526TIP3    H225774   5.562   5.174  14.791  0.4534  0.8937 -0.5289
  527TIP3   OH225775   2.617   5.288  14.334 -0.0351 -0.0859  0.0131
  527TIP3    H125776   2.588   5.311  14.246  0.0443 -0.2732 -0.0633
  527TIP3    H225777   2.678   5.215  14.321  1.1648  0.8526  0.0887
  528TIP3   OH225778   4.977   1.778  13.405  0.0122 -0.0724  0.5917
  528TIP3    H125779   4.897   1.728  13.391  0.4076 -0.4247 -0.5211
  528TIP3    H225780   4.946   1.863  13.436 -0.9711  0.5279 -1.7766
  529TIP3   OH225781   6.389   5.477  14.280 -0.2989 -0.1865 -0.2269
  529TIP3    H125782   6.408   5.385  14.261 -0.5830 -0.2437 -0.2333
  529TIP3    H225783   6.418   5.490  14.370  2.3649  0.4405 -1.0774
  530TIP3   OH225784   7.843   6.779  13.293 -0.2681  0.6175  0.8219
  530TIP3    H125785   7.895   6.809  13.218  0.4146  2.0202  1.8092
  530TIP3    H225786   7.756   6.762  13.257  0.8202 -2.0462 -0.9450
  531TIP3   OH225787   0.935   3.996  13.867  0.1961  0.1994 -1.2347
  531TIP3    H125788   0.874   3.937  13.911  0.9550 -0.5321 -1.1512
  531TIP3    H225789   0.915   3.986  13.774 -1.1321  1.4430 -1.1218
  532TIP3   OH225790   0.227   2.473  14.329  0.0307  0.4921 -0.3030
  532TIP3    H125791   0.246   2.437  14.243 -0.7651 -0.5334 -0.0699
  532TIP3    H225792   0.159   2.415  14.365  1.3021  0.0817  1.5502
  533TIP3   OH225793   1.704   0.328  14.562 -0.0424 -0.1562 -0.3213
  533TIP3    H125794   1.653   0.258  14.604  0.6496 -1.0323 -0.9152
  533TIP3    H225795   1.794   0.295  14.562  0.6511  1.5610  1.1306
  534TIP3   OH225796   7.801   6.022  14.442  0.5852 -0.3338  0.6665
  534TIP3    H125797   7.814   5.932  14.471  1.5257  0.4818  3.0570
  534TIP3    H225798   7.706   6.036  14.450  0.4212 -1.1149  0.2038
  535TIP3   OH225799   4.412   6.591  13.323 -0.2529 -0.2495 -0.2507
  535TIP3    H125800   4.377   6.654  13.386 -1.4297  0.5024 -1.6294
  535TIP3    H225801   4.337   6.537  13.298  0.7544 -2.4199  1.0542
  536TIP3   OH225802   5.671   1.723  13.634  0.6643 -0.8279 -0.0201
  536TIP3    H125803   5.676   1.816  13.656  1.1923 -0.4526 -1.5961
  536TIP3    H225804   5.759   1.689  13.651  0.8696 -0.7011 -0.7810
  537TIP3   OH225805   0.297   1.260  14.699  0.1410  0.2983  0.8142
  537TIP3    H125806   0.302   1.165  14.687 -1.8149  0.3587 -1.0943
  537TIP3    H225807   0.376   1.282  14.748  1.9804 -2.0052 -0.8770
  538TIP3   OH225808   7.703   6.427  13.256  0.0854 -0.3443  0.3385
  538TIP3    H125809   7.648   6.485  13.310  0.9839 -1.3489  2.4288
  538TIP3    H225810   7.641   6.384  13.198 -1.1759 -0.3873  1.6523
  539TIP3   OH225811   6.790   3.443  13.201 -0.2719  0.2861  0.1937
  539TIP3    H125812   6.782   3.460  13.295  0.6855  1.8358  0.0179
  539TIP3    H225813   6.815   3.527  13.163 -2.8998  0.3051 -1.7913
  540TIP3   OH225814   4.222   0.366  14.538 -0.2159 -0.2103 -0.6412
  540TIP3    H125815   4.161   0.428  14.577 -0.8062 -0.2604 -1.4552
  540TIP3    H225816   4.176   0.333  14.460  0.4627 -0.9700 -0.7317
  541TIP3   OH225817   3.013   6.462  14.283  0.6772 -0.3275 -0.0460
  541TIP3    H125818   3.027   6.368  14.293 -2.6596 -0.6979  3.7918
  541TIP3    H225819   3.086   6.502  14.331  0.7520 -1.0909  0.4925
  542TIP3   OH225820   4.906   2.812  13.609  0.1309  0.1845 -0.2574
  542TIP3    H125821   4.823   2.766  13.593 -0.9008  1.7477  0.3323
  542TIP3    H225822   4.948   2.815  13.523 -0.7191 -0.0893 -0.7024
  543TIP3   OH225823   2.478   1.619  14.592 -0.3967  0.5322  0.3116
  543TIP3    H125824   2.494   1.585  14.680  0.4541  0.9362  0.3255
  543TIP3    H225825   2.565   1.629  14.554 -0.7065  1.2308 -0.2437
  544TIP3   OH225826   8.371   1.833  13.544 -0.4550 -0.5156 -0.1571
  544TIP3    H125827   8.344   1.834  13.452 -0.5789  0.7631 -0.1272
  544TIP3    H225828   8.460   1.799  13.542  0.5909  2.0074 -1.1171
  545TIP3   OH225829   2.913   0.728  13.722  0.2226  0.4164 -0.4376
  545TIP3    H125830   2.826   0.736  13.760  0.3254  0.9721 -0.3142
  545TIP3    H225831   2.899   0.730  13.628  0.0682  0.1404 -0.4197
  546TIP3   OH225832   8.440   7.094  13.965 -0.7657 -0.4274 -0.0179
  546TIP3    H125833   8.421   7.049  14.047 -0.8512 -0.0780  0.1547
  546TIP3    H225834   8.533   7.115  13.969 -0.6903 -0.7330 -0.1692
  547TIP3   OH225835   2.195   7.577  13.528 -0.0400 -0.1214  0.2385
  547TIP3    H125836   2.257   7.553  13.458  0.0249 -0.4084  0.3907
  547TIP3    H225837   2.242   7.556  13.609  0.8658  2.4858  0.4732
  548TIP3   OH225838   2.906   6.981  13.857 -0.3394  0.1151  0.0083
  548TIP3    H125839   2.815   6.951  13.865 -1.2071  2.6476  0.4272
  548TIP3    H225840   2.899   7.076  13.847  2.3666  0.6536  2.2465
  549TIP3   OH225841   4.071   5.607  13.741 -0.0385  0.2741 -0.1953
  549TIP3    H125842   4.120   5.566  13.812  0.1478  1.1096  0.1678
  549TIP3    H225843   4.137   5.640  13.681 -0.1347  1.3057  0.2400
  550TIP3   OH225844   7.677   6.307  13.717  0.4190 -0.4275  0.1434
  550TIP3    H125845   7.764   6.323  13.752  0.2784  1.6297 -0.3207
  550TIP3    H225846   7.620   6.367  13.766 -0.2255  0.4576 -1.6101
  551TIP3   OH225847   0.720   4.372  12.913 -0.1451  0.1859 -0.4037
  551TIP3    H125848   0.649   4.436  12.903  0.7490  1.5395  1.1972
  551TIP3    H225849   0.800   4.425  12.912  0.6910 -1.0130  0.0887
  552TIP3   OH225850   3.542   0.983  13.836  0.6125 -0.0833  0.0271
  552TIP3    H125851   3.550   0.889  13.820  0.2132 -0.3908  1.4759
  552TIP3    H225852   3.451   1.003  13.813  1.2516  0.4145 -2.3062
  553TIP3   OH225853   8.447   6.759  13.580 -0.2059 -0.1062  0.4033
  553TIP3    H125854   8.392   6.723  13.510 -1.3792 -0.4948  1.4824
  553TIP3    H225855   8.398   6.834  13.613 -0.3668 -0.7616  1.7278
  554TIP3   OH225856   6.076   0.218  14.218 -0.4333  0.2659  0.2599
  554TIP3    H125857   6.012   0.193  14.285  0.0817  1.5244  1.2708
  554TIP3    H225858   6.040   0.296  14.177 -0.2445  0.1062 -0.2172
  555TIP3   OH225859   2.336   0.652  14.997 -0.3306  0.6475  0.5930
  555TIP3    H125860   2.247   0.620  15.009 -0.1187 -0.3897 -0.3844
  555TIP3    H225861   2.333   0.744  15.022 -1.9654  0.9334 -0.5449
  556TIP3   OH225862   1.167   0.471  14.657  0.6435  0.5473  0.1248
  556TIP3    H125863   1.087   0.516  14.629  0.1081 -0.0702  0.6452
  556TIP3    H225864   1.208   0.532  14.719  0.0395  0.4297  0.6512
  557TIP3   OH225865   3.852   2.963  14.960  0.1033 -0.5618 -0.2821
  557TIP3    H125866   3.919   2.923  15.016  0.6412 -1.3320 -1.4380
  557TIP3    H225867   3.864   3.057  14.972  0.8286 -0.7043  0.1818
  558TIP3   OH225868   7.787   3.580  14.063 -0.2121  0.0912  0.3393
  558TIP3    H125869   7.747   3.583  13.976 -0.4211  1.5740  0.4592
  558TIP3    H225870   7.718   3.543  14.119 -0.2550 -0.4058 -0.0427
  559TIP3   OH225871   1.374   1.138  13.359 -0.4461 -0.6088 -0.2020
  559TIP3    H125872   1.385   1.044  13.346 -0.9603 -0.7205  0.1075
  559TIP3    H225873   1.413   1.155  13.445  0.7719 -0.3099 -0.8036
  560TIP3   OH225874   5.572   0.508  14.128 -0.6144  0.2188  0.5582
  560TIP3    H125875   5.510   0.577  14.105 -2.4446 -1.5069  0.0041
  560TIP3    H225876   5.647   0.524  14.071  1.4066  4.6583  3.8253
  561TIP3   OH225877   6.749   2.665  14.747  0.1705 -0.0595 -0.2852
  561TIP3    H125878   6.774   2.573  14.733 -0.1381 -0.1882 -0.0102
  561TIP3    H225879   6.820   2.715  14.708  1.1073 -0.4124  0.8720
  562TIP3   OH225880   0.573   3.640  13.829 -0.0076  0.0647 -0.1665
  562TIP3    H125881   0.620   3.605  13.754 -2.0205  0.3996 -1.6639
  562TIP3    H225882   0.624   3.716  13.856  1.2749 -0.6373 -0.5484
  563TIP3   OH225883   3.209   0.560  14.386  0.9645 -0.0809 -0.2606
  563TIP3    H125884   3.197   0.469  14.413 -2.3562  0.8574  2.0175
  563TIP3    H225885   3.277   0.594  14.444  0.4033 -0.4770  0.6468
  564TIP3   OH225886   7.163   8.376  14.517 -0.3911  0.0013  0.2161
  564TIP3    H125887   7.181   8.287  14.486 -0.9552 -0.2792  0.6735
  564TIP3    H225888   7.125   8.364  14.604  1.2625  0.7773  1.1008
  565TIP3   OH225889   4.638   2.916  14.201 -0.5893 -0.4994  0.1185
  565TIP3    H125890   4.625   2.826  14.173 -1.2986 -0.8961  1.5934
  565TIP3    H225891   4.552   2.945  14.230  0.1111 -0.2814  2.1760
  566TIP3   OH225892   5.538   7.488  14.275  0.3453 -0.1018 -0.3402
  566TIP3    H125893   5.572   7.574  14.300 -0.1971  0.7409 -2.2834
  566TIP3    H225894   5.443   7.499  14.274  0.2282 -0.9969  0.2589
  567TIP3   OH225895   0.477   1.797  14.253 -0.0138 -0.6502  0.7372
  567TIP3    H125896   0.569   1.771  14.253  0.8328  1.8020 -1.7982
  567TIP3    H225897   0.468   1.850  14.332  0.8384 -0.6944  0.8786
  568TIP3   OH225898   1.514   5.538  13.588  0.3813  0.1821  0.2009
  568TIP3    H125899   1.522   5.541  13.683 -0.6721 -1.0158  0.3522
  568TIP3    H225900   1.450   5.605  13.567  0.9416  0.7528  0.2725
  569TIP3   OH225901   5.656   3.241  13.671  0.4648  0.4367  0.6396
  569TIP3    H125902   5.683   3.315  13.726 -1.4252 -0.0376  2.3170
  569TIP3    H225903   5.560   3.240  13.678  0.4345 -2.2322  0.7918
  570TIP3   OH225904   2.727   6.643  15.014 -0.3268  0.1640 -0.0383
  570TIP3    H125905   2.713   6.730  14.977 -0.5631 -0.2914 -1.0617
  570TIP3    H225906   2.713   6.583  14.941  0.7647 -0.6911  0.4135
  571TIP3   OH225907   1.100   2.760  14.518 -0.1666  0.1290  0.2809
  571TIP3    H125908   1.029   2.742  14.579  0.0190  0.1979  0.5205
  571TIP3    H225909   1.057   2.771  14.433 -0.3430 -0.7659  0.2488
  572TIP3   OH225910   6.877   2.321  13.711  0.2080 -0.3379  0.1246
  572TIP3    H125911   6.966   2.342  13.739 -0.2059 -0.7598  1.8664
  572TIP3    H225912   6.871   2.356  13.621  1.1726  2.3909  1.0172
  573TIP3   OH225913   0.215   3.924  15.171  0.5155 -0.3216  0.4397
  573TIP3    H125914   0.181   3.975  15.244  0.0185  0.4476 -0.3186
  573TIP3    H225915   0.309   3.946  15.168  0.5301 -0.3313  0.8218
  574TIP3   OH225916   0.544   2.112  15.121  0.4506 -0.3676 -0.3640
  574TIP3    H125917   0.475   2.163  15.163  0.8431 -0.5643  0.5354
  574TIP3    H225918   0.560   2.157  15.038  1.4043  1.4908  0.7827
  575TIP3   OH225919   5.528   3.684  15.119  0.1053 -0.0295  0.2408
  575TIP3    H125920   5.490   3.600  15.094 -1.6472  0.5864  0.6601
  575TIP3    H225921   5.457   3.747  15.103  1.1112  1.2511  0.6972
  576TIP3   OH225922   3.061   3.314  13.279  0.1040  0.0547  0.2629
  576TIP3    H125923   3.028   3.366  13.351 -1.4118  0.0334 -0.3763
  576TIP3    H225924   2.983   3.281  13.235  0.9933 -0.5929 -0.9086
  577TIP3   OH225925   6.379   4.051  14.013  0.1472  0.2292  0.5072
  577TIP3    H125926   6.300   4.098  14.038  0.1055  1.2125 -1.3293
  577TIP3    H225927   6.357   4.010  13.929  1.3758 -0.0383  0.3009
  578TIP3   OH225928   8.385   1.415  14.621  0.5230 -0.4256  0.5952
  578TIP3    H125929   8.447   1.408  14.548 -0.5484  0.4352 -0.4319
  578TIP3    H225930   8.301   1.388  14.584  0.0044 -0.2019  1.5767
  579TIP3   OH225931   7.011   2.787  14.659 -0.0603  0.1467  0.1405
  579TIP3    H125932   7.047   2.721  14.598 -3.7877 -1.2092 -0.8647
  579TIP3    H225933   7.026   2.870  14.615 -1.9535 -0.7374 -2.4463
  580TIP3   OH225934   3.131   5.440  14.109  0.2769  0.3154 -0.6172
  580TIP3    H125935   3.162   5.476  14.192  1.9036 -1.1501 -0.5370
  580TIP3    H225936   3.043   5.407  14.128  0.1176  1.1838  0.1685
  581TIP3   OH225937   1.312   0.263  14.836  0.3088 -0.3018 -0.2797
  581TIP3    H125938   1.307   0.318  14.758  1.1041 -1.2933 -1.0591
  581TIP3    H225939   1.228   0.275  14.879 -0.2069  0.1617 -1.3704
  582TIP3   OH225940   6.954   4.517  14.066  0.0307 -0.1829  0.3952
  582TIP3    H125941   6.983   4.539  13.978 -0.2410  1.8195  0.7715
  582TIP3    H225942   6.935   4.601  14.107 -0.8873 -1.1383  2.0196
  583TIP3   OH225943   4.120   6.469  15.088  0.0588 -0.0270 -0.1120
  583TIP3    H125944   4.084   6.383  15.109 -0.4896  0.0230 -0.7871
  583TIP3    H225945   4.185   6.486  15.155 -3.0803  1.0918  2.9366
  584TIP3   OH225946   6.333   1.086  14.514 -0.1755  0.5165 -0.6015
  584TIP3    H125947   6.249   1.082  14.561  0.0342  2.2110 -0.0089
  584TIP3    H225948   6.315   1.142  14.439  0.9672  2.9745  0.8586
  585TIP3   OH225949   7.338   7.350  13.371 -0.0956  0.8405  0.1843
  585TIP3    H125950   7.413   7.299  13.403 -0.1112  1.5209  1.3700
  585TIP3    H225951   7.279   7.285  13.334  0.6065  0.1722  0.2137
  586TIP3   OH225952   7.091   5.328  15.398 -0.4370 -0.4123 -0.3392
  586TIP3    H125953   7.076   5.401  15.459  1.1490 -0.6042  0.3527
  586TIP3    H225954   7.186   5.316  15.399 -0.3288 -0.3590 -2.9686
  587TIP3   OH225955   4.923   2.307  13.389 -0.4229  0.1240 -0.1995
  587TIP3    H125956   4.972   2.386  13.413  1.4802 -1.3220  0.9480
  587TIP3    H225957   4.890   2.274  13.473 -2.4181  0.4040 -0.8207
  588TIP3   OH225958   1.226   3.800  13.846 -0.3532 -0.1245 -0.4289
  588TIP3    H125959   1.253   3.783  13.937 -1.1902 -0.4549 -0.2269
  588TIP3    H225960   1.216   3.895  13.841  1.0127  0.0205 -0.5692
  589TIP3   OH225961   1.530   7.004  15.218 -0.5658  0.2389  0.1041
  589TIP3    H125962   1.443   6.972  15.196 -0.3481 -1.0537  0.9922
  589TIP3    H225963   1.515   7.072  15.284 -0.9814  1.3993 -1.1331
  590TIP3   OH225964   1.709   3.888  13.150 -0.1808  0.3872  0.0861
  590TIP3    H125965   1.618   3.908  13.130 -0.0020  0.9687 -0.1907
  590TIP3    H225966   1.755   3.971  13.136  0.4043  0.0762  0.1220
  591TIP3   OH225967   0.293   1.589  14.262  0.1375  0.1317 -0.1986
  591TIP3    H125968   0.347   1.667  14.251 -0.8596  0.8560 -0.1158
  591TIP3    H225969   0.204   1.619  14.246 -0.1986 -1.1556 -0.9241
  592TIP3   OH225970   6.981   6.090  13.760  0.5723 -0.0269  0.5203
  592TIP3    H125971   6.940   6.175  13.739  1.6901  0.9542  2.1020
  592TIP3    H225972   6.998   6.094  13.854 -0.2219 -2.4361  0.8318
  593TIP3   OH225973   6.226   4.324  13.926 -0.1831  0.7861 -0.0288
  593TIP3    H125974   6.319   4.328  13.946 -0.0023  1.8137 -1.0242
  593TIP3    H225975   6.188   4.276  14.000  1.0340  0.9336  0.7139
  594TIP3   OH225976   5.904   5.725  14.039  0.4517 -0.3205 -0.0221
  594TIP3    H125977   5.957   5.798  14.071  0.6982  0.3303 -1.8233
  594TIP3    H225978   5.814   5.758  14.041  0.3791 -0.5473  0.6789
  595TIP3   OH225979   2.253   7.470  15.093  0.2428 -0.1520  0.4148
  595TIP3    H125980   2.248   7.396  15.153 -0.1077 -0.6143 -0.1828
  595TIP3    H225981   2.163   7.490  15.071  0.3942 -0.3897 -0.4506
  596TIP3   OH225982   2.335   7.509  14.266 -0.2235  0.1587 -0.2144
  596TIP3    H125983   2.371   7.539  14.349 -4.2991 -0.3541  2.0128
  596TIP3    H225984   2.301   7.421  14.284 -0.1620 -0.5055 -2.8388
  597TIP3   OH225985   4.239   0.703  13.959  0.4084 -0.4696  0.1515
  597TIP3    H125986   4.316   0.758  13.974  0.9194 -1.0324 -0.4002
  597TIP3    H225987   4.168   0.749  14.005  0.9197  0.4185  0.0833
  598TIP3   OH225988   4.599   2.130  13.709  0.2243  0.0583 -0.7208
  598TIP3    H125989   4.529   2.154  13.648  0.3000 -0.8845 -1.1961
  598TIP3    H225990   4.564   2.054  13.756  0.1980  0.7228  0.3609
  599TIP3   OH225991   3.951   1.845  14.067 -0.3306  0.3312 -0.4651
  599TIP3    H125992   4.013   1.772  14.066 -0.1617  0.4745 -0.5921
  599TIP3    H225993   3.896   1.829  14.144  2.1561  2.1125  1.8752
  600TIP3   OH225994   3.297   8.427  14.432 -0.1307 -0.9638  0.7205
  600TIP3    H125995   3.239   8.500  14.452 -1.1348 -1.4763 -0.2344
  600TIP3    H225996   3.380   8.450  14.474 -0.2345  1.0032 -0.0695
  601TIP3   OH225997   4.744   0.503  12.467 -0.6055  0.1071 -0.7415
  601TIP3    H125998   4.835   0.476  12.479 -0.6721 -0.4711 -1.4519
  601TIP3    H225999   4.698   0.421  12.450 -1.8952 -0.1300  3.0105
  602TIP3   OH226000   2.410   1.966  13.842 -0.1655 -0.3993  0.1263
  602TIP3    H126001   2.381   1.970  13.933  1.1551 -0.0733  0.5502
  602TIP3    H226002   2.382   1.879  13.812  0.2776 -0.9181  1.1626
  603TIP3   OH226003   6.659   1.321  14.588  0.0629  0.6304 -0.0155
  603TIP3    H126004   6.612   1.339  14.506 -0.4302  0.9103  0.3212
  603TIP3    H226005   6.631   1.233  14.613  1.3060 -0.0368 -0.8742
  604TIP3   OH226006   1.885   7.179  14.013 -0.6980  0.0494  0.5375
  604TIP3    H126007   1.822   7.214  13.950  1.2926  1.4492 -0.8061
  604TIP3    H226008   1.832   7.152  14.088 -2.9539  0.2811 -0.8968
  605TIP3   OH226009   6.258   1.504  14.796  0.0869  0.6385 -0.1492
  605TIP3    H126010   6.298   1.575  14.745 -1.0235  1.4669  0.0852
  605TIP3    H226011   6.313   1.428  14.779  1.7597  1.7146  0.1687
  606TIP3   OH226012   0.120   0.173  14.648 -0.2153  0.6704 -0.1236
  606TIP3    H126013   0.198   0.161  14.595 -0.7628  0.7763 -0.9704
  606TIP3    H226014   0.053   0.120  14.604 -1.4625  3.0305 -1.2637
  607TIP3   OH226015   5.819   0.249  13.929  0.3057  0.1623  0.2887
  607TIP3    H126016   5.874   0.203  13.866 -0.7833 -1.1063  0.2258
  607TIP3    H226017   5.808   0.188  14.002  0.2344  0.9898  0.9891
  608TIP3   OH226018   1.110   5.760  13.879  0.3825  0.1402 -0.2984
  608TIP3    H126019   1.101   5.744  13.973  0.4000 -2.2297 -0.6436
  608TIP3    H226020   1.192   5.809  13.871  0.6533 -0.0996  0.8660
  609TIP3   OH226021   4.799   6.714  14.942 -0.2131  0.0000 -0.0790
  609TIP3    H126022   4.739   6.789  14.949  0.7522  0.7903  0.0134
  609TIP3    H226023   4.879   6.751  14.905 -0.8008 -1.6345 -3.3179
  610TIP3   OH226024   7.231   2.893  13.807 -0.1335 -0.4303  0.0949
  610TIP3    H126025   7.174   2.970  13.806  0.4693  0.0444  0.9877
  610TIP3    H226026   7.226   2.858  13.718  0.1922  1.0843 -0.5459
  611TIP3   OH226027   6.615   3.023  14.707 -0.0296  0.2050 -0.2040
  611TIP3    H126028   6.606   3.081  14.631 -1.2874  0.8123  0.3639
  611TIP3    H226029   6.526   3.020  14.744  0.7659  0.9036  1.9294
  612TIP3   OH226030   2.793   5.749  14.940 -0.0438 -0.3302 -0.3095
  612TIP3    H126031   2.813   5.671  14.887  0.6432  0.6372 -1.5191
  612TIP3    H226032   2.701   5.768  14.923 -0.0795 -0.5776 -0.3934
  613TIP3   OH226033   1.549   4.825  14.441 -0.1440 -0.3081 -0.2811
  613TIP3    H126034   1.605   4.808  14.366 -0.8513  0.3492 -0.9779
  613TIP3    H226035   1.574   4.759  14.506  1.4086 -0.0262 -0.5720
  614TIP3   OH226036   3.750   7.197  13.876  0.1063 -0.1230 -0.2818
  614TIP3    H126037   3.728   7.273  13.821 -0.7779 -2.0504 -2.8041
  614TIP3    H226038   3.700   7.212  13.957 -1.5790  1.1015 -1.4507
  615TIP3   OH226039   1.819   5.250  14.336  0.4458  0.3513 -0.3465
  615TIP3    H126040   1.889   5.186  14.326  1.3042  1.3846 -1.3096
  615TIP3    H226041   1.780   5.231  14.421  0.6658 -1.4282 -0.6213
  616TIP3   OH226042   1.593   7.309  13.604  0.1000 -0.3407 -0.1372
  616TIP3    H126043   1.586   7.400  13.632  1.3107 -0.3632  0.2703
  616TIP3    H226044   1.602   7.259  13.685  0.6592 -0.7017 -0.4150
  617TIP3   OH226045   4.443   6.257  13.442 -0.0664  0.0577 -0.2541
  617TIP3    H126046   4.400   6.235  13.359 -0.7169  0.3339  0.0059
  617TIP3    H226047   4.535   6.270  13.418 -0.3005  0.4357 -0.9877
  618TIP3   OH226048   2.970   7.705  13.060  0.2760 -0.5589 -0.3856
  618TIP3    H126049   2.911   7.645  13.105  0.9173 -0.9800 -0.0775
  618TIP3    H226050   3.043   7.650  13.032  0.6929  0.0095 -0.4370
  619TIP3   OH226051   6.521   7.299  13.612 -0.1025  0.1816 -0.1763
  619TIP3    H126052   6.518   7.220  13.667 -2.2468  1.1448  1.2070
  619TIP3    H226053   6.444   7.349  13.637  1.6865  3.2324 -0.2576
  620TIP3   OH226054   6.706   6.170  13.985  0.0843  0.3138  0.9485
  620TIP3    H126055   6.775   6.141  14.045  0.2361  0.1046  0.6775
  620TIP3    H226056   6.699   6.099  13.921  1.3097  1.3739 -0.4372
  621TIP3   OH226057   5.323   2.546  13.540  0.2354 -0.1224  0.4401
  621TIP3    H126058   5.299   2.598  13.464  2.6012 -0.7284 -0.8203
  621TIP3    H226059   5.321   2.608  13.613 -1.3344  0.6441 -0.1963
  622TIP3   OH226060   2.398   5.471  15.108  0.6269 -0.0733 -0.1591
  622TIP3    H126061   2.323   5.529  15.123  0.5738  0.1952 -1.3224
  622TIP3    H226062   2.403   5.464  15.013  0.7563 -1.8545 -0.0428
  623TIP3   OH226063   6.939   7.805  13.777  0.6935 -0.3512 -0.3538
  623TIP3    H126064   6.938   7.868  13.849 -2.1548 -1.5840  0.7959
  623TIP3    H226065   6.897   7.851  13.704 -0.3574 -0.5089  0.1371
  624TIP3   OH226066   6.194   5.011  14.074  0.3578 -0.7435 -0.2463
  624TIP3    H126067   6.162   5.096  14.043  0.3054 -0.3840  0.7673
  624TIP3    H226068   6.194   4.956  13.995 -0.5787 -0.1031 -0.7216
  625TIP3   OH226069   0.196   7.667  13.758 -0.5396 -0.4647  0.5183
  625TIP3    H126070   0.171   7.588  13.807 -1.3794 -1.3872 -1.3115
  625TIP3    H226071   0.114   7.714  13.744 -0.2267  0.0662  0.4397
  626TIP3   OH226072   1.163   2.147  14.132  0.1126 -0.0816 -0.0949
  626TIP3    H126073   1.205   2.081  14.077 -0.5657 -0.6801  0.1005
  626TIP3    H226074   1.151   2.222  14.074  1.5470  0.1602 -0.1336
  627TIP3   OH226075   2.560   4.728  13.172 -0.6348 -0.7788  0.4750
  627TIP3    H126076   2.476   4.706  13.133 -0.2765 -1.0781 -0.1508
  627TIP3    H226077   2.538   4.765  13.257 -1.4989  0.7691 -0.3688
  628TIP3   OH226078   7.766   0.520  12.844 -0.3087 -0.0213  0.0453
  628TIP3    H126079   7.830   0.583  12.878 -1.8348  0.2025  2.8175
  628TIP3    H226080   7.814   0.438  12.836  0.4934  0.2749  1.5108
  629TIP3   OH226081   1.940   3.631  14.599  0.7854 -0.3386 -0.2609
  629TIP3    H126082   1.987   3.712  14.582  0.2755 -0.1659 -0.9190
  629TIP3    H226083   2.007   3.568  14.624  0.9660  0.9527  3.0502
  630TIP3   OH226084   3.261   3.572  13.830 -0.1018 -0.4457  0.1070
  630TIP3    H126085   3.221   3.598  13.913  0.0771  0.8260 -0.1818
  630TIP3    H226086   3.274   3.655  13.783  1.9018 -0.9070 -0.2375
  631TIP3   OH226087   8.326   0.337  14.372  0.2095 -0.1266  0.1878
  631TIP3    H126088   8.244   0.292  14.351  0.7840 -1.0467 -0.1145
  631TIP3    H226089   8.395   0.273  14.352  1.1206  1.2343 -1.3388
  632TIP3   OH226090   6.808   1.165  13.495 -0.0527  0.5646 -0.0312
  632TIP3    H126091   6.894   1.193  13.527 -0.1900  1.3774 -0.3364
  632TIP3    H226092   6.799   1.210  13.411 -0.8106  0.5621  0.0448
  633TIP3   OH226093   6.119   0.786  14.680  0.3255  0.6991  0.6411
  633TIP3    H126094   6.156   0.778  14.592 -1.0675 -2.6406  0.1815
  633TIP3    H226095   6.171   0.724  14.732  0.0608  1.4012  1.7553
  634TIP3   OH226096   1.368   8.297  13.958 -0.1790  0.5640 -0.1255
  634TIP3    H126097   1.401   8.223  13.907 -2.9569 -0.0889 -1.1759
  634TIP3    H226098   1.423   8.371  13.932 -0.1259 -0.2146 -2.4865
  635TIP3   OH226099   1.763   1.992  14.147 -0.8309 -0.2786  0.3240
  635TIP3    H126100   1.788   1.951  14.065 -1.6166  1.2474 -0.7108
  635TIP3    H226101   1.725   1.921  14.199 -0.6295 -1.1867 -0.7552
  636TIP3   OH226102   6.405   0.129  15.424 -0.0064  0.0630 -0.1547
  636TIP3    H126103   6.404   0.033  15.426  1.7841 -0.0962 -2.5952
  636TIP3    H226104   6.426   0.154  15.514 -2.6147 -1.6716  1.0773
  637TIP3   OH226105   1.085   5.584  14.263  0.3936 -0.6346  0.0413
  637TIP3    H126106   1.029   5.549  14.193 -0.4677 -1.3936  1.0675
  637TIP3    H226107   1.058   5.675  14.271  0.0768 -0.7003 -0.2205
  638TIP3   OH226108   0.252   2.495  13.369  0.1867  0.2098  0.3946
  638TIP3    H126109   0.235   2.584  13.397 -0.5915 -0.2419  1.3896
  638TIP3    H226110   0.188   2.442  13.416  1.4223 -1.0127  0.7430
  639TIP3   OH226111   0.056   1.373  14.870  0.3991  0.3286  0.3011
  639TIP3    H126112   0.023   1.398  14.784 -0.8645  1.0364  0.9661
  639TIP3    H226113   0.134   1.320  14.852 -0.8098 -0.9960 -1.3301
  640TIP3   OH226114   4.391   3.254  14.818 -0.2151 -0.3000 -0.1348
  640TIP3    H126115   4.483   3.237  14.797 -0.7125 -1.1647 -1.7896
  640TIP3    H226116   4.389   3.347  14.841  1.0377 -0.2369 -0.1866
  641TIP3   OH226117   0.923   5.680  14.935 -0.1002  0.0191 -0.0962
  641TIP3    H126118   0.841   5.692  14.982 -0.5063  1.0672 -1.0424
  641TIP3    H226119   0.934   5.585  14.930 -1.0706 -0.1256  0.3531
  642TIP3   OH226120   6.790   0.121  14.082 -0.2816 -0.1882  0.2621
  642TIP3    H126121   6.808   0.031  14.111  0.4142  0.0919  0.7177
  642TIP3    H226122   6.846   0.176  14.137  0.7294  0.4009 -1.2957
  643TIP3   OH226123   6.581   3.217  14.472  0.5431  0.3780 -0.1308
  643TIP3    H126124   6.517   3.213  14.400  2.5115  1.0591 -2.0319
  643TIP3    H226125   6.559   3.298  14.519 -2.1563 -1.1892  1.5275
  644TIP3   OH226126   6.884   6.290  14.643 -0.0305  0.5837 -0.1257
  644TIP3    H126127   6.806   6.260  14.596  0.5838 -0.2181 -0.6552
  644TIP3    H226128   6.948   6.308  14.575  0.0600  1.8581  0.2665
  645TIP3   OH226129   0.528   2.615  15.012 -0.2090 -0.6800  0.4258
  645TIP3    H126130   0.533   2.600  14.918  1.3202 -0.1275  0.3835
  645TIP3    H226131   0.481   2.698  15.021  0.2370 -0.3854  0.0971
  646TIP3   OH226132   7.450   7.852  14.067  0.0390 -0.2032 -0.3117
  646TIP3    H126133   7.423   7.793  14.137 -2.4196  0.5419 -0.5242
  646TIP3    H226134   7.486   7.794  13.999  2.0237 -0.9640  1.3046
  647TIP3   OH226135   6.140   4.167  14.116  0.2625 -0.2328 -0.6372
  647TIP3    H126136   6.065   4.114  14.088 -0.9393  2.4330 -2.9803
  647TIP3    H226137   6.139   4.160  14.212 -2.9299 -0.4743 -0.5629
  648TIP3   OH226138   7.820   2.500  15.106  0.6651 -0.1909 -0.1517
  648TIP3    H126139   7.821   2.426  15.045  1.8506  0.1385 -0.5577
  648TIP3    H226140   7.728   2.508  15.132  0.0746 -0.2028 -2.0492
  649TIP3   OH226141   3.999   0.279  14.967 -0.2905 -0.4615 -0.2386
  649TIP3    H126142   4.019   0.224  14.892  1.0591 -1.1238  0.5544
  649TIP3    H226143   4.058   0.247  15.036 -0.3830  1.1337  0.6274
  650TIP3   OH226144   4.358   5.736  14.997  0.1959 -0.3826  0.5107
  650TIP3    H126145   4.350   5.649  15.037 -0.0128  0.5266  2.5909
  650TIP3    H226146   4.345   5.797  15.070  4.6182  1.4221  0.1152
  651TIP3   OH226147   7.321   2.239  14.300 -0.5425 -0.1621  0.7586
  651TIP3    H126148   7.245   2.183  14.284  0.2754 -0.4511 -2.9065
  651TIP3    H226149   7.395   2.178  14.306 -0.3749  0.1759  3.4743
  652TIP3   OH226150   6.797   1.705  12.915  0.0761 -0.3458 -0.0357
  652TIP3    H126151   6.871   1.648  12.935 -0.6107 -1.0343  0.6440
  652TIP3    H226152   6.763   1.672  12.832  0.0513 -0.5630  0.0576
  653TIP3   OH226153   4.250   4.208  14.976  0.2220  0.0430 -0.0389
  653TIP3    H126154   4.218   4.122  15.004  3.2550 -2.1054 -2.4810
  653TIP3    H226155   4.345   4.198  14.971  0.4560  2.3367 -3.9117
  654TIP3   OH226156   1.475   4.244  13.824 -0.0697 -0.0781  0.1182
  654TIP3    H126157   1.459   4.189  13.900  0.8094 -0.1321  0.2682
  654TIP3    H226158   1.387   4.264  13.791 -0.4325 -0.7246  0.6558
  655TIP3   OH226159   2.284   4.939  14.068 -0.2883 -0.0928  0.1696
  655TIP3    H126160   2.305   4.874  14.136  0.1667 -0.7991 -0.6219
  655TIP3    H226161   2.312   5.022  14.105 -0.3320 -0.4204  0.9700
  656TIP3   OH226162   6.613   2.262  13.164 -0.3420 -0.3159 -0.4133
  656TIP3    H126163   6.551   2.326  13.130  0.0066  0.7977  0.9595
  656TIP3    H226164   6.559   2.198  13.211 -0.4831  0.5913  0.6910
  657TIP3   OH226165   6.368   3.760  14.840  0.3596 -0.0671 -0.4147
  657TIP3    H126166   6.393   3.681  14.792 -0.7537 -2.0148  1.9867
  657TIP3    H226167   6.425   3.761  14.916 -1.8768 -0.5731  1.3721
  658TIP3   OH226168   2.412   1.493  14.898  0.2120  0.1054  0.5518
  658TIP3    H126169   2.401   1.400  14.920  1.4450 -0.0589  0.5032
  658TIP3    H226170   2.325   1.530  14.913 -0.5538 -1.2260 -0.3423
  659TIP3   OH226171   7.042   7.210  14.681 -0.2183  0.1300 -0.0984
  659TIP3    H126172   7.065   7.122  14.709 -2.1966 -0.6695 -0.8007
  659TIP3    H226173   6.963   7.231  14.731 -1.3722  0.3381 -1.9125
  660TIP3   OH226174   1.076   1.699  14.543  0.0027  0.2300  0.6001
  660TIP3    H126175   0.981   1.698  14.555  0.0805  1.3099  1.4340
  660TIP3    H226176   1.109   1.635  14.607 -0.2602 -1.6076 -1.0179
  661TIP3   OH226177   3.469   3.930  15.054  0.5147 -0.0391  0.0808
  661TIP3    H126178   3.502   3.881  15.129 -1.2354 -1.0231  0.2737
  661TIP3    H226179   3.528   3.907  14.982  0.7263 -1.0924  0.5744
  662TIP3   OH226180   8.148   3.283  14.534  0.1375  0.2460  0.0641
  662TIP3    H126181   8.214   3.331  14.484 -1.7493  2.4424 -0.4889
  662TIP3    H226182   8.103   3.229  14.469  0.4315 -0.1300  0.1719
  663TIP3   OH226183   3.403   6.428  15.443 -0.3751 -0.0315  0.1928
  663TIP3    H126184   3.395   6.334  15.461 -0.5261  0.1183  0.9469
  663TIP3    H226185   3.322   6.450  15.397 -0.2085 -0.3288 -0.2455
  664TIP3   OH226186   5.451   5.766  14.634  0.2204  0.0934  0.0610
  664TIP3    H126187   5.535   5.772  14.589  0.0449 -0.1722 -0.3080
  664TIP3    H226188   5.386   5.763  14.564  0.0001 -1.2834  0.3069
  665TIP3   OH226189   0.251   2.395  13.751  0.1182 -0.0546  0.3053
  665TIP3    H126190   0.215   2.309  13.771 -1.4527  0.6013  0.4396
  665TIP3    H226191   0.190   2.456  13.791  0.4518  1.1561 -0.9568
  666TIP3   OH226192   1.155   3.239  14.558  0.0397 -0.5174 -0.2373
  666TIP3    H126193   1.235   3.209  14.514  0.3539 -0.3387  0.2036
  666TIP3    H226194   1.085   3.184  14.521  0.2138 -0.0354 -1.3262
  667TIP3   OH226195   0.626   0.849  13.661  0.2395  0.8009 -0.2453
  667TIP3    H126196   0.665   0.918  13.607  0.9639  0.9699  0.4724
  667TIP3    H226197   0.569   0.896  13.721 -0.5416  0.6157 -0.8320
  668TIP3   OH226198   3.802   0.105  14.364 -0.5092 -0.0557 -0.0030
  668TIP3    H126199   3.810   0.046  14.439 -0.4957  0.2347  0.2227
  668TIP3    H226200   3.803   0.047  14.288  1.6134 -0.2227  0.0915
  669TIP3   OH226201   4.205   2.499  14.550 -0.1787 -0.1072 -0.4690
  669TIP3    H126202   4.133   2.443  14.582  1.0534 -0.1827  2.5664
  669TIP3    H226203   4.167   2.587  14.546 -0.0388  0.3223  3.4961
  670TIP3   OH226204   6.767   5.087  15.159  0.0152  0.1873  0.4342
  670TIP3    H126205   6.752   5.002  15.200  0.1606 -0.9009 -1.6150
  670TIP3    H226206   6.684   5.108  15.117  0.1240  0.8358  0.5385
  671TIP3   OH226207   7.017   1.015  14.118  0.1089  0.2389 -0.1155
  671TIP3    H126208   7.050   0.989  14.204 -1.0926 -1.4006 -0.0926
  671TIP3    H226209   6.933   0.969  14.110 -0.8151  2.0303 -1.3080
  672TIP3   OH226210   0.211   2.962  13.259 -0.3412  0.1443  0.0265
  672TIP3    H126211   0.182   2.921  13.340 -0.6705  0.9725  0.3421
  672TIP3    H226212   0.224   2.890  13.198 -1.1845 -0.3985  0.4805
  673TIP3   OH226213   3.269   8.210  13.341 -0.1687 -0.2747  0.2048
  673TIP3    H126214   3.346   8.157  13.324 -0.0715  0.5561 -2.3552
  673TIP3    H226215   3.296   8.270  13.411  0.9646 -1.0439  0.4496
  674TIP3   OH226216   4.196   5.137  13.621  0.4886  0.0033 -0.4428
  674TIP3    H126217   4.112   5.091  13.628  0.9279 -0.7684 -0.1154
  674TIP3    H226218   4.254   5.089  13.679  0.3638  2.4303  1.8625
  675TIP3   OH226219   5.581   5.074  13.875 -0.6142 -0.4026  0.2616
  675TIP3    H126220   5.566   5.054  13.968  0.0955 -0.1568  0.4343
  675TIP3    H226221   5.501   5.119  13.847 -0.5814  0.0893  0.9219
  676TIP3   OH226222   6.669   3.732  13.114  0.2535  0.0879  0.2653
  676TIP3    H126223   6.761   3.713  13.095  0.3396  1.1026 -0.4319
  676TIP3    H226224   6.659   3.714  13.207  0.8706 -1.1140  0.1132
  677TIP3   OH226225   3.354   6.903  15.381 -0.1184 -0.0509 -0.0656
  677TIP3    H126226   3.447   6.922  15.390 -0.0707 -1.0710  2.3085
  677TIP3    H226227   3.309   6.976  15.423 -0.3878  0.2876 -0.9289
  678TIP3   OH226228   8.122   3.743  14.390 -1.1949  0.2372  0.0992
  678TIP3    H126229   8.164   3.796  14.458  1.5543 -0.7798 -0.6360
  678TIP3    H226230   8.157   3.778  14.308 -0.9916 -1.2893 -0.5055
  679TIP3   OH226231   7.987   3.520  14.632  0.0184  0.0962  0.7179
  679TIP3    H126232   8.023   3.433  14.616 -0.0358 -0.1032  1.6287
  679TIP3    H226233   8.040   3.578  14.578 -0.2947 -0.5593 -0.3299
  680TIP3   OH226234   6.509   3.734  14.576  0.4276 -0.2751 -0.0078
  680TIP3    H126235   6.539   3.742  14.486 -0.1866  0.9908 -0.1253
  680TIP3    H226236   6.546   3.651  14.607  0.6316 -0.7229 -1.4143
  681TIP3   OH226237   6.697   7.090  13.427  0.4530  0.2268  0.2133
  681TIP3    H126238   6.787   7.105  13.401  0.4613  1.3635  0.8732
  681TIP3    H226239   6.658   7.177  13.433 -0.7300 -0.2513 -0.2011
  682TIP3   OH226240   0.268   3.723  14.796 -0.1787 -0.2496 -0.1867
  682TIP3    H126241   0.291   3.815  14.787  0.0061 -0.4618 -2.7926
  682TIP3    H226242   0.179   3.723  14.830 -0.0152  0.8569  0.2835
  683TIP3   OH226243   6.666   7.990  14.651  0.2324  0.2251 -0.3160
  683TIP3    H126244   6.758   7.988  14.677  0.3895  0.8226 -0.8112
  683TIP3    H226245   6.667   8.002  14.556 -0.3497 -0.8283 -0.4682
  684TIP3   OH226246   4.450   7.713  14.119 -0.0586 -0.2541 -0.4884
  684TIP3    H126247   4.421   7.642  14.178 -0.1526  1.5612  1.8039
  684TIP3    H226248   4.374   7.729  14.063 -0.3715 -1.3141 -0.4067
  685TIP3   OH226249   0.179   4.788  14.706  0.2861 -0.3726  0.2104
  685TIP3    H126250   0.119   4.853  14.670  0.3895  0.1113  0.8998
  685TIP3    H226251   0.232   4.760  14.631  1.8322  2.0543  0.3113
  686TIP3   OH226252   4.846   2.832  14.700  0.1679 -0.1418 -0.0803
  686TIP3    H126253   4.771   2.776  14.721  0.2605 -0.1822  0.1460
  686TIP3    H226254   4.809   2.906  14.652 -0.1205  0.2051  0.6547
  687TIP3   OH226255   3.698   0.903  13.548 -0.4265  0.3192  0.0306
  687TIP3    H126256   3.760   0.838  13.582 -0.8022 -0.5038 -0.8175
  687TIP3    H226257   3.620   0.852  13.527 -0.8513  1.1089 -0.3307
  688TIP3   OH226258   0.367   1.224  15.232  0.1267 -0.1801 -0.3516
  688TIP3    H126259   0.307   1.278  15.283  0.3684  0.8577 -1.1261
  688TIP3    H226260   0.448   1.223  15.282 -0.6757 -2.0965  1.0073
  689TIP3   OH226261   4.530   8.215  12.776  0.3376 -0.1368 -0.6005
  689TIP3    H126262   4.479   8.164  12.839 -1.6345 -0.7745 -2.5726
  689TIP3    H226263   4.567   8.151  12.716  1.6420  0.4899 -0.4926
  690TIP3   OH226264   6.027   6.511  14.896 -0.5055 -0.2566 -0.0708
  690TIP3    H126265   6.076   6.487  14.818 -0.1779  2.2463 -0.7396
  690TIP3    H226266   5.992   6.598  14.876 -1.2472  0.0397  2.2072
  691TIP3   OH226267   3.958   7.729  14.144 -0.1985 -0.5611  0.2008
  691TIP3    H126268   3.998   7.772  14.219  0.7415  0.6383 -0.9243
  691TIP3    H226269   3.897   7.665  14.181  0.1054  0.1282  1.9525
  692TIP3   OH226270   3.223   6.805  14.539  0.3072  0.5854 -0.0130
  692TIP3    H126271   3.301   6.860  14.535  0.5604  0.5330  2.4438
  692TIP3    H226272   3.152   6.862  14.510  1.1631  0.6847 -2.1194
  693TIP3   OH226273   8.194   7.304  15.007 -0.0732  0.3814 -0.2075
  693TIP3    H126274   8.134   7.235  15.034  1.1398 -2.4870 -3.9934
  693TIP3    H226275   8.139   7.366  14.958 -0.4784 -0.5994 -1.0295
  694TIP3   OH226276   6.081   6.649  14.502  0.2536  0.0406 -0.1128
  694TIP3    H126277   6.081   6.725  14.445  1.0560 -0.1195 -0.3401
  694TIP3    H226278   6.146   6.669  14.569  0.6494 -0.5348 -0.3147
  695TIP3   OH226279   6.011   7.578  13.467 -0.0603 -0.2819 -0.0080
  695TIP3    H126280   6.085   7.594  13.408 -0.7185  0.1003 -0.7465
  695TIP3    H226281   5.982   7.489  13.445  0.8763 -0.8982  1.0877
  696TIP3   OH226282   3.897   6.400  14.679  0.4500  0.0923 -0.1092
  696TIP3    H126283   3.978   6.427  14.722 -0.2692  0.2388  1.2142
  696TIP3    H226284   3.926   6.360  14.597  2.0186 -1.6520  1.1937
  697TIP3   OH226285   7.393   5.868  13.430 -0.6533 -0.2492 -0.5363
  697TIP3    H126286   7.372   5.952  13.389  0.2742  0.1943 -0.1568
  697TIP3    H226287   7.376   5.802  13.363 -1.8855  0.1874 -0.6716
  698TIP3   OH226288   3.506   6.732  13.070  0.6000 -0.6122 -0.1189
  698TIP3    H126289   3.466   6.710  13.154  0.5650  0.2956  0.1084
  698TIP3    H226290   3.595   6.760  13.091  0.8215 -1.0416 -0.4606
  699TIP3   OH226291   3.209   3.357  13.046  0.3701  0.3621 -0.4057
  699TIP3    H126292   3.173   3.366  13.134 -0.1931  1.4875 -0.7296
  699TIP3    H226293   3.153   3.292  13.004 -0.3635  0.9927 -0.4247
  700TIP3   OH226294   4.551   0.640  14.954  0.5494 -0.3967 -0.2878
  700TIP3    H126295   4.619   0.639  14.888  1.2060  0.2813  0.3592
  700TIP3    H226296   4.495   0.714  14.930  1.2302  0.3340  0.3379
  701TIP3   OH226297   0.863   4.166  14.914 -0.1151  0.2682 -0.1200
  701TIP3    H126298   0.825   4.208  14.837 -0.2510  1.4249  0.5525
  701TIP3    H226299   0.934   4.112  14.879 -2.3616 -2.0725 -1.4231
  702TIP3   OH226300   0.946   4.755  14.482  0.2930  0.3821  0.0327
  702TIP3    H126301   1.005   4.717  14.417  0.7189 -1.2414  1.2891
  702TIP3    H226302   0.983   4.841  14.501  2.9673 -0.9830  1.5367
  703TIP3   OH226303   4.574   5.342  14.281 -0.2220 -0.2768 -0.3427
  703TIP3    H126304   4.568   5.248  14.294  1.3442 -0.2303  0.9200
  703TIP3    H226305   4.664   5.357  14.252  0.1020  0.9931  1.1972
  704TIP3   OH226306   2.653   4.475  13.250 -0.3002  0.0497 -0.4005
  704TIP3    H126307   2.684   4.424  13.176  0.5195 -0.0479  0.0029
  704TIP3    H226308   2.609   4.550  13.210  0.4341  0.1775 -0.9839
  705TIP3   OH226309   0.399   6.293  13.872  0.1935 -0.3474 -0.7094
  705TIP3    H126310   0.343   6.275  13.796 -0.9713  0.3371 -0.0447
  705TIP3    H226311   0.344   6.346  13.930  0.0590 -3.0808  1.8760
  706TIP3   OH226312   3.501   2.594  14.249  0.1341 -0.3068  0.5904
  706TIP3    H126313   3.450   2.611  14.170  0.3661  0.4765  0.6045
  706TIP3    H226314   3.553   2.516  14.229 -0.1564 -0.3874  0.1473
  707TIP3   OH226315   7.045   8.345  13.342  0.2374  0.1250 -0.0199
  707TIP3    H126316   7.066   8.263  13.386  0.3061 -0.1820 -0.6112
  707TIP3    H226317   6.949   8.352  13.349  0.2508  0.0857  0.1916
  708TIP3   OH226318   2.602   6.559  14.631 -0.7796 -0.0759 -0.2430
  708TIP3    H126319   2.624   6.650  14.653  1.1403 -0.7618  0.9755
  708TIP3    H226320   2.650   6.542  14.550 -0.0710 -0.3839  0.2384
  709TIP3   OH226321   6.963   8.245  12.921 -0.5507  0.1807 -0.5894
  709TIP3    H126322   6.928   8.322  12.876  0.4163  1.1518  0.2724
  709TIP3    H226323   7.046   8.275  12.958 -0.7785 -0.9008  0.8700
  710TIP3   OH226324   0.017   4.595  14.286 -0.6156  0.0346  0.5265
  710TIP3    H126325   0.053   4.533  14.350 -0.7043 -0.3166  0.2442
  710TIP3    H226326   0.087   4.607  14.222 -0.3746  0.7140  0.9097
  711TIP3   OH226327   7.647   0.554  14.284  0.4497  0.0917 -0.1137
  711TIP3    H126328   7.742   0.551  14.279  0.5388  0.4720  0.9721
  711TIP3    H226329   7.620   0.462  14.286  0.8918 -0.0356  0.7366
  712TIP3   OH226330   6.486   1.434  12.760  0.2950 -0.4812 -0.0280
  712TIP3    H126331   6.462   1.342  12.764 -1.1379 -0.1418 -0.3760
  712TIP3    H226332   6.506   1.458  12.850 -0.5954 -0.8140  0.2682
  713TIP3   OH226333   0.453   4.033  15.144 -0.5722 -0.0812 -0.5908
  713TIP3    H126334   0.539   3.992  15.139 -0.5294 -0.3246  1.4367
  713TIP3    H226335   0.470   4.126  15.129 -0.1226 -0.2654 -1.2679
  714TIP3   OH226336   0.544   7.634  14.756  0.1501  0.2540  0.0214
  714TIP3    H126337   0.450   7.616  14.753  0.6120 -3.4697  1.7301
  714TIP3    H226338   0.574   7.621  14.667 -0.4444 -3.0276  0.1891
  715TIP3   OH226339   3.798   0.670  13.178 -0.3099 -0.0727 -0.4513
  715TIP3    H126340   3.804   0.613  13.254 -3.0030 -1.3976 -1.0809
  715TIP3    H226341   3.759   0.751  13.211  0.8076  0.2989 -0.0314
  716TIP3   OH226342   3.798   0.439  12.991 -0.1251  0.3413 -0.0693
  716TIP3    H126343   3.714   0.401  12.964  0.4700 -1.1299  0.0624
  716TIP3    H226344   3.774   0.517  13.041 -1.5409 -1.2699  1.9329
  717TIP3   OH226345   1.955   7.738  14.444  0.1066  0.6431  0.4398
  717TIP3    H126346   1.863   7.743  14.467  0.4495 -0.6105  2.3511
  717TIP3    H226347   1.960   7.670  14.377 -0.2551 -0.0987  1.1490
  718TIP3   OH226348   0.043   7.023  14.849  0.5021 -0.2859  0.2283
  718TIP3    H126349   0.101   7.094  14.876  0.6136 -0.6443  0.9537
  718TIP3    H226350   0.086   6.943  14.880 -0.1314 -0.5890  0.3435
  719TIP3   OH226351   3.362   0.549  14.837 -0.1351 -0.2169  0.0267
  719TIP3    H126352   3.296   0.483  14.815  2.3624 -2.6054 -0.8478
  719TIP3    H226353   3.385   0.588  14.753  1.3448 -1.2713 -0.0963
  720TIP3   OH226354   4.602   2.198  14.124  0.4620  0.0015 -0.4306
  720TIP3    H126355   4.601   2.279  14.072  0.1053  0.9339  0.9788
  720TIP3    H226356   4.539   2.141  14.079 -0.8804  1.2850 -0.2976
  721TIP3   OH226357   5.545   2.765  14.671  0.4133  0.2603  0.5044
  721TIP3    H126358   5.532   2.671  14.678 -1.8139  0.4464 -0.2849
  721TIP3    H226359   5.557   2.794  14.762 -0.9673 -0.5583  0.9888
  722TIP3   OH226360   1.147   8.143  14.080 -0.1961  0.2883 -0.5021
  722TIP3    H126361   1.196   8.080  14.027 -1.1650 -0.1543 -0.8886
  722TIP3    H226362   1.082   8.179  14.021 -0.8657  0.2637  0.2068
  723TIP3   OH226363   0.965   1.818  15.166  0.1490  0.4777  0.4326
  723TIP3    H126364   0.972   1.732  15.207 -0.7124  0.2124  0.0337
  723TIP3    H226365   0.875   1.846  15.183  0.2965  1.1128  0.1974
  724TIP3   OH226366   2.807   3.978  14.866 -0.2201 -0.1662  0.2658
  724TIP3    H126367   2.892   3.941  14.838  0.2152  1.6423 -1.0195
  724TIP3    H226368   2.830   4.049  14.925 -0.8778 -0.0181  0.3490
  725TIP3   OH226369   0.484   5.393  14.446  0.7264 -0.4047 -0.2005
  725TIP3    H126370   0.448   5.343  14.520  0.9222 -0.1428  0.0738
  725TIP3    H226371   0.578   5.375  14.449  0.5575 -1.6866 -1.3612
  726TIP3   OH226372   7.676   5.953  14.011  0.2814 -0.5603  0.3656
  726TIP3    H126373   7.637   5.989  13.932  2.9350 -2.5789 -2.0780
  726TIP3    H226374   7.746   6.014  14.033 -0.4112 -0.0373  1.2001
  727TIP3   OH226375   0.832   6.470  14.596  0.4687 -0.1675  0.1991
  727TIP3    H126376   0.909   6.490  14.543  0.1997  2.4510  0.6696
  727TIP3    H226377   0.867   6.443  14.681  0.9308  2.1060  0.7791
  728TIP3   OH226378   6.695   7.450  13.434  0.2182 -0.3140 -0.0586
  728TIP3    H126379   6.626   7.403  13.481  0.8519 -1.4453 -0.2272
  728TIP3    H226380   6.764   7.463  13.499  0.8586 -1.3843 -0.4830
  729TIP3   OH226381   0.395   3.527  13.976 -0.2390  0.2239 -0.1353
  729TIP3    H126382   0.395   3.452  13.918  1.3470  0.5293 -0.5941
  729TIP3    H226383   0.466   3.583  13.943 -1.7330  2.2108 -0.1663
  730TIP3   OH226384   5.104   0.754  13.207 -0.2550 -0.2605  0.4418
  730TIP3    H126385   5.067   0.712  13.130 -0.7746 -1.7301  1.4551
  730TIP3    H226386   5.033   0.752  13.271  0.3753  0.3629  1.1732
  731TIP3   OH226387   3.498   4.161  13.583  0.4144  0.1904 -0.4916
  731TIP3    H126388   3.475   4.165  13.490  0.7745  0.4475 -0.5736
  731TIP3    H226389   3.441   4.227  13.624 -2.9929 -2.8764  0.2069
  732TIP3   OH226390   2.741   3.118  14.282 -0.4233  0.5554 -0.3988
  732TIP3    H126391   2.749   3.105  14.377 -1.9547 -3.1274 -0.6263
  732TIP3    H226392   2.816   3.071  14.245 -0.0647  1.6228 -1.0748
  733TIP3   OH226393   7.063   6.894  14.487  0.1052  0.0262 -0.2053
  733TIP3    H126394   7.083   6.893  14.393 -0.0718 -0.4606 -0.2386
  733TIP3    H226395   6.995   6.961  14.496  0.5065  0.4569 -0.3443
  734TIP3   OH226396   5.962   3.412  13.828 -0.4298  0.2443  0.3095
  734TIP3    H126397   6.001   3.413  13.741 -0.1599 -0.3514  0.4178
  734TIP3    H226398   5.943   3.504  13.847 -1.9717  0.2492 -1.0250
  735TIP3   OH226399   3.927   0.647  14.779  0.4519 -0.0670  0.1999
  735TIP3    H126400   3.848   0.681  14.821  0.0355 -1.0575  0.2290
  735TIP3    H226401   3.981   0.615  14.851 -0.8242 -2.9703 -0.0167
  736TIP3   OH226402   0.759   6.021  14.025 -0.2909 -0.0239 -0.1768
  736TIP3    H126403   0.703   6.091  13.992  1.9747  1.2988 -1.5655
  736TIP3    H226404   0.826   6.067  14.076 -0.0190 -1.4438  0.8007
  737TIP3   OH226405   2.036   2.417  15.020 -0.4504  0.2883  0.6888
  737TIP3    H126406   1.989   2.370  15.089 -3.6823  1.0310 -0.8126
  737TIP3    H226407   2.017   2.367  14.940  0.7963  1.0342 -0.1068
  738TIP3   OH226408   7.249   4.284  13.440 -0.7661 -0.1387  0.3393
  738TIP3    H126409   7.326   4.284  13.496  0.4096 -0.0047 -1.2136
  738TIP3    H226410   7.209   4.198  13.454  0.1503 -0.5431  0.5338
  739TIP3   OH226411   8.215   7.981  14.695 -0.0413  0.4668  0.4174
  739TIP3    H126412   8.310   7.973  14.705 -0.0814  0.8488  1.1207
  739TIP3    H226413   8.203   8.061  14.643  0.0812 -0.4940 -1.1408
  740TIP3   OH226414   6.031   4.281  14.856 -0.2667 -0.2897 -0.9553
  740TIP3    H126415   5.970   4.354  14.872 -1.0034 -0.9990 -0.4308
  740TIP3    H226416   5.977   4.203  14.865  0.7489 -0.9410 -0.3845
  741TIP3   OH226417   6.683   5.089  14.379 -0.5233  0.1761 -0.2553
  741TIP3    H126418   6.736   5.164  14.407 -1.9227  0.6679  1.1853
  741TIP3    H226419   6.681   5.095  14.283  0.4990  1.1832 -0.2281
  742TIP3   OH226420   5.733   6.093  14.292 -0.0718  0.6857 -0.4550
  742TIP3    H126421   5.818   6.137  14.286 -0.0414  0.6594 -0.2343
  742TIP3    H226422   5.750   6.003  14.263  0.5839 -0.1113  2.1089
  743TIP3   OH226423   3.682   4.051  13.020  0.4559  0.2447  0.6170
  743TIP3    H126424   3.626   4.129  13.027 -0.7444 -0.5234 -0.1289
  743TIP3    H226425   3.741   4.058  13.094  0.0657  1.6371  0.8316
  744TIP3   OH226426   4.196   1.477  14.872  0.0587 -0.4189  0.4192
  744TIP3    H126427   4.136   1.459  14.799 -0.8582  2.3636  0.3939
  744TIP3    H226428   4.165   1.421  14.943 -0.6464 -1.2743 -0.5300
  745TIP3   OH226429   2.357   0.474  13.155  0.3147  0.1046 -0.3025
  745TIP3    H126430   2.267   0.451  13.132 -0.2059  0.0996  1.5525
  745TIP3    H226431   2.392   0.396  13.198  0.3614  0.9014  1.1752
  746TIP3   OH226432   1.093   8.157  13.143  0.2978  0.3673 -0.5393
  746TIP3    H126433   1.035   8.097  13.096 -0.0803  0.8058 -0.6409
  746TIP3    H226434   1.112   8.113  13.226 -3.0841  1.7182  1.1183
  747TIP3   OH226435   0.576   0.929  13.221  0.0862 -0.3781  0.2940
  747TIP3    H126436   0.644   0.995  13.215 -0.0733 -0.3182 -1.4181
  747TIP3    H226437   0.588   0.875  13.142 -0.6534 -1.5328  0.9373
  748TIP3   OH226438   5.247   5.821  14.450 -0.5176 -0.6022  0.0580
  748TIP3    H126439   5.222   5.912  14.437  2.2977  0.0353 -1.7159
  748TIP3    H226440   5.180   5.770  14.404 -2.6179  0.4105  1.8182
  749TIP3   OH226441   7.628   4.611  14.451 -0.4683 -0.0257 -0.2044
  749TIP3    H126442   7.693   4.570  14.507 -0.3726  1.8099  1.1175
  749TIP3    H226443   7.645   4.576  14.364  1.5088 -0.4768  0.3242
  750TIP3   OH226444   3.675   4.064  14.488  0.2777 -0.3156 -0.1027
  750TIP3    H126445   3.749   4.074  14.548  1.3063 -0.0032 -1.4104
  750TIP3    H226446   3.639   4.152  14.480  0.0035 -0.3951  0.1965
  751TIP3   OH226447   5.371   4.799  15.053 -0.1709  0.4874  0.2145
  751TIP3    H126448   5.282   4.769  15.068 -0.1092  0.2117  0.0301
  751TIP3    H226449   5.367   4.894  15.069 -0.2566  0.3234  1.2668
  752TIP3   OH226450   8.281   1.773  14.352 -0.4322  0.3682 -0.4088
  752TIP3    H126451   8.192   1.798  14.377 -0.2028  0.9270 -0.1319
  752TIP3    H226452   8.324   1.750  14.434 -0.5500 -0.7005 -0.6251
  753TIP3   OH226453   6.467   3.207  14.958 -0.4188  0.4063  0.3316
  753TIP3    H126454   6.408   3.280  14.978 -1.5542 -0.2944 -0.3743
  753TIP3    H226455   6.445   3.183  14.868 -0.7488 -1.4498  0.8835
  754TIP3   OH226456   2.967   2.625  13.403  0.4771  0.1591 -0.9389
  754TIP3    H126457   2.931   2.697  13.455 -2.8094 -2.0358  0.1005
  754TIP3    H226458   2.959   2.548  13.460  3.9565 -1.1368 -1.9426
  755TIP3   OH226459   1.013   1.806  12.848 -0.3286  0.1484  0.0412
  755TIP3    H126460   1.047   1.716  12.853 -1.4326 -0.2903 -0.1365
  755TIP3    H226461   1.089   1.861  12.870  0.6403 -0.7711 -0.8674
  756TIP3   OH226462   6.484   5.475  13.731 -0.3294  0.1610  0.4160
  756TIP3    H126463   6.445   5.433  13.655 -0.2799  1.2783 -0.2466
  756TIP3    H226464   6.417   5.535  13.763  0.1830  0.7844  0.3470
  757TIP3   OH226465   5.497   1.183  13.814 -0.7315 -0.1577  0.3914
  757TIP3    H126466   5.507   1.278  13.810  1.4346 -0.3417  0.6215
  757TIP3    H226467   5.524   1.152  13.728 -2.0298 -0.5575  0.1035
  758TIP3   OH226468   1.774   0.551  14.423 -0.0301  0.0707 -0.7376
  758TIP3    H126469   1.860   0.513  14.404  0.9057  1.8222 -0.2938
  758TIP3    H226470   1.727   0.484  14.472  1.7814 -0.2808  0.6125
  759TIP3   OH226471   3.220   0.759  14.020  0.2634 -0.4504 -0.4196
  759TIP3    H126472   3.235   0.675  14.064 -0.2902 -0.7239 -0.7431
  759TIP3    H226473   3.247   0.825  14.085 -0.1276 -0.8600  0.1704
  760TIP3   OH226474   7.244   3.972  12.518 -0.7661  0.2381 -0.4823
  760TIP3    H126475   7.158   3.960  12.558 -0.8458  1.4107 -0.2726
  760TIP3    H226476   7.227   4.013  12.434 -0.3521  1.5972  0.0790
  761TIP3   OH226477   6.432   4.662  15.084  0.0761 -0.2072 -0.0685
  761TIP3    H126478   6.513   4.627  15.046 -1.1292  0.1005 -3.2595
  761TIP3    H226479   6.380   4.584  15.102  0.8442 -0.3825  1.5505
  762TIP3   OH226480   6.344   4.799  13.298  0.0403 -0.0342  0.2468
  762TIP3    H126481   6.368   4.783  13.207 -0.4593 -0.2816  0.1539
  762TIP3    H226482   6.281   4.730  13.319 -0.3456  0.4128  0.5770
  763TIP3   OH226483   3.388   4.336  14.794 -0.5415 -0.2905 -0.3150
  763TIP3    H126484   3.405   4.281  14.869 -2.3015 -0.4637 -0.0056
  763TIP3    H226485   3.326   4.287  14.740  0.8397 -0.2774 -2.0318
  764TIP3   OH226486   2.427   1.879  14.355  0.2059  0.2708 -0.2719
  764TIP3    H126487   2.503   1.904  14.407  0.0345  0.2615 -0.0128
  764TIP3    H226488   2.449   1.792  14.321 -0.1533 -0.2368  0.7503
  765TIP3   OH226489   6.794   1.141  12.859  0.0052  0.1899  0.2848
  765TIP3    H126490   6.767   1.216  12.806 -0.8437  0.6811  1.3602
  765TIP3    H226491   6.780   1.065  12.802 -0.0479  0.7698 -0.4880
  766TIP3   OH226492   4.481   6.102  15.118  0.2295 -0.0093 -0.5226
  766TIP3    H126493   4.573   6.130  15.115  0.1370  0.4355  0.4145
  766TIP3    H226494   4.440   6.162  15.180 -1.0031  0.6400 -1.8895
  767TIP3   OH226495   2.262   2.459  13.740 -0.0325  0.1919 -0.1031
  767TIP3    H126496   2.353   2.436  13.759  0.1018  1.1970  0.5688
  767TIP3    H226497   2.214   2.433  13.818 -0.0631  1.0631  0.1771
  768TIP3   OH226498   2.004   0.783  14.865 -0.3067  0.1711 -0.1267
  768TIP3    H126499   2.005   0.693  14.899 -1.3156  0.1015 -0.2740
  768TIP3    H226500   2.005   0.773  14.770  0.0155  0.3315 -0.1436
  769TIP3   OH226501   7.924   2.129  13.791  0.4358 -0.2655  0.4259
  769TIP3    H126502   8.018   2.120  13.811  0.6485  1.4904  0.4038
  769TIP3    H226503   7.896   2.203  13.845 -0.4685  0.4950 -1.0448
  770TIP3   OH226504   2.150   5.974  14.980 -0.2781 -0.2007 -0.0948
  770TIP3    H126505   2.189   5.911  14.919  0.0524 -0.4582  0.3774
  770TIP3    H226506   2.078   5.926  15.021 -2.3689  0.8261 -2.2992
  771TIP3   OH226507   2.452   5.505  14.821  0.1976  0.0692 -0.2694
  771TIP3    H126508   2.502   5.424  14.815  1.0320  0.5828 -0.4491
  771TIP3    H226509   2.480   5.556  14.745 -0.3162  0.5189 -0.1609
  772TIP3   OH226510   1.639   7.225  14.884 -0.1572  0.1311 -0.0170
  772TIP3    H126511   1.595   7.144  14.856  0.2888  0.1875 -0.9474
  772TIP3    H226512   1.692   7.198  14.959 -0.6651 -0.2546  0.2083
  773TIP3   OH226513   8.425   3.643  13.472 -0.0351 -0.1037 -0.0321
  773TIP3    H126514   8.519   3.637  13.489 -0.1302 -0.9798  0.2615
  773TIP3    H226515   8.419   3.682  13.385  0.6084 -0.1649 -0.1103
  774TIP3   OH226516   5.136   3.447  14.820 -0.2166 -0.0822 -0.0663
  774TIP3    H126517   5.195   3.484  14.886  0.7881  0.2762 -1.1433
  774TIP3    H226518   5.169   3.357  14.808 -0.4564 -0.1758 -0.0282
  775TIP3   OH226519   6.191   7.785  14.359  0.2027  0.3044  0.4432
  775TIP3    H126520   6.276   7.799  14.401 -0.3151 -0.1875  1.7056
  775TIP3    H226521   6.127   7.814  14.424 -0.6054  2.8049 -1.3259
  776TIP3   OH226522   5.469   0.064  13.478 -0.2472 -0.1780 -0.4241
  776TIP3    H126523   5.421   0.126  13.532  0.3533 -1.2926  1.4766
  776TIP3    H226524   5.449  -0.022  13.515 -0.1867 -1.0589 -2.2968
  777TIP3   OH226525   1.509   0.883  13.362  0.0116 -0.6106  0.3344
  777TIP3    H126526   1.483   0.809  13.307 -0.4779  0.0140 -0.2949
  777TIP3    H226527   1.590   0.915  13.323  0.4617 -1.0732  0.8673
  778TIP3   OH226528   0.988   2.043  14.967 -0.1161  1.2725  0.3924
  778TIP3    H126529   0.982   1.957  15.009  1.7000  1.0686  0.3033
  778TIP3    H226530   0.898   2.062  14.938 -0.2664 -1.4507 -1.2581
  779TIP3   OH226531   0.319   4.698  14.479 -0.3149  0.9932  0.3281
  779TIP3    H126532   0.335   4.726  14.389 -2.4941 -0.0575 -0.4578
  779TIP3    H226533   0.291   4.607  14.471  0.0318  0.6930  2.1427
  780TIP3   OH226534   1.108   1.630  13.723  0.5587  0.4695  0.1495
  780TIP3    H126535   1.045   1.698  13.745  1.5315  1.0579  1.2003
  780TIP3    H226536   1.078   1.596  13.639 -0.4344  1.5970  0.0239
  781TIP3   OH226537   6.397   4.406  15.140  0.1040 -0.2790  0.0724
  781TIP3    H126538   6.333   4.408  15.210  0.7843  1.2596  0.6841
  781TIP3    H226539   6.481   4.392  15.185  0.9016  3.2345 -0.0657
  782TIP3   OH226540   4.941   3.687  14.162 -0.6155  0.5828  0.3204
  782TIP3    H126541   5.034   3.701  14.181 -0.1404  1.5536 -2.3075
  782TIP3    H226542   4.896   3.750  14.217  0.5974  2.7264 -0.9914
  783TIP3   OH226543   6.341   0.203  13.917  0.1232  0.1344 -0.0571
  783TIP3    H126544   6.376   0.209  14.006 -2.7455  1.5426  1.0868
  783TIP3    H226545   6.394   0.265  13.867  1.0303  0.2030  0.9359
  784TIP3   OH226546   1.828   5.786  14.184  0.3692  0.5705 -0.2108
  784TIP3    H126547   1.769   5.750  14.118 -1.4818  2.3897  0.3088
  784TIP3    H226548   1.881   5.850  14.136 -0.3055  1.1949 -0.1486
  785TIP3   OH226549   3.515   4.989  15.328  0.7916  0.6917  0.2032
  785TIP3    H126550   3.441   5.026  15.376  3.2638  2.9997  2.5372
  785TIP3    H226551   3.508   4.895  15.343 -2.7787  0.4834 -1.5348
  786TIP3   OH226552   6.222   2.061  13.342 -0.1544 -0.0175  0.0439
  786TIP3    H126553   6.197   2.126  13.407  0.7172  0.8194 -0.4261
  786TIP3    H226554   6.317   2.054  13.350 -0.0835 -0.2210 -0.8370
  787TIP3   OH226555   2.104   2.536  14.570 -0.3440 -0.4917 -0.3987
  787TIP3    H126556   2.131   2.484  14.646 -0.6211  1.4942  1.1588
  787TIP3    H226557   2.184   2.550  14.520  0.0532 -0.9986  0.0839
  788TIP3   OH226558   6.101   2.380  15.086  0.1787  0.2550 -0.0604
  788TIP3    H126559   6.019   2.331  15.079 -1.0191  1.8129  2.0227
  788TIP3    H226560   6.161   2.321  15.132 -1.3017  0.6877  2.5981
  789TIP3   OH226561   6.793   2.193  12.944 -0.5655  0.2236 -0.3358
  789TIP3    H126562   6.728   2.202  13.013 -1.7083  0.7047 -1.4408
  789TIP3    H226563   6.870   2.156  12.988 -1.2620  0.5074  1.1731
  790TIP3   OH226564   0.736   2.708  14.511 -0.7711 -0.0104 -0.0429
  790TIP3    H126565   0.711   2.799  14.528  0.6267  0.5820 -0.9574
  790TIP3    H226566   0.700   2.689  14.424  1.3009  0.6799 -1.1393
  791TIP3   OH226567   1.944   0.861  14.322 -0.1193 -0.0086  0.7580
  791TIP3    H126568   1.902   0.776  14.325 -1.0448  0.3713 -0.5363
  791TIP3    H226569   1.880   0.921  14.362 -0.2456  0.3403  0.0649
  792TIP3   OH226570   5.557   0.212  14.331 -0.4541  0.1693 -0.4153
  792TIP3    H126571   5.564   0.215  14.427 -2.2517  0.6706 -0.2702
  792TIP3    H226572   5.587   0.298  14.302  1.4900 -0.4725 -0.4510
  793TIP3   OH226573   3.982   1.204  13.770  0.0754 -0.0508  0.3338
  793TIP3    H126574   4.069   1.171  13.790  0.9408  1.9465  0.1145
  793TIP3    H226575   3.995   1.265  13.697 -1.9176 -1.6511 -1.4816
  794TIP3   OH226576   6.533   4.054  14.437 -0.6533 -0.3527  0.2631
  794TIP3    H126577   6.502   4.102  14.360 -0.0618  0.0630  0.2791
  794TIP3    H226578   6.597   3.992  14.403 -0.7738 -0.5334  0.3606
  795TIP3   OH226579   1.182   2.795  13.562 -0.3611  0.3873  0.0667
  795TIP3    H126580   1.264   2.842  13.574 -0.5078  1.2125 -1.7597
  795TIP3    H226581   1.189   2.756  13.475 -1.2606 -0.8992  0.5460
  796TIP3   OH226582   3.211   1.521  15.018  0.0163 -0.3809 -0.5332
  796TIP3    H126583   3.186   1.503  14.927 -2.1728  2.1692 -0.5784
  796TIP3    H226584   3.195   1.439  15.064 -2.1580 -0.8156 -1.9109
  797TIP3   OH226585   0.369   7.904  14.734 -0.3872 -0.0860 -0.3802
  797TIP3    H126586   0.351   7.810  14.741  0.1607 -0.2238 -0.7452
  797TIP3    H226587   0.427   7.923  14.807 -1.0434  0.1194  0.1033
  798TIP3   OH226588   6.562   7.837  13.303  0.1963 -0.4667 -0.3926
  798TIP3    H126589   6.523   7.862  13.220  2.1325 -0.3346 -1.3075
  798TIP3    H226590   6.575   7.920  13.350  0.3743 -0.4101 -0.5431
  799TIP3   OH226591   1.786   1.342  13.449 -0.3144 -0.4399  0.2523
  799TIP3    H126592   1.771   1.259  13.495 -1.6655 -0.5738 -0.4053
  799TIP3    H226593   1.878   1.337  13.422 -0.3653 -1.7218  0.2463
  800TIP3   OH226594   8.374   3.388  13.889 -0.0131  0.6742  0.3035
  800TIP3    H126595   8.463   3.365  13.862 -0.5068  0.2152 -1.0279
  800TIP3    H226596   8.331   3.304  13.905 -0.2604  0.8839  0.7364
  801TIP3   OH226597   5.597   4.354  13.618  0.1481  0.4396 -0.1658
  801TIP3    H126598   5.641   4.434  13.591 -0.4733  0.8337 -0.0322
  801TIP3    H226599   5.608   4.295  13.543  0.6799  0.6149 -0.2314
  802TIP3   OH226600   3.220   4.952  13.871  0.7119 -0.0670  0.1782
  802TIP3    H126601   3.282   5.018  13.839 -1.6478  1.7264 -1.0574
  802TIP3    H226602   3.198   4.900  13.793 -0.8723  0.7189  0.0556
  803TIP3   OH226603   1.233   1.795  15.092 -0.1802 -0.4567 -0.1871
  803TIP3    H126604   1.257   1.715  15.139 -0.9928 -0.5637  0.0576
  803TIP3    H226605   1.140   1.805  15.108 -0.1015  0.5033 -0.2830
  804TIP3   OH226606   5.331   3.170  14.104  0.3945  0.2787  0.2916
  804TIP3    H126607   5.363   3.110  14.037  0.5222 -0.4621  1.0038
  804TIP3    H226608   5.335   3.120  14.186 -1.0254  0.7166  0.6635
  805TIP3   OH226609   6.672   5.998  13.756  0.5874 -0.2823 -0.4805
  805TIP3    H126610   6.609   6.052  13.707 -0.9828 -1.9728 -0.4237
  805TIP3    H226611   6.727   5.958  13.688 -0.5702 -1.3890 -0.7909
  806TIP3   OH226612   8.149   1.008  13.441 -0.0955  0.1158 -0.1159
  806TIP3    H126613   8.152   0.997  13.346 -1.5987  0.5401 -0.2282
  806TIP3    H226614   8.186   1.095  13.456 -0.8814  0.5086 -0.4183
  807TIP3   OH226615   7.692   0.210  13.878 -0.4361 -0.2631 -0.1235
  807TIP3    H126616   7.786   0.225  13.870 -0.1263  1.0052  3.7764
  807TIP3    H226617   7.684   0.122  13.915 -0.7494 -0.1273  0.1370
  808TIP3   OH226618   2.192   3.195  14.379  0.5144 -0.6936 -0.6366
  808TIP3    H126619   2.125   3.194  14.311 -0.1236 -1.9928 -0.0233
  808TIP3    H226620   2.221   3.104  14.385  2.1295 -0.2073 -0.6758
  809TIP3   OH226621   4.056   2.290  12.905  0.3675 -0.1266  0.5082
  809TIP3    H126622   4.051   2.206  12.951 -1.6746 -0.3178  0.0229
  809TIP3    H226623   4.114   2.273  12.831  0.6915 -0.8504  0.9193
  810TIP3   OH226624   6.415   1.031   8.628  0.0179  0.4696 -0.2357
  810TIP3    H126625   6.406   1.066   8.540 -0.7260  1.6869  0.3022
  810TIP3    H226626   6.500   1.064   8.659 -0.4972  1.5155  0.1194
  811TIP3   OH226627   5.538   7.511  14.817  0.7423 -0.9156  0.5501
  811TIP3    H126628   5.514   7.419  14.827 -2.0391 -0.4082 -0.6352
  811TIP3    H226629   5.591   7.513  14.736 -1.6142 -1.1942 -1.0931
  812TIP3   OH226630   6.062   2.232  13.016 -0.4997 -0.2489  1.2844
  812TIP3    H126631   6.118   2.302  12.982  2.2835 -2.5689  0.5926
  812TIP3    H226632   6.001   2.214  12.946  1.5302 -1.2312 -0.3376
  813TIP3   OH226633   5.151   0.347  14.340 -0.1995 -0.9855  0.0185
  813TIP3    H126634   5.217   0.283  14.366 -0.0489 -0.1592  1.8163
  813TIP3    H226635   5.183   0.383  14.257  1.3255 -0.9991  0.5837
  814TIP3   OH226636   1.151   2.009  14.633  0.2681 -0.0809  0.0248
  814TIP3    H126637   1.175   1.924  14.670 -0.7533 -1.2463 -1.7971
  814TIP3    H226638   1.188   2.008  14.544 -0.6586  0.9204 -0.4039
  815TIP3   OH226639   4.975   8.352  14.100 -0.3497  0.1208 -0.1210
  815TIP3    H126640   5.002   8.444  14.099  0.2334 -0.0459 -0.5692
  815TIP3    H226641   4.882   8.354  14.124 -0.3720  0.8360 -0.2553
  816TIP3   OH226642   0.453   5.103  14.988  0.6989 -0.3204  0.7532
  816TIP3    H126643   0.469   5.011  14.969 -2.2735 -0.9629  0.7428
  816TIP3    H226644   0.483   5.114  15.078  1.8374 -1.0640  0.4804
  817TIP3   OH226645   4.567   7.202  14.912  0.2488 -0.0017 -0.0317
  817TIP3    H126646   4.654   7.211  14.951  0.2610  1.6232 -0.3644
  817TIP3    H226647   4.564   7.270  14.844 -1.7192  0.7968  0.7815
  818TIP3   OH226648   1.705   0.274  13.114  0.0646  0.0147 -0.7403
  818TIP3    H126649   1.611   0.291  13.108 -0.1208  0.5206  2.1834
  818TIP3    H226650   1.746   0.355  13.082 -0.5882  0.8223  0.3841
  819TIP3   OH226651   3.463   2.476  14.861  0.2184  0.4075 -0.4749
  819TIP3    H126652   3.484   2.412  14.794 -1.6874  0.1031 -0.8358
  819TIP3    H226653   3.371   2.499  14.845  0.3745  2.0061  0.6484
  820TIP3   OH226654   3.480   3.560  12.506 -0.0675  0.4266  0.4071
  820TIP3    H126655   3.569   3.553  12.470  1.2805  2.0979  3.0957
  820TIP3    H226656   3.455   3.651  12.491 -2.2489 -0.4473 -2.0263
  821TIP3   OH226657   2.910   2.447  14.256 -0.4320 -1.1611  0.5581
  821TIP3    H126658   2.922   2.501  14.334  0.2250 -1.2879  0.5526
  821TIP3    H226659   2.876   2.507  14.189 -0.9048 -1.0321  0.9072
  822TIP3   OH226660   0.191   6.174  14.510  0.3493  0.0986  0.1464
  822TIP3    H126661   0.214   6.237  14.577  0.3240  0.7462 -0.4500
  822TIP3    H226662   0.121   6.216  14.460  1.9620  0.6443 -1.7825
  823TIP3   OH226663   4.091   5.755  14.835  0.1891  0.0525 -0.2152
  823TIP3    H126664   4.088   5.838  14.788  2.3330 -0.5310 -1.5083
  823TIP3    H226665   4.174   5.756  14.881 -0.0776 -1.0933  0.3344
  824TIP3   OH226666   6.656   4.177  13.707  0.5312 -0.1109  0.2132
  824TIP3    H126667   6.726   4.228  13.667  2.8833 -2.6317  0.7689
  824TIP3    H226668   6.599   4.152  13.634  2.3374 -1.0405 -0.9497
  825TIP3   OH226669   5.953   6.633  15.231 -0.1095 -0.1189 -0.1800
  825TIP3    H126670   5.978   6.636  15.324 -1.2747  1.3043  0.1221
  825TIP3    H226671   6.020   6.684  15.186  1.1154 -1.7697 -0.3335
  826TIP3   OH226672   3.800   1.838  14.644 -0.0991  0.5519  0.4436
  826TIP3    H126673   3.837   1.876  14.723  0.4961  1.4797 -0.2612
  826TIP3    H226674   3.794   1.911  14.582 -1.9560  0.1752  0.1057
  827TIP3   OH226675   5.379   0.874  13.615  0.4740  0.2207 -0.4197
  827TIP3    H126676   5.351   0.816  13.545  0.7911 -1.5911  0.8978
  827TIP3    H226677   5.437   0.938  13.573 -0.0512 -0.2714 -1.9274
  828TIP3   OH226678   7.027   2.785  12.924 -0.7097  0.1405  0.2851
  828TIP3    H126679   7.048   2.715  12.861  1.6259  1.7425 -0.8636
  828TIP3    H226680   6.971   2.845  12.875  1.9207  1.9143 -0.8177
  829TIP3   OH226681   3.347   7.322  15.217 -0.0550 -0.3770 -0.0751
  829TIP3    H126682   3.397   7.337  15.136 -0.8658  0.5850 -0.4155
  829TIP3    H226683   3.317   7.231  15.210 -1.6694  0.2359 -1.7546
  830TIP3   OH226684   4.380   7.277  13.964  0.9845 -0.3865 -0.4499
  830TIP3    H126685   4.331   7.256  14.044 -0.4345  2.0860 -0.5816
  830TIP3    H226686   4.334   7.230  13.895  0.7093 -0.5670 -0.1449
  831TIP3   OH226687   3.756   4.942  13.283  0.0489 -0.1346  0.1397
  831TIP3    H126688   3.791   4.939  13.194 -0.5338  0.4758 -0.1221
  831TIP3    H226689   3.755   4.851  13.312  0.7318 -0.2838 -0.2850
  832TIP3   OH226690   4.205   6.390  13.234 -0.3061  0.2411  0.4082
  832TIP3    H126691   4.125   6.351  13.199  0.4357  0.6830 -1.9198
  832TIP3    H226692   4.267   6.317  13.240  0.1888  0.4807 -1.2316
  833TIP3   OH226693   6.412   7.712  13.053  0.2025  0.1593  0.4595
  833TIP3    H126694   6.341   7.654  13.026 -0.9633  1.2626  1.0978
  833TIP3    H226695   6.480   7.652  13.086 -0.6003 -0.8871  0.2795
  834TIP3   OH226696   0.143   5.415  14.275  0.4450  0.2032  0.2760
  834TIP3    H126697   0.118   5.476  14.205 -2.9569  0.2819  1.4048
  834TIP3    H226698   0.239   5.423  14.280  0.3734  3.8733 -1.0201
  835TIP3   OH226699   5.069   1.580  14.723 -0.2514 -0.4669  0.1191
  835TIP3    H126700   5.121   1.555  14.799  0.3001  1.6245  0.5014
  835TIP3    H226701   5.133   1.614  14.660 -0.9289 -0.0262 -0.3486
  836TIP3   OH226702   1.477   5.944  14.281  0.3686  0.3148  0.0637
  836TIP3    H126703   1.545   6.003  14.313  0.2224 -0.0006  0.9725
  836TIP3    H226704   1.484   5.867  14.337 -0.2578 -0.0214 -0.3163
  837TIP3   OH226705   3.626   8.343  13.562  0.1654 -0.0416  0.5165
  837TIP3    H126706   3.612   8.304  13.648 -0.2413 -0.9042  0.0786
  837TIP3    H226707   3.710   8.308  13.533  1.7866  2.5493  1.7586
  838TIP3   OH226708   2.370   0.680  13.663 -0.1762  0.4193 -0.1316
  838TIP3    H126709   2.414   0.765  13.669  3.2014 -1.1133 -0.3166
  838TIP3    H226710   2.390   0.650  13.575 -1.7845 -0.3636 -0.2482
  839TIP3   OH226711   5.476   1.137  13.390  0.3602  0.4133 -0.1051
  839TIP3    H126712   5.419   1.213  13.384  1.6025  1.3797 -0.0661
  839TIP3    H226713   5.551   1.167  13.441  0.9503 -0.7921 -0.2239
  840TIP3   OH226714   1.850   0.109  13.481  0.1088 -0.1075  0.1561
  840TIP3    H126715   1.876   0.201  13.481  2.7469 -0.7480 -0.9209
  840TIP3    H226716   1.864   0.080  13.571  1.1255  0.1356  0.0964
  841TIP3   OH226717   4.029   2.795  15.091 -0.5064  0.0720  0.0712
  841TIP3    H126718   4.063   2.771  15.005  0.1365  0.1388  0.3014
  841TIP3    H226719   4.097   2.768  15.152 -1.0208 -0.1084  0.5765
  842TIP3   OH226720   6.679   4.219  15.110  0.0442 -0.8627  0.4774
  842TIP3    H126721   6.694   4.253  15.022  0.3071 -1.2084  0.3833
  842TIP3    H226722   6.661   4.126  15.096 -1.9538 -0.5372  0.6139
  843TIP3   OH226723   4.928   5.734  14.758 -0.2946 -0.0046  0.2436
  843TIP3    H126724   5.009   5.709  14.714 -0.2400  0.8670 -0.1732
  843TIP3    H226725   4.906   5.658  14.812  0.3299 -0.5907 -0.2975
  844TIP3   OH226726   1.367   6.790  13.768 -0.4041 -0.3459  0.2116
  844TIP3    H126727   1.358   6.747  13.853 -0.3968 -2.9991 -1.0217
  844TIP3    H226728   1.452   6.760  13.735 -0.8793 -0.2276 -1.1674
  845TIP3   OH226729   2.482   4.266  14.139  0.2005  0.1614 -0.6459
  845TIP3    H126730   2.495   4.355  14.174 -2.6059  0.6217 -0.5476
  845TIP3    H226731   2.434   4.280  14.057  2.6021 -1.1671 -2.3854
  846TIP3   OH226732   2.449   4.940  12.575  0.1687  0.6703  0.1334
  846TIP3    H126733   2.537   4.936  12.613 -0.5266  1.4511  1.9116
  846TIP3    H226734   2.402   4.866  12.614 -0.1436  0.6083 -0.3515
  847TIP3   OH226735   6.125   6.526  13.959  0.3727 -0.3694 -0.5845
  847TIP3    H126736   6.058   6.523  13.892 -0.8511  1.2469  0.4934
  847TIP3    H226737   6.106   6.451  14.016 -2.1900  1.4515  1.1455
  848TIP3   OH226738   5.444   0.260  14.076  0.1316  0.2305  0.1794
  848TIP3    H126739   5.468   0.353  14.069 -1.1784  0.6604  0.9789
  848TIP3    H226740   5.450   0.241  14.170  1.1534 -0.7257 -0.0620
  849TIP3   OH226741   2.806   4.812  14.618  0.1093 -0.1755  0.8707
  849TIP3    H126742   2.800   4.904  14.592  0.6925 -0.1393  0.8426
  849TIP3    H226743   2.719   4.776  14.600 -0.1811  0.4152  1.0613
  850TIP3   OH226744   6.348   3.559  13.349  0.2123 -0.0136  0.0784
  850TIP3    H126745   6.348   3.641  13.301 -0.5258  0.4217  0.7920
  850TIP3    H226746   6.440   3.532  13.351  0.1943 -0.4286 -2.1650
  851TIP3   OH226747   7.468   2.717  13.789 -0.3969  0.5112 -0.2973
  851TIP3    H126748   7.525   2.784  13.751 -0.5383  0.2413 -1.0055
  851TIP3    H226749   7.398   2.707  13.725 -0.7922  0.2444  0.1788
  852TIP3   OH226750   2.915   0.460  14.442 -0.1611  0.2106 -0.6229
  852TIP3    H126751   2.882   0.447  14.353  1.6395 -1.0814 -1.1593
  852TIP3    H226752   3.003   0.423  14.441 -0.3074 -0.4144  1.8870
  853TIP3   OH226753   4.331   2.755  14.833  0.8427 -0.1619  0.2093
  853TIP3    H126754   4.334   2.762  14.737  0.5908  0.7869  0.2651
  853TIP3    H226755   4.242   2.728  14.853  0.6822  0.3746  0.2187
  854TIP3   OH226756   4.121   6.957  13.554  0.1971 -0.3275  0.3827
  854TIP3    H126757   4.067   6.921  13.484 -0.8604 -0.0631  1.0513
  854TIP3    H226758   4.059   6.992  13.617  1.1641  0.3815  0.9601
  855TIP3   OH226759   7.231   2.998  14.376 -0.2117  0.5941 -0.3886
  855TIP3    H126760   7.321   3.029  14.389  0.8190 -1.0933 -2.7678
  855TIP3    H226761   7.205   3.033  14.291 -1.9844  1.3328  0.4098
  856TIP3   OH226762   4.618   0.263  14.358 -0.1890  0.0582  0.2376
  856TIP3    H126763   4.710   0.276  14.381  0.1415 -2.2113  0.5087
  856TIP3    H226764   4.583   0.351  14.345  1.6875  1.0341  1.3862
  857TIP3   OH226765   1.129   1.084  14.454 -0.5353  0.1046 -0.0401
  857TIP3    H126766   1.064   1.045  14.514 -0.2185  1.6166  1.3635
  857TIP3    H226767   1.082   1.154  14.410 -0.5491 -0.5054 -1.0235
  858TIP3   OH226768   5.505   1.860  14.497  0.8433 -0.0292  0.1885
  858TIP3    H126769   5.556   1.898  14.569  2.2354 -0.0606 -0.7316
  858TIP3    H226770   5.559   1.787  14.466  1.1774  1.1172 -2.0604
  859TIP3   OH226771   6.913   0.832  13.165  0.3837 -0.3389 -0.3816
  859TIP3    H126772   6.853   0.905  13.151 -0.4912 -0.8482  0.5640
  859TIP3    H226773   6.906   0.779  13.086  2.3207  1.4438 -1.8437
  860TIP3   OH226774   7.302   0.597  15.031  0.4240 -0.3266 -0.3487
  860TIP3    H126775   7.286   0.603  14.937  0.7529  0.0947 -0.3802
  860TIP3    H226776   7.301   0.503  15.050  0.7419 -0.4326 -0.8476
  861TIP3   OH226777   3.735   3.384  14.053 -0.6790  0.1450  0.1883
  861TIP3    H126778   3.686   3.315  14.096 -0.0757 -0.6247 -0.3382
  861TIP3    H226779   3.668   3.445  14.020 -1.4144 -1.5571 -1.6998
  862TIP3   OH226780   3.780   6.785  13.936  0.0891  0.3304  0.5332
  862TIP3    H126781   3.759   6.863  13.987  0.6389 -0.4148  1.9505
  862TIP3    H226782   3.749   6.712  13.990 -1.3478 -0.4330 -1.2032
  863TIP3   OH226783   8.014   2.646  14.150  0.1130  0.4112  0.2687
  863TIP3    H126784   7.935   2.594  14.138  0.1132  1.0843 -4.0514
  863TIP3    H226785   8.086   2.584  14.138  0.2691  0.2617  1.7748
  864TIP3   OH226786   7.984   1.514  13.325  0.6816  0.1474 -0.4070
  864TIP3    H126787   8.050   1.446  13.327 -1.0031 -1.5953 -1.1040
  864TIP3    H226788   8.002   1.563  13.245  1.9420  0.5957  0.1313
  865TIP3   OH226789   0.870   5.379  13.423  0.2475  0.4161 -0.6819
  865TIP3    H126790   0.959   5.414  13.429  0.2762  0.2554 -0.1016
  865TIP3    H226791   0.878   5.304  13.365  0.7859 -0.5021  0.5333
  866TIP3   OH226792   1.425   6.232  13.994  0.5569 -0.0660 -0.0351
  866TIP3    H126793   1.417   6.326  14.012  0.2127 -0.1021 -0.0014
  866TIP3    H226794   1.376   6.219  13.913  2.3881  0.1628 -1.2481
  867TIP3   OH226795   7.252   0.649  13.071  0.4642 -0.3930 -0.2680
  867TIP3    H126796   7.306   0.639  12.993 -0.4232 -1.3099 -0.7831
  867TIP3    H226797   7.304   0.612  13.142  0.5646 -1.1711 -0.7396
  868TIP3   OH226798   0.140   1.751  13.137 -0.4335 -0.4692  0.8580
  868TIP3    H126799   0.066   1.710  13.183  1.4578 -2.8516  1.9630
  868TIP3    H226800   0.192   1.792  13.206 -0.0447  0.1365  0.2230
  869TIP3   OH226801   7.613   4.101  12.661 -0.2634  0.1414  0.1869
  869TIP3    H126802   7.597   4.144  12.745 -0.6499 -0.2106  0.2959
  869TIP3    H226803   7.578   4.163  12.596 -0.5248  0.1370  0.3229
  870TIP3   OH226804   6.264   1.006  14.185  0.1537 -0.1280  0.2302
  870TIP3    H126805   6.310   0.932  14.224 -1.1122 -0.8161  0.4663
  870TIP3    H226806   6.172   0.993  14.210 -0.3799  0.4965 -1.2947
  871TIP3   OH226807   4.909   4.101  14.613  0.1560  0.6050 -0.2399
  871TIP3    H126808   4.821   4.124  14.581  0.4143  1.6243 -0.2443
  871TIP3    H226809   4.967   4.163  14.569  0.9867 -0.5367 -0.8232
  872TIP3   OH226810   1.492   5.118  13.765 -0.5119 -0.3620 -0.3319
  872TIP3    H126811   1.525   5.032  13.740  0.4530 -0.2479  0.4812
  872TIP3    H226812   1.559   5.180  13.736 -0.6921  0.0126  0.0278
  873TIP3   OH226813   2.689   4.979  13.466 -0.5405 -0.1476 -0.2621
  873TIP3    H126814   2.688   5.035  13.388 -1.8434  0.2522  0.0156
  873TIP3    H226815   2.745   5.025  13.528 -1.6262  0.9250 -0.0216
  874TIP3   OH226816   1.479   4.439  14.471  0.0066 -0.4021 -0.3003
  874TIP3    H126817   1.557   4.473  14.514  0.1327 -0.5174 -0.4334
  874TIP3    H226818   1.444   4.375  14.533  1.3208 -2.0763 -1.1790
  875TIP3   OH226819   7.318   6.874  14.639  0.3647  0.3078  0.5828
  875TIP3    H126820   7.227   6.863  14.611  0.2996 -1.9520  1.5051
  875TIP3    H226821   7.314   6.947  14.701 -0.1609  2.5685 -1.9289
  876TIP3   OH226822   0.274   3.415  13.553  0.0139 -0.3811  0.2276
  876TIP3    H126823   0.275   3.506  13.582  0.7366 -0.7454  1.4564
  876TIP3    H226824   0.276   3.419  13.458 -1.5910  0.8931  0.2090
  877TIP3   OH226825   5.481   6.239  13.343 -0.1989  0.2169  0.3466
  877TIP3    H126826   5.519   6.325  13.329 -2.4272  1.0167 -1.3535
  877TIP3    H226827   5.436   6.219  13.261 -1.2511 -1.7676  1.3319
  878TIP3   OH226828   1.623   5.393  14.952 -0.2138  0.5670 -0.0733
  878TIP3    H126829   1.601   5.427  15.039  2.5364  2.6534 -0.0600
  878TIP3    H226830   1.624   5.298  14.964  1.6385  0.8119  2.6776
  879TIP3   OH226831   2.220   4.591  14.884 -0.5620  0.0623  0.5621
  879TIP3    H126832   2.166   4.514  14.903 -0.3904 -1.0696 -2.8168
  879TIP3    H226833   2.306   4.569  14.920 -0.8274 -0.7888  0.7022
  880TIP3   OH226834   6.335   7.167  14.734 -0.2598 -0.2474  0.2985
  880TIP3    H126835   6.400   7.098  14.721 -0.7823 -0.7035  0.0944
  880TIP3    H226836   6.380   7.248  14.708 -0.5797 -0.8573 -2.3912
  881TIP3   OH226837   5.015   5.749  14.314 -0.6345  0.0485  0.8427
  881TIP3    H126838   4.933   5.796  14.295  0.0060  0.5535 -0.8064
  881TIP3    H226839   4.990   5.656  14.309 -0.9012  0.1749 -0.8246
  882TIP3   OH226840   0.368   5.156  13.523 -0.0023 -0.0401 -0.2097
  882TIP3    H126841   0.398   5.147  13.432  0.3440 -0.7783 -0.0309
  882TIP3    H226842   0.449   5.167  13.573 -0.2325  1.0912 -0.0603
  883TIP3   OH226843   2.824   2.982  14.708 -0.4872 -0.1770  0.0526
  883TIP3    H126844   2.859   2.958  14.622  1.0774 -1.2069  0.9233
  883TIP3    H226845   2.901   2.987  14.764 -1.5807 -0.7983  1.6780
  884TIP3   OH226846   6.530   0.611  15.378 -0.5371  0.1751 -0.2843
  884TIP3    H126847   6.574   0.692  15.403  0.0336 -0.0836 -0.4381
  884TIP3    H226848   6.463   0.638  15.315 -0.3507  0.5263 -0.3303
  885TIP3   OH226849   2.653   8.339  14.319 -0.3218 -0.4900 -0.4487
  885TIP3    H126850   2.601   8.408  14.361  1.8590  0.1526  1.3968
  885TIP3    H226851   2.634   8.260  14.369  0.1150 -0.3483 -0.0495
  886TIP3   OH226852   7.376   6.270  14.351 -0.1616 -0.1833 -0.1486
  886TIP3    H126853   7.295   6.254  14.399  0.0992 -0.3995  0.2331
  886TIP3    H226854   7.398   6.361  14.370  0.8208 -0.7112  1.5527
  887TIP3   OH226855   3.676   1.259  14.469 -0.0964  0.4173 -0.1185
  887TIP3    H126856   3.715   1.345  14.481 -0.5958  0.4755  1.2097
  887TIP3    H226857   3.682   1.218  14.555 -0.5324 -0.6002 -0.5593
  888TIP3   OH226858   1.026   2.364  14.439 -0.0949 -0.0357  0.4206
  888TIP3    H126859   0.996   2.366  14.530  0.8708 -1.7088  0.8319
  888TIP3    H226860   0.990   2.282  14.404  0.2571  0.1603 -0.4286
  889TIP3   OH226861   6.734   6.886  13.635 -0.6675  0.3342 -0.5865
  889TIP3    H126862   6.656   6.841  13.667 -0.6358  1.2686  0.9087
  889TIP3    H226863   6.701   6.965  13.592 -0.6443 -0.3647 -1.9306
  890TIP3   OH226864   8.017   2.496  14.491 -0.3103  0.5152 -0.7845
  890TIP3    H126865   8.095   2.483  14.438  0.9913  3.1051  0.3141
  890TIP3    H226866   7.970   2.567  14.448 -1.2637  0.0605 -0.5308
  891TIP3   OH226867   7.699   8.265  13.639  0.4186  0.0104 -0.0452
  891TIP3    H126868   7.666   8.175  13.645 -0.3567  0.3748  1.5464
  891TIP3    H226869   7.777   8.265  13.695  0.1617  0.4374  0.3133
  892TIP3   OH226870   2.428   4.958  14.864 -0.1445  0.7160 -0.0720
  892TIP3    H126871   2.513   4.987  14.897  0.0089  2.2882 -1.7185
  892TIP3    H226872   2.448   4.907  14.785 -0.7345  1.5471 -0.7730
  893TIP3   OH226873   7.877   7.354  14.823 -0.3185  0.1893 -0.3485
  893TIP3    H126874   7.827   7.372  14.903 -1.5926  1.8056 -1.4213
  893TIP3    H226875   7.941   7.425  14.818  0.9321 -0.8674  0.0772
  894TIP3   OH226876   0.680   8.038  14.807  0.3537  0.3464 -0.4526
  894TIP3    H126877   0.751   8.048  14.743 -0.0238 -0.5403 -1.0337
  894TIP3    H226878   0.657   8.127  14.832 -0.6115  0.8196 -2.7955
  895TIP3   OH226879   5.507   8.361  14.534  0.4266 -0.1523  0.4417
  895TIP3    H126880   5.574   8.292  14.531  0.7670  0.2006 -0.2934
  895TIP3    H226881   5.556   8.441  14.554  0.2209  0.1011 -0.0615
  896TIP3   OH226882   6.758   4.729  13.025 -0.3050  0.2718 -0.3494
  896TIP3    H126883   6.682   4.674  13.044  1.4681 -2.1803  0.2056
  896TIP3    H226884   6.777   4.775  13.107 -0.5890  0.1123 -0.1948
  897TIP3   OH226885   6.684   4.233  14.561  0.0672 -0.1873 -0.0248
  897TIP3    H126886   6.610   4.179  14.533 -0.9061  0.8474  0.4944
  897TIP3    H226887   6.744   4.230  14.486  0.5629 -2.8113  0.3742
  898TIP3   OH226888   2.250   2.542  14.310 -0.2654  0.5431 -0.4026
  898TIP3    H126889   2.201   2.607  14.259  1.2918  2.0450 -0.0851
  898TIP3    H226890   2.338   2.544  14.272  0.0985 -0.5986  0.3335
  899TIP3   OH226891   2.405   7.823  14.117 -0.2546 -0.2542  0.1056
  899TIP3    H126892   2.365   7.825  14.204 -2.4838  0.8274 -0.8452
  899TIP3    H226893   2.463   7.900  14.116  0.3513 -0.6894  0.8533
  900TIP3   OH226894   2.529   7.921  14.899 -0.4390  0.4598 -0.3372
  900TIP3    H126895   2.493   7.995  14.850 -2.2312  0.6990  1.2222
  900TIP3    H226896   2.455   7.887  14.950  0.9253 -0.8022  0.9261
  901TIP3   OH226897   4.909   2.871  15.222  0.3851  0.1544  0.0417
  901TIP3    H126898   4.828   2.866  15.172  1.0687 -0.6556 -1.0436
  901TIP3    H226899   4.911   2.961  15.256  0.1895  0.9575 -1.9335
  902TIP3   OH226900   2.002   7.506  14.969  0.2314 -0.0448 -0.0205
  902TIP3    H126901   2.014   7.508  14.874  0.7124  1.3792  0.0365
  902TIP3    H226902   1.911   7.531  14.983  0.0058 -0.7945 -0.1148
  903TIP3   OH226903   6.989   7.965  14.680  0.0682 -0.6137  0.0892
  903TIP3    H126904   6.975   7.938  14.589 -1.3095 -1.7732  0.6208
  903TIP3    H226905   7.046   7.897  14.717  0.6043 -0.1582  0.1280
  904TIP3   OH226906   3.680   8.161  12.960 -0.6499  0.1054  0.0134
  904TIP3    H126907   3.651   8.208  12.882  0.0184 -0.2481 -0.4547
  904TIP3    H226908   3.733   8.225  13.008  0.5504 -0.2451 -0.7966
  905TIP3   OH226909   7.828   0.471  13.517 -0.1723 -0.6416 -0.2668
  905TIP3    H126910   7.915   0.464  13.557 -1.0821 -1.6157  1.7175
  905TIP3    H226911   7.815   0.565  13.505  0.2568 -0.2977  1.6422
  906TIP3   OH226912   1.018   4.559  14.821 -0.7637  0.0349  0.1450
  906TIP3    H126913   1.065   4.559  14.738  1.1597  0.9153  1.1730
  906TIP3    H226914   0.926   4.568  14.796 -0.0627  3.1367 -1.8706
  907TIP3   OH226915   7.463   1.429  13.001  0.1423  0.0866  0.1483
  907TIP3    H126916   7.512   1.427  13.082  0.1771 -0.0326  0.1251
  907TIP3    H226917   7.371   1.424  13.028  0.1099  1.0297  0.2228
  908TIP3   OH226918   3.737   2.606  13.404 -0.4226 -0.1629  0.3331
  908TIP3    H126919   3.790   2.680  13.373 -0.4391 -0.2553  0.0823
  908TIP3    H226920   3.719   2.555  13.325  2.0072 -2.0122  0.8560
  909TIP3   OH226921   0.983   0.798  13.111 -0.4300 -0.0690  0.7577
  909TIP3    H126922   0.929   0.870  13.078 -1.0623 -0.4697  0.9024
  909TIP3    H226923   0.925   0.722  13.109  0.3505 -0.6604  0.2451
  910TIP3   OH226924   7.669   2.105  14.270  0.1299  0.3892  0.1934
  910TIP3    H126925   7.651   2.198  14.282 -0.3355  0.2345  0.7571
  910TIP3    H226926   7.756   2.102  14.231  0.1446  1.0607  0.1634
  911TIP3   OH226927   1.106   6.765  12.772  0.3892  0.1748  0.5505
  911TIP3    H126928   1.100   6.828  12.844  2.4639 -0.3171  1.2028
  911TIP3    H226929   1.194   6.729  12.778 -0.0100 -1.2305 -1.1371
  912TIP3   OH226930   4.914   1.705  14.420 -0.2310 -0.1332 -0.7244
  912TIP3    H126931   4.925   1.785  14.472  1.1096 -0.7432 -0.0043
  912TIP3    H226932   4.959   1.723  14.338 -0.2948  0.0082 -0.7275
  913TIP3   OH226933   2.874   4.179  15.047  0.1728 -0.0819  0.2704
  913TIP3    H126934   2.960   4.204  15.080 -0.1205 -1.3520  2.1411
  913TIP3    H226935   2.829   4.263  15.031  1.6039  0.5875 -0.4092
  914TIP3   OH226936   6.268   0.343  14.378  0.9791  0.3786  0.0719
  914TIP3    H126937   6.241   0.297  14.458  0.5031  2.2550  1.0545
  914TIP3    H226938   6.228   0.293  14.307  1.0324 -1.0718  1.0246
  915TIP3   OH226939   6.420   6.473  13.626 -0.3859 -0.6378 -0.2983
  915TIP3    H126940   6.429   6.411  13.698  0.1229  0.0111  0.2123
  915TIP3    H226941   6.462   6.430  13.551 -0.3950 -1.0721 -0.0532
  916TIP3   OH226942   5.407   2.465  14.516  0.0944 -0.0764 -0.0498
  916TIP3    H126943   5.430   2.552  14.482  1.4695 -0.5632 -0.4336
  916TIP3    H226944   5.485   2.412  14.500  0.5634 -0.5575  3.1638
  917TIP3   OH226945   5.107   1.215  14.591 -0.0931 -0.2821 -0.0874
  917TIP3    H126946   5.056   1.286  14.554  0.5416 -0.1395 -0.7098
  917TIP3    H226947   5.185   1.257  14.627  0.0100 -0.5925  0.0579
  918TIP3   OH226948   7.338   6.750  13.405  0.3729  0.1233  0.8235
  918TIP3    H126949   7.280   6.764  13.331  0.3782  0.4468  0.8793
  918TIP3    H226950   7.426   6.746  13.367  0.1761 -2.2127  0.5129
  919TIP3   OH226951   2.361   5.572  14.110  0.5909  0.1433  0.7492
  919TIP3    H126952   2.395   5.638  14.050  0.6082 -0.1808  0.3951
  919TIP3    H226953   2.368   5.612  14.196  0.5686  0.6164  0.5364
  920TIP3   OH226954   0.332   3.733  14.541  0.3840 -0.5971  0.2992
  920TIP3    H126955   0.298   3.710  14.627  0.0981 -2.4936 -0.2669
  920TIP3    H226956   0.376   3.817  14.554 -0.2149 -0.5246  2.1319
  921TIP3   OH226957   7.424   1.127  14.177  0.5653 -0.2501 -0.1029
  921TIP3    H126958   7.515   1.155  14.175  0.0930  1.3278 -0.3532
  921TIP3    H226959   7.404   1.103  14.087  0.1262  1.5180 -0.5080
  922TIP3   OH226960   1.043   7.161  13.426  0.1197  0.6099 -0.5211
  922TIP3    H126961   1.027   7.256  13.428  0.1556  0.6021  0.2484
  922TIP3    H226962   0.959   7.124  13.399 -0.3244  0.7739  0.5728
  923TIP3   OH226963   3.308   1.166  14.699  0.1841  0.0723 -0.6595
  923TIP3    H126964   3.344   1.177  14.611 -1.1258  0.5977 -1.1563
  923TIP3    H226965   3.336   1.244  14.746  0.8546 -0.1895 -0.6165
  924TIP3   OH226966   1.548   4.387  13.591 -0.4657 -0.0113 -0.1519
  924TIP3    H126967   1.638   4.365  13.570 -0.4206  0.2052 -0.1872
  924TIP3    H226968   1.530   4.339  13.672 -0.3053 -0.0230 -0.1224
  925TIP3   OH226969   2.018   8.234  13.311 -0.4055  0.0482  0.1950
  925TIP3    H126970   1.989   8.231  13.220 -1.9816  0.7382  0.6331
  925TIP3    H226971   2.104   8.193  13.311 -0.9816 -1.2492 -1.3717
  926TIP3   OH226972   5.377   6.967  14.300 -0.2233 -0.0954  0.1157
  926TIP3    H126973   5.453   6.968  14.243 -0.2985  0.6317  0.0218
  926TIP3    H226974   5.303   6.984  14.242 -0.8596 -3.5768 -0.3119
  927TIP3   OH226975   6.363   7.550  13.697  0.5565 -0.5564 -0.0866
  927TIP3    H126976   6.351   7.543  13.603  0.3684  0.7092 -0.1753
  927TIP3    H226977   6.327   7.636  13.720 -0.5199 -1.3358  1.3263
  928TIP3   OH226978   6.714   3.461  14.227  0.4211 -0.1313  0.4076
  928TIP3    H126979   6.726   3.479  14.134 -0.2649  1.3965  0.5797
  928TIP3    H226980   6.621   3.477  14.243  0.6474  0.2523  1.4673
  929TIP3   OH226981   0.475   1.700  13.655  0.5229  0.0481 -0.1541
  929TIP3    H126982   0.536   1.774  13.657  0.9311 -0.2897  0.0410
  929TIP3    H226983   0.505   1.646  13.581  1.4101 -0.9008  0.8559
  930TIP3   OH226984   4.599   1.528  13.658 -0.0194  0.4963 -0.3686
  930TIP3    H126985   4.528   1.554  13.598 -0.8765 -0.8366  0.0382
  930TIP3    H226986   4.601   1.598  13.723 -0.1669  1.1423 -1.0372
  931TIP3   OH226987   3.419   6.996  14.526 -0.8668  0.2287 -0.7126
  931TIP3    H126988   3.403   7.068  14.464  2.4896  1.3749 -0.4160
  931TIP3    H226989   3.472   6.933  14.477 -0.7607 -0.3541  0.1208
  932TIP3   OH226990   1.206   0.450  13.404 -0.1701  0.0274  0.6766
  932TIP3    H126991   1.145   0.402  13.349 -1.2326  1.5552  0.4461
  932TIP3    H226992   1.265   0.493  13.343 -1.1898  1.5164  0.6803
  933TIP3   OH226993   7.034   7.257  14.414  0.1527 -0.1001  0.7663
  933TIP3    H126994   7.054   7.246  14.507  1.6586  0.4302  0.5486
  933TIP3    H226995   6.957   7.203  14.398 -1.5493  1.5542  2.8111
  934TIP3   OH226996   0.136   5.612  14.589 -0.3727  0.4995 -0.2093
  934TIP3    H126997   0.140   5.666  14.509  0.9142 -1.2350 -1.3675
  934TIP3    H226998   0.042   5.600  14.604 -0.6737  2.2164 -0.4682
  935TIP3   OH226999   8.289   4.941  14.959  0.4754  0.2854  0.3664
  935TIP3    H127000   8.241   5.017  14.924  1.2496  2.1279  2.9863
  935TIP3    H227001   8.363   4.979  15.005  1.1229 -2.1236  1.4553
  936TIP3   OH227002   5.250   6.243  14.957 -0.2423  0.7003  0.0154
  936TIP3    H127003   5.191   6.286  14.895  0.2446  1.0742 -0.1906
  936TIP3    H227004   5.194   6.180  15.004 -0.0477 -1.9008 -2.9074
  937TIP3   OH227005   3.033   3.248  14.706  0.3745 -0.0627 -0.8501
  937TIP3    H127006   2.953   3.251  14.652 -0.4221 -0.7086  0.2570
  937TIP3    H227007   3.006   3.280  14.791  1.2232 -0.5897 -0.3666
  938TIP3   OH227008   7.327   8.175  13.510  0.4809 -0.1065 -0.0119
  938TIP3    H127009   7.262   8.128  13.457  1.1712  1.2207 -2.1802
  938TIP3    H227010   7.411   8.144  13.477  0.9365  0.5397  0.5274
  939TIP3   OH227011   5.304   5.430  13.048 -0.0008 -0.3220 -0.4044
  939TIP3    H127012   5.292   5.466  13.136 -1.6484  0.4373 -0.9043
  939TIP3    H227013   5.364   5.492  13.005  0.6246 -0.5714  0.0990
  940TIP3   OH227014   5.447   8.362  13.127  0.5104 -0.2542 -0.1785
  940TIP3    H127015   5.476   8.330  13.213  1.8176  3.3241  0.8982
  940TIP3    H227016   5.526   8.361  13.074  0.6162  1.2029 -0.0702
  941TIP3   OH227017   4.474   3.916  15.060 -0.7225  0.4786 -0.0933
  941TIP3    H127018   4.513   3.979  14.999 -0.8452  2.4822  1.7958
  941TIP3    H227019   4.544   3.895  15.121 -0.7611 -1.0865 -0.5439
  942TIP3   OH227020   3.591   8.254  13.838  0.2450  0.2567 -0.0327
  942TIP3    H127021   3.636   8.315  13.895  0.6190  0.8827 -0.9756
  942TIP3    H227022   3.638   8.171  13.848 -0.1690  0.1396  1.1262
  943TIP3   OH227023   7.902   8.332  13.452  0.0068 -0.2597  0.5665
  943TIP3    H127024   7.817   8.311  13.490 -1.0280  0.0929 -1.4217
  943TIP3    H227025   7.916   8.424  13.473 -0.5312 -0.0838  0.1840
  944TIP3   OH227026   5.112   7.215  14.185 -0.1862  0.1172  0.2577
  944TIP3    H127027   5.035   7.225  14.129  0.1369  1.9526  0.0682
  944TIP3    H227028   5.172   7.283  14.154 -0.1845  1.5732  3.1119
  945TIP3   OH227029   5.617   1.607  14.388 -0.3982 -0.0947 -0.1118
  945TIP3    H127030   5.665   1.539  14.434 -0.2175  0.2028  0.1470
  945TIP3    H227031   5.683   1.651  14.333  0.3476  2.2520  2.4393
  946TIP3   OH227032   4.642   5.555  13.933  0.1140  0.7749  0.0361
  946TIP3    H127033   4.669   5.621  13.997  1.0234  0.7004 -0.2702
  946TIP3    H227034   4.594   5.604  13.866 -0.9604  0.8396  0.8162
  947TIP3   OH227035   4.602   7.807  14.506 -0.1517 -0.3172  0.0663
  947TIP3    H127036   4.679   7.750  14.510  0.4466  0.3256 -1.5825
  947TIP3    H227037   4.633   7.891  14.540 -0.4889 -0.4179  0.6260
  948TIP3   OH227038   3.220   3.435  15.002  0.4632 -0.5195 -0.4678
  948TIP3    H127039   3.190   3.430  15.093  2.5426 -1.2195  0.2330
  948TIP3    H227040   3.166   3.503  14.962 -0.2961  0.0049  1.3661
  949TIP3   OH227041   4.493   3.601  13.611 -0.2019 -0.3955  0.9116
  949TIP3    H127042   4.507   3.558  13.695 -1.6163 -1.5973  0.5609
  949TIP3    H227043   4.446   3.536  13.558  0.0309  0.5971 -0.5676
  950TIP3   OH227044   5.592   4.482  12.952  0.0416  0.3064  0.5251
  950TIP3    H127045   5.543   4.535  13.015  1.2545  2.3216 -0.1384
  950TIP3    H227046   5.680   4.519  12.953  0.9507 -1.6945 -0.0417
  951TIP3   OH227047   6.114   6.250  12.925  0.2413  0.8652  0.1104
  951TIP3    H127048   6.039   6.305  12.903 -0.3630  0.5605  1.3018
  951TIP3    H227049   6.078   6.161  12.931  0.8844  0.5739 -0.2234
  952TIP3   OH227050   0.787   7.578  13.618 -0.6732 -0.3236 -0.4272
  952TIP3    H127051   0.863   7.541  13.664 -1.4495 -1.7881 -0.2518
  952TIP3    H227052   0.825   7.622  13.542  0.5584  1.4552  1.1427
  953TIP3   OH227053   4.659   0.427  12.791  0.0665  0.7313 -0.1298
  953TIP3    H127054   4.715   0.350  12.783 -1.7452 -0.6075 -0.4310
  953TIP3    H227055   4.660   0.466  12.703  1.2895  1.3210  0.1189
  954TIP3   OH227056   5.614   5.850  13.079 -0.4514  0.3947  0.4664
  954TIP3    H127057   5.672   5.783  13.044  0.2474  0.6587  1.0769
  954TIP3    H227058   5.582   5.813  13.161 -0.8560  0.4016  0.3108
  955TIP3   OH227059   6.909   0.129  13.185 -0.4781  0.4037  0.0892
  955TIP3    H127060   6.940   0.091  13.267 -0.2018  2.9148  1.2399
  955TIP3    H227061   6.988   0.162  13.142 -0.6468 -0.6903 -1.1097
  956TIP3   OH227062   6.127   5.791  13.544  0.0609 -0.1277  0.3501
  956TIP3    H127063   6.132   5.700  13.515  0.5866 -0.3122  0.9976
  956TIP3    H227064   6.196   5.835  13.494  0.8933 -0.4231  1.2249
  957TIP3   OH227065   5.076   6.350  14.772  0.9291 -0.0109 -0.3145
  957TIP3    H127066   5.154   6.377  14.724  0.3984  2.5112  0.0986
  957TIP3    H227067   5.028   6.293  14.711  2.3244 -0.3491 -1.1248
  958TIP3   OH227068   8.093   5.947  14.777  0.0998 -0.2010 -0.3640
  958TIP3    H127069   8.118   5.883  14.710 -0.5071 -0.4875 -0.3221
  958TIP3    H227070   8.030   5.901  14.832 -1.9454  1.0214 -1.5392
  959TIP3   OH227071   5.897   0.143  14.393 -0.3682  0.3319  0.0555
  959TIP3    H127072   5.950   0.191  14.457 -1.7021  1.2056  0.5433
  959TIP3    H227073   5.914   0.051  14.413  0.3872  0.5950  0.6809
  960TIP3   OH227074   2.510   8.055  13.519  0.0608  0.4587  0.0202
  960TIP3    H127075   2.508   8.107  13.438 -0.3924  0.5448  0.0836
  960TIP3    H227076   2.471   7.971  13.494 -0.2247  0.5418  0.1888
  961TIP3   OH227077   3.022   7.626  13.718  0.3518  0.4701  0.3004
  961TIP3    H127078   3.052   7.609  13.628 -0.2627  0.1486  0.1444
  961TIP3    H227079   3.024   7.721  13.727 -0.9455  0.6080 -0.5612
  962TIP3   OH227080   7.478   7.363  15.022  0.1686  0.3432  0.4441
  962TIP3    H127081   7.473   7.433  14.957 -0.9123  0.8629  1.0425
  962TIP3    H227082   7.389   7.328  15.026  0.1764  0.3977  1.6916
  963TIP3   OH227083   0.469   2.902  14.308 -0.1564 -0.2161  0.3959
  963TIP3    H127084   0.523   2.951  14.246  2.9033 -1.9581  1.4831
  963TIP3    H227085   0.455   2.963  14.380  0.2614  0.3152  0.0390
  964TIP3   OH227086   6.238   3.915  14.476 -0.5130  0.0822 -0.9376
  964TIP3    H127087   6.170   3.851  14.500 -0.8447 -0.2901 -2.7226
  964TIP3    H227088   6.190   3.997  14.463 -0.1803  0.5655  0.6694
  965TIP3   OH227089   5.108   4.610  14.705  0.7268 -0.0058  0.0939
  965TIP3    H127090   5.168   4.676  14.670 -0.1374  0.3808 -0.7119
  965TIP3    H227091   5.068   4.652  14.781  0.6574  0.1647 -0.0352
  966TIP3   OH227092   6.287   6.909  14.090 -0.4752 -0.2988 -0.1120
  966TIP3    H127093   6.348   6.870  14.153 -0.7995  0.2781  0.5805
  966TIP3    H227094   6.275   6.998  14.123  1.7779  1.1137 -2.6874
  967TIP3   OH227095   1.592   2.935  12.783  0.8750 -0.1294 -0.0717
  967TIP3    H127096   1.556   2.897  12.863  0.1962  0.1829 -0.2178
  967TIP3    H227097   1.515   2.956  12.730  1.3270 -0.5964 -0.9323
  968TIP3   OH227098   5.975   0.138  13.720 -0.2542 -0.5737  0.4673
  968TIP3    H127099   6.046   0.079  13.741  1.7129  1.1005 -1.0590
  968TIP3    H227100   5.976   0.144  13.624 -1.1230  1.0209  0.5217
  969TIP3   OH227101   7.423   6.958  13.784  0.2604  0.1674  0.6823
  969TIP3    H127102   7.335   6.972  13.748  0.1437 -0.1481  0.8357
  969TIP3    H227103   7.419   6.869  13.821  1.3102 -0.7778 -1.3121
  970TIP3   OH227104   0.205   1.718  14.481  0.2157  0.2115 -0.0978
  970TIP3    H127105   0.262   1.789  14.513 -0.9035  1.3461 -0.5410
  970TIP3    H227106   0.257   1.676  14.413  1.5302 -0.4597  1.2569
  971TIP3   OH227107   7.650   5.517  14.703  0.2305 -0.0095 -0.3840
  971TIP3    H127108   7.633   5.540  14.794  1.6591  2.7010 -0.6924
  971TIP3    H227109   7.621   5.593  14.653  0.2396 -1.0938 -2.1282
  972TIP3   OH227110   2.235   4.949  14.621 -0.2047  0.6433  0.2205
  972TIP3    H127111   2.322   4.965  14.585  0.1964 -1.0931  0.3047
  972TIP3    H227112   2.219   4.856  14.603 -2.1024  0.9609  0.0889
  973TIP3   OH227113   4.057   0.302  13.441 -0.0400 -0.1955  0.0550
  973TIP3    H127114   4.080   0.210  13.426 -0.0886 -0.1923 -0.0434
  973TIP3    H227115   4.003   0.300  13.520  1.1134 -0.0817  0.8676
  974TIP3   OH227116   1.313   2.393  13.866  0.3629  0.1328  0.3369
  974TIP3    H127117   1.221   2.379  13.843  0.2689  1.5471 -0.2300
  974TIP3    H227118   1.361   2.339  13.803 -0.0122  1.5076 -1.1997
  975TIP3   OH227119   6.762   4.680  13.539  0.2289 -0.1733 -0.5249
  975TIP3    H127120   6.704   4.673  13.614  0.9410 -1.0530 -0.0319
  975TIP3    H227121   6.828   4.744  13.564 -0.8657  1.3179 -1.3369
  976TIP3   OH227122   7.139   0.910  12.993  0.3864 -0.0245 -0.2206
  976TIP3    H127123   7.120   0.977  13.059  1.8847 -0.7589  1.0228
  976TIP3    H227124   7.138   0.828  13.042 -1.9196 -1.0433 -1.8215
  977TIP3   OH227125   2.528   2.348  14.109  0.0443  0.0726 -0.6012
  977TIP3    H127126   2.551   2.269  14.158  0.3983  0.5384 -0.0087
  977TIP3    H227127   2.441   2.329  14.072 -0.7688  0.1684  1.1924
  978TIP3   OH227128   8.429   2.884  14.442  0.7974  0.6244  0.0383
  978TIP3    H127129   8.356   2.852  14.389 -1.0412  1.5748  1.8539
  978TIP3    H227130   8.460   2.806  14.490  0.8812  0.2600 -0.5917
  979TIP3   OH227131   2.223   6.543  14.097 -0.2760 -0.5737 -0.3378
  979TIP3    H127132   2.317   6.545  14.082 -0.1845 -0.7365  0.1982
  979TIP3    H227133   2.210   6.472  14.159 -0.8559 -1.1628 -1.1144
  980TIP3   OH227134   3.086   6.382  14.774 -0.0515  0.5593  0.1826
  980TIP3    H127135   3.131   6.465  14.790  2.1419 -0.1657 -1.7399
  980TIP3    H227136   3.042   6.363  14.857  2.3128  1.9050  1.8904
  981TIP3   OH227137   4.538   6.870  14.113  0.0030  0.1158 -0.2219
  981TIP3    H127138   4.563   6.791  14.162  1.7223  1.1530  0.6817
  981TIP3    H227139   4.444   6.858  14.095  0.3174 -2.3548 -0.5990
  982TIP3   OH227140   7.821   0.122  14.657  0.0812 -0.5201  0.2541
  982TIP3    H127141   7.867   0.109  14.739  1.6789 -0.4489 -0.6033
  982TIP3    H227142   7.840   0.212  14.632  0.5536 -0.8805 -0.7405
  983TIP3   OH227143   3.481   2.816  13.990 -0.6434  0.0997 -0.2708
  983TIP3    H127144   3.512   2.870  14.062 -1.1842  0.9906 -0.6875
  983TIP3    H227145   3.556   2.806  13.932 -0.6893  0.9005 -0.4783
  984TIP3   OH227146   4.382   8.037  13.395  0.1614  0.2960  0.4615
  984TIP3    H127147   4.409   8.094  13.323  0.3718  0.6185  0.7942
  984TIP3    H227148   4.301   8.076  13.428  0.5264  0.6444  0.9575
  985TIP3   OH227149   2.761   8.392  14.754  0.2770  0.5625 -0.1863
  985TIP3    H127150   2.802   8.474  14.726 -1.2912  1.1055 -1.0179
  985TIP3    H227151   2.816   8.323  14.716  0.2029  1.2588 -1.5908
  986TIP3   OH227152   4.672   8.101  13.577  0.2082 -0.1971  0.5983
  986TIP3    H127153   4.662   8.063  13.489 -2.7255 -0.2123  0.8314
  986TIP3    H227154   4.706   8.189  13.561 -2.8522  0.8651 -0.9105
  987TIP3   OH227155   5.999   1.446  14.180 -0.0934  0.1314  0.2524
  987TIP3    H127156   5.967   1.409  14.098  1.2160  0.9307 -0.6455
  987TIP3    H227157   6.076   1.497  14.156 -0.4881  1.5423  1.7654
  988TIP3   OH227158   3.197   4.040  14.470 -0.6204 -0.0372  0.3766
  988TIP3    H127159   3.265   4.045  14.404 -0.6967  0.6874  0.3437
  988TIP3    H227160   3.202   4.124  14.517 -0.7019 -0.4531  1.1548
  989TIP3   OH227161   0.313   7.969  13.293  0.2275  0.2984 -0.0636
  989TIP3    H127162   0.401   7.984  13.259  0.7784 -0.7299  0.8274
  989TIP3    H227163   0.294   7.877  13.272 -0.5796  0.4748 -0.1312
  990TIP3   OH227164   4.960   1.853  15.023 -0.1295 -0.0916  0.6216
  990TIP3    H127165   4.958   1.758  15.036  0.7147 -0.0467  1.1701
  990TIP3    H227166   5.041   1.881  15.066 -0.0178  0.7857 -0.1258
  991TIP3   OH227167   0.159   3.298  14.542  0.2277 -0.2108  0.0167
  991TIP3    H127168   0.157   3.321  14.635  1.4258 -1.3802  0.3756
  991TIP3    H227169   0.235   3.345  14.508 -1.3269  1.8014 -0.8881
  992TIP3   OH227170   4.219   3.851  13.917  0.6660  0.1047 -0.3542
  992TIP3    H127171   4.239   3.761  13.889 -1.8947 -1.0380  1.1548
  992TIP3    H227172   4.124   3.854  13.921  0.7288  2.5882  0.6828
  993TIP3   OH227173   5.692   0.687  13.933 -0.4524  0.2703 -0.2225
  993TIP3    H127174   5.621   0.680  13.870 -1.3658 -3.1548  0.9644
  993TIP3    H227175   5.772   0.676  13.882 -0.8605  1.6867 -1.2327
  994TIP3   OH227176   6.908   0.931  14.810  0.3203 -0.2305 -0.4406
  994TIP3    H127177   6.864   0.968  14.886  0.8527  0.5288 -0.4892
  994TIP3    H227178   6.868   0.845  14.798 -0.2806 -0.0526  0.2484
  995TIP3   OH227179   4.904   5.510  14.912  0.3413  0.0767 -0.2072
  995TIP3    H127180   4.851   5.430  14.914 -1.7754  1.3311 -1.6466
  995TIP3    H227181   4.886   5.553  14.995  0.5459 -0.3555  0.0659
  996TIP3   OH227182   2.300   0.144  13.297  0.2831 -0.2003 -0.5121
  996TIP3    H127183   2.323   0.076  13.235  0.7814  0.2141 -0.7867
  996TIP3    H227184   2.371   0.208  13.291  1.2833 -0.9957  1.7731
  997TIP3   OH227185   1.586   7.597  13.973 -0.2550  0.8008 -0.1909
  997TIP3    H127186   1.571   7.611  14.066 -0.2115  0.8890 -0.1970
  997TIP3    H227187   1.667   7.547  13.969 -0.6505  0.1393 -0.1451
  998TIP3   OH227188   8.151   6.152  13.827 -0.3824 -0.1485 -0.9583
  998TIP3    H127189   8.137   6.129  13.919  1.6251  0.2530 -0.5153
  998TIP3    H227190   8.140   6.069  13.780 -1.7836 -0.2873 -0.4270
  999TIP3   OH227191   4.032   2.793  12.867 -0.2590  1.0345 -0.3114
  999TIP3    H127192   4.108   2.844  12.896 -0.8779  1.9330 -0.2136
  999TIP3    H227193   4.059   2.702  12.876  0.5498  1.3311  0.4108
 1000TIP3   OH227194   6.546   3.292  13.320 -0.2757 -0.1969 -0.5587
 1000TIP3    H127195   6.594   3.219  13.279  2.2334 -0.1194  1.9174
 1000TIP3    H227196   6.613   3.339  13.370 -2.5452  1.5443  1.0417
 1001TIP3   OH227197   1.922   6.436  13.470  0.4141  0.3160 -0.2228
 1001TIP3    H127198   1.944   6.373  13.539 -1.1802  0.3200  0.3558
 1001TIP3    H227199   1.962   6.518  13.499 -0.4206  0.3721  0.8723
 1002TIP3   OH227200   3.891   0.355  13.641 -0.4819  0.1353 -0.0810
 1002TIP3    H127201   3.942   0.411  13.700 -0.4430  1.1104 -1.0081
 1002TIP3    H227202   3.834   0.305  13.699  0.0768  0.5295  0.8319
 1003TIP3   OH227203   5.753   2.057  13.871  0.4109  0.0131  0.7720
 1003TIP3    H127204   5.740   1.993  13.941  0.4322 -0.9585 -0.0885
 1003TIP3    H227205   5.840   2.094  13.888  1.2710 -1.6245  0.1978
 1004TIP3   OH227206   6.328   1.103  13.705 -0.2380  0.6311 -0.6518
 1004TIP3    H127207   6.283   1.032  13.752  0.4015  0.1442 -0.7496
 1004TIP3    H227208   6.369   1.155  13.774  1.9465 -0.9346 -0.6728
 1005TIP3   OH227209   4.414   5.096  13.244  0.5270 -0.1727 -0.0078
 1005TIP3    H127210   4.410   5.001  13.239 -0.0021 -0.0925 -1.8616
 1005TIP3    H227211   4.507   5.116  13.259  1.3892 -0.9458 -3.4112
 1006TIP3   OH227212   6.397   2.317  13.730 -0.0090 -0.5628 -0.4787
 1006TIP3    H127213   6.320   2.371  13.712  0.6059  0.6296  0.2985
 1006TIP3    H227214   6.468   2.380  13.741  1.2940 -1.6607 -2.0461
 1007TIP3   OH227215   7.386   3.354  14.874 -0.1759  0.6787  0.5592
 1007TIP3    H127216   7.306   3.351  14.926  1.2479 -0.2941  2.8919
 1007TIP3    H227217   7.457   3.352  14.939  1.7737  2.2600 -1.3417
 1008TIP3   OH227218   5.639   3.961  14.044 -0.3487 -0.3984 -0.0413
 1008TIP3    H127219   5.624   3.966  13.950  1.2911  0.1290 -0.3086
 1008TIP3    H227220   5.609   3.874  14.069 -4.0261  0.6326 -0.3882
 1009TIP3   OH227221   7.148   3.639  14.927  0.1859  0.2509 -0.2104
 1009TIP3    H127222   7.233   3.598  14.943  0.5675  1.4223  1.0523
 1009TIP3    H227223   7.086   3.588  14.980  0.5998  1.0368  1.0860
 1010TIP3   OH227224   3.778   7.891  12.986 -0.3138 -0.0230 -0.2914
 1010TIP3    H127225   3.766   7.986  12.989 -0.2273 -0.0243  0.0950
 1010TIP3    H227226   3.752   7.866  12.897 -2.1993  0.1131  0.1724
 1011TIP3   OH227227   7.969   7.751  13.353  0.1075 -0.0850  0.5712
 1011TIP3    H127228   7.968   7.788  13.265  0.4989  1.1688  1.0655
 1011TIP3    H227229   7.943   7.660  13.341 -0.1410  0.1394 -0.7996
 1012TIP3   OH227230   5.695   6.289  14.586 -0.2431  0.3252  0.5686
 1012TIP3    H127231   5.681   6.351  14.658 -0.6637 -1.0275  1.6870
 1012TIP3    H227232   5.774   6.322  14.541 -0.2483  1.4495  1.3466
 1013TIP3   OH227233   0.180   4.709  13.464 -0.1070 -0.0219 -0.0036
 1013TIP3    H127234   0.087   4.717  13.441 -0.4926 -1.3107  0.9752
 1013TIP3    H227235   0.179   4.675  13.554  1.2975 -1.1930 -0.4018
 1014TIP3   OH227236   6.441   1.162  12.725  0.1497 -0.0308 -0.7411
 1014TIP3    H127237   6.352   1.127  12.723  0.0430  0.2496 -0.9022
 1014TIP3    H227238   6.493   1.092  12.767  0.2399 -1.0387 -2.4479
 1015TIP3   OH227239   6.613   4.591  14.761 -0.9405  0.6606 -0.3688
 1015TIP3    H127240   6.595   4.678  14.795 -1.9267  1.1167 -1.9817
 1015TIP3    H227241   6.690   4.602  14.705 -0.6078  0.3357  0.0140
 1016TIP3   OH227242   2.278   2.267  14.044 -0.9698  0.0083  0.0834
 1016TIP3    H127243   2.289   2.187  14.096  0.0888  1.1119  1.6498
 1016TIP3    H227244   2.199   2.309  14.081 -0.7073  0.3725  0.2399
 1017TIP3   OH227245   0.467   8.131  14.239 -0.0718  0.2363  0.0618
 1017TIP3    H127246   0.510   8.101  14.159  0.3344  1.2973 -0.1209
 1017TIP3    H227247   0.443   8.050  14.284 -0.2162 -0.3788 -1.0786
 1018TIP3   OH227248   3.715   0.624  14.186  0.2811  0.2464  0.0084
 1018TIP3    H127249   3.797   0.663  14.215 -0.5174  0.4509  2.1585
 1018TIP3    H227250   3.650   0.693  14.197 -0.6099 -0.6834  0.8711
 1019TIP3   OH227251   4.285   7.903  14.470  0.0637 -0.1554  0.3775
 1019TIP3    H127252   4.330   7.829  14.510 -1.4956 -0.8955  0.8721
 1019TIP3    H227253   4.348   7.975  14.473  1.7313 -1.5098 -0.3749
 1020TIP3   OH227254   1.893   7.176  13.414 -0.0195 -0.5911 -0.4808
 1020TIP3    H127255   1.972   7.156  13.363  1.1651  1.9330  0.1776
 1020TIP3    H227256   1.922   7.241  13.477 -2.5984  0.2085 -0.0125
 1021TIP3   OH227257   2.888   2.879  13.079 -0.2249 -0.6143 -0.7141
 1021TIP3    H127258   2.848   2.799  13.114  1.2818 -1.5520 -1.0547
 1021TIP3    H227259   2.892   2.864  12.984  1.0959 -0.6313 -0.6626
 1022TIP3   OH227260   2.577   3.149  14.060 -1.4131  0.0173 -0.2732
 1022TIP3    H127261   2.639   3.143  14.133 -1.9332 -1.8968  0.0620
 1022TIP3    H227262   2.526   3.228  14.079  1.1008  1.8967 -0.7717
 1023TIP3   OH227263   7.199   4.867  12.978  0.0195 -0.4353  0.2176
 1023TIP3    H127264   7.137   4.819  13.031 -1.0196  0.7743  0.1507
 1023TIP3    H227265   7.277   4.812  12.975 -0.5468 -1.3350  1.4769
 1024TIP3   OH227266   3.492   3.805  12.419  0.2660 -0.1489 -0.1458
 1024TIP3    H127267   3.588   3.801  12.413  0.4423 -3.2660  2.2471
 1024TIP3    H227268   3.474   3.878  12.478  1.2243 -0.0673  0.0544
 1025TIP3   OH227269   6.528   0.399  13.702  0.2031  0.2505 -0.4878
 1025TIP3    H127270   6.583   0.344  13.758  2.2342  1.8072 -0.8373
 1025TIP3    H227271   6.589   0.440  13.640 -1.4318  1.6496 -1.2793
 1026TIP3   OH227272   0.467   5.278  14.763 -0.1486  0.1848  0.3507
 1026TIP3    H127273   0.441   5.370  14.757 -0.9699  0.0750  1.7211
 1026TIP3    H227274   0.427   5.247  14.844  0.0743 -1.4091 -0.1109
 1027TIP3   OH227275   4.689   3.805  14.266  0.5190  0.0072  0.4850
 1027TIP3    H127276   4.736   3.856  14.332  1.5963 -1.2860  0.7692
 1027TIP3    H227277   4.605   3.784  14.307  0.5748  0.4924  0.8546
 1028TIP3   OH227278   2.987   1.003  14.109  0.5483 -0.0445 -0.1414
 1028TIP3    H127279   3.072   1.036  14.080 -0.3486  2.4598 -0.1407
 1028TIP3    H227280   3.008   0.939  14.177  2.4417 -0.6560 -1.2201
 1029TIP3   OH227281   6.492   2.898  13.264 -0.8001  0.3266  0.3477
 1029TIP3    H127282   6.400   2.893  13.291 -0.9570 -3.5622 -0.3428
 1029TIP3    H227283   6.491   2.878  13.171  0.6727  1.9671 -0.0647
 1030TIP3   OH227284   0.115   1.907  14.045  0.4681 -0.0922 -0.2155
 1030TIP3    H127285   0.198   1.932  14.084 -0.0882  0.1162  0.8906
 1030TIP3    H227286   0.108   1.959  13.965  1.7243 -0.6647 -0.7226
 1031TIP3   OH227287   3.512   5.541  14.602 -0.2355 -0.6202 -0.6372
 1031TIP3    H127288   3.539   5.563  14.691  0.9300 -2.1894 -0.5527
 1031TIP3    H227289   3.499   5.625  14.559  0.7078  0.1832  0.5829
 1032TIP3   OH227290   7.667   4.384  13.582 -0.4649 -0.4454 -0.2397
 1032TIP3    H127291   7.747   4.344  13.617  0.2784  1.2067  0.0577
 1032TIP3    H227292   7.612   4.310  13.558  1.0145 -1.6400 -0.1336
 1033TIP3   OH227293   5.039   5.464  12.926 -0.8245  0.1497 -0.1131
 1033TIP3    H127294   5.015   5.555  12.945 -1.4816  0.4161 -1.9983
 1033TIP3    H227295   5.119   5.449  12.976 -1.5254  1.2653  1.4232
 1034TIP3   OH227296   7.271   6.357  13.453 -0.6371  0.0356  0.1525
 1034TIP3    H127297   7.196   6.381  13.507 -0.3539  2.8425 -0.5580
 1034TIP3    H227298   7.259   6.408  13.372  2.7580  1.8138  0.6065
 1035TIP3   OH227299   5.463   8.433  12.773 -0.0014  0.1818  0.9064
 1035TIP3    H127300   5.420   8.348  12.774 -0.7029  0.4791 -0.5344
 1035TIP3    H227301   5.543   8.421  12.824 -1.0976 -0.7651  2.4718
 1036TIP3   OH227302   7.040   1.289  14.572 -0.4658 -0.2812  0.1829
 1036TIP3    H127303   6.994   1.207  14.587  0.3985 -1.0716 -1.2791
 1036TIP3    H227304   6.978   1.357  14.600 -1.2242 -1.3974  1.3321
 1037TIP3   OH227305   2.404   6.760  14.983 -0.4778  0.5101 -0.5625
 1037TIP3    H127306   2.492   6.791  14.961  0.1228 -0.7573 -0.0452
 1037TIP3    H227307   2.366   6.733  14.899 -0.6072  1.5682 -0.8657
 1038TIP3   OH227308   3.129   4.261  15.121 -0.6009 -0.3408  0.0400
 1038TIP3    H127309   3.128   4.349  15.085  0.8683 -0.7527 -1.1042
 1038TIP3    H227310   3.210   4.257  15.171 -0.6889 -1.0201  0.1379
 1039TIP3   OH227311   4.712   1.265  15.019 -0.1213  0.2001  0.2385
 1039TIP3    H127312   4.742   1.333  14.958 -0.1248 -0.9518 -1.0976
 1039TIP3    H227313   4.792   1.230  15.057  0.1780 -1.3790 -1.6914
 1040TIP3   OH227314   5.677   3.031  12.836 -0.1707 -0.1168  0.2767
 1040TIP3    H127315   5.681   3.054  12.743 -0.5035 -0.4186  0.1862
 1040TIP3    H227316   5.768   3.019  12.861 -0.1139 -0.8610 -0.2244
 1041TIP3   OH227317   3.247   2.949  14.039  0.2309 -0.3475  0.2832
 1041TIP3    H127318   3.327   2.903  14.014  0.6070 -0.1232  1.0484
 1041TIP3    H227319   3.213   2.985  13.957  1.0403 -0.2441 -0.0119
 1042TIP3   OH227320   1.537   3.311  14.047 -0.3833  0.0235 -0.0664
 1042TIP3    H127321   1.507   3.382  13.991  1.5760  1.5537  0.6866
 1042TIP3    H227322   1.590   3.255  13.990  0.0822  0.5531 -0.1617
 1043TIP3   OH227323   2.238   3.655  12.589 -0.0714 -0.1685 -0.2298
 1043TIP3    H127324   2.168   3.593  12.570  1.0575 -0.7842 -2.7377
 1043TIP3    H227325   2.221   3.729  12.530  1.0014 -0.0292 -0.3786
 1044TIP3   OH227326   5.825   0.639  13.145 -0.1373 -0.0168  0.6028
 1044TIP3    H127327   5.905   0.660  13.098  1.2704 -0.3250  2.7306
 1044TIP3    H227328   5.767   0.715  13.129 -0.0468 -0.4279 -2.1016
 1045TIP3   OH227329   4.323   6.783  13.510 -0.1898 -0.6270 -0.5492
 1045TIP3    H127330   4.240   6.827  13.529 -0.6437 -1.9142  0.6131
 1045TIP3    H227331   4.390   6.845  13.537 -0.7937 -0.0754 -0.2979
 1046TIP3   OH227332   4.445   1.618  13.442  0.0293 -0.3969 -0.0137
 1046TIP3    H127333   4.500   1.551  13.401 -0.0124 -0.4925  0.0850
 1046TIP3    H227334   4.400   1.661  13.370  0.5678 -0.0199 -0.1327
 1047TIP3   OH227335   1.262   5.522  14.489  0.1184 -0.1515 -0.1786
 1047TIP3    H127336   1.215   5.532  14.406  0.0834 -0.0743 -0.1497
 1047TIP3    H227337   1.198   5.480  14.547  0.2019 -0.3702 -0.2447
 1048TIP3   OH227338   0.301   6.047  14.292 -0.1600  0.0977  0.0688
 1048TIP3    H127339   0.276   6.090  14.374 -1.8215 -1.0785  0.2180
 1048TIP3    H227340   0.338   6.117  14.238  1.3240  0.8446  1.9154
 1049TIP3   OH227341   2.478   0.135  14.281 -0.1759 -0.0650 -0.3283
 1049TIP3    H127342   2.538   0.203  14.249 -1.3175  0.2445 -1.9802
 1049TIP3    H227343   2.391   0.169  14.259 -0.9533 -0.7198  1.5702
 1050TIP3   OH227344   8.141   1.449  13.915 -0.5146 -0.1058  0.1455
 1050TIP3    H127345   8.226   1.491  13.930 -0.9955  0.4848  1.3867
 1050TIP3    H227346   8.081   1.521  13.895 -1.6571  0.1409  3.6803
 1051TIP3   OH227347   2.196   0.186  13.726  0.3395  0.5291 -0.2965
 1051TIP3    H127348   2.155   0.130  13.660 -0.3285  0.0861  0.4724
 1051TIP3    H227349   2.234   0.258  13.676 -0.2262  0.2495 -1.1558
 1052TIP3   OH227350   4.152   8.085  15.061 -0.3056 -0.2303 -0.0179
 1052TIP3    H127351   4.084   8.018  15.056  0.2038 -0.7929  0.4003
 1052TIP3    H227352   4.230   8.038  15.091 -0.3764  0.8562  2.0497
 1053TIP3   OH227353   5.631   3.511  13.744  0.0530  0.0798  0.2476
 1053TIP3    H127354   5.552   3.465  13.714 -0.6120 -0.1526  2.1864
 1053TIP3    H227355   5.615   3.603  13.723 -0.5276 -0.0339  0.1822
 1054TIP3   OH227356   6.720   1.908  13.963 -0.4269  0.0396 -0.0677
 1054TIP3    H127357   6.808   1.941  13.944 -1.5286  1.9616 -2.2366
 1054TIP3    H227358   6.661   1.975  13.929 -2.8014 -2.4887 -1.3217
 1055TIP3   OH227359   6.710   4.992  13.645 -0.2367  0.0055 -0.0850
 1055TIP3    H127360   6.694   5.069  13.591  0.9934  0.1511 -0.2721
 1055TIP3    H227361   6.649   4.926  13.612 -0.4920  0.5367 -0.6959
 1056TIP3   OH227362   4.019   3.275  13.694 -0.1923  0.4703 -0.3580
 1056TIP3    H127363   4.043   3.191  13.733 -1.6225 -0.7269 -1.8985
 1056TIP3    H227364   4.102   3.310  13.660  0.4105 -0.3518  0.2275
 1057TIP3   OH227365   4.967   5.979  14.625  0.4238  0.0045  0.0705
 1057TIP3    H127366   5.055   6.007  14.647  0.0873 -0.1885  1.8881
 1057TIP3    H227367   4.954   5.899  14.677  0.7504 -2.6650 -3.5700
 1058TIP3   OH227368   0.748   7.251  14.251 -0.2769 -0.2728  0.2783
 1058TIP3    H127369   0.836   7.267  14.219 -0.3131 -0.7596 -0.0899
 1058TIP3    H227370   0.707   7.197  14.183 -0.0899 -2.0411  1.4776
 1059TIP3   OH227371   3.474   0.958  14.837  0.0145 -0.1053  0.5103
 1059TIP3    H127372   3.412   0.910  14.892 -0.5771  1.1617  0.9875
 1059TIP3    H227373   3.425   1.034  14.805  0.4411 -0.6189 -1.5282
 1060TIP3   OH227374   2.707   4.707  12.928 -0.2574 -0.4106 -0.4761
 1060TIP3    H127375   2.737   4.784  12.879  1.9054 -1.6506 -1.2197
 1060TIP3    H227376   2.665   4.743  13.006 -1.5392  1.5629 -1.9838
 1061TIP3   OH227377   2.990   2.693  14.939  0.1228  0.3485 -0.1663
 1061TIP3    H127378   3.061   2.748  14.906  1.5023  0.0996  2.1668
 1061TIP3    H227379   2.932   2.753  14.986  0.9409  0.0434  1.2814
 1062TIP3   OH227380   6.256   5.289  15.119 -0.0140  0.0698 -0.4289
 1062TIP3    H127381   6.224   5.291  15.029 -1.6846  1.2415  0.1259
 1062TIP3    H227382   6.228   5.373  15.156  2.2280  0.4011  0.6825
 1063TIP3   OH227383   5.518   2.475  13.110 -0.5470  0.1066  0.6312
 1063TIP3    H127384   5.485   2.396  13.067  1.3743 -1.6457  2.1694
 1063TIP3    H227385   5.453   2.493  13.179 -1.1623  0.0967  0.0656
 1064TIP3   OH227386   0.566   2.948  13.390  0.2420  0.3044 -0.3830
 1064TIP3    H127387   0.544   2.890  13.317  1.0689 -0.4668 -0.0307
 1064TIP3    H227388   0.532   3.033  13.363 -0.1223 -0.1291 -1.3419
 1065TIP3   OH227389   7.640   7.798  13.491  0.4148  0.4210  0.1967
 1065TIP3    H127390   7.660   7.796  13.398 -0.0672 -0.7304  0.0997
 1065TIP3    H227391   7.669   7.713  13.524 -0.4865  0.3498  0.8548
 1066TIP3   OH227392   7.975   3.817  14.949  0.1733  0.0243  0.4815
 1066TIP3    H127393   7.888   3.780  14.935 -0.4237  1.0713  1.2309
 1066TIP3    H227394   7.974   3.899  14.898  0.5919  0.2137  0.7762
 1067TIP3   OH227395   3.155   1.288  15.154 -0.1295  0.4713  0.2494
 1067TIP3    H127396   3.156   1.192  15.155  0.0213  0.3957 -1.8114
 1067TIP3    H227397   3.070   1.311  15.117 -0.3796  1.1708  1.2220
 1068TIP3   OH227398   7.562   2.507  13.911  0.0819 -0.2837  0.1892
 1068TIP3    H127399   7.537   2.586  13.863  0.4656  0.2062  0.7837
 1068TIP3    H227400   7.614   2.539  13.985 -0.2689 -1.0394  0.7785
 1069TIP3   OH227401   2.657   5.304  13.038 -0.2297 -0.0980 -0.1118
 1069TIP3    H127402   2.735   5.352  13.065 -0.6535  1.2488 -1.1774
 1069TIP3    H227403   2.681   5.266  12.953 -0.8810  0.7751 -0.7060
 1070TIP3   OH227404   0.484   0.464  13.030 -0.5723  0.0015 -0.3106
 1070TIP3    H127405   0.413   0.402  13.014 -0.5721  0.2895 -1.5344
 1070TIP3    H227406   0.446   0.550  13.011  0.1497  0.1358 -1.2335
 1071TIP3   OH227407   4.009   3.905  12.778  0.4356  0.7895  0.2574
 1071TIP3    H127408   4.069   3.979  12.776  1.3668  0.0344 -0.9124
 1071TIP3    H227409   4.062   3.831  12.808  0.7381 -0.3556 -2.6940
 1072TIP3   OH227410   3.355   2.760  14.485  0.4899  0.3354  0.0852
 1072TIP3    H127411   3.387   2.670  14.471  1.6049  0.7863 -0.4020
 1072TIP3    H227412   3.311   2.757  14.569  2.4532 -0.1930  1.1594
 1073TIP3   OH227413   7.724   2.946  14.816  0.2090 -0.4153 -0.7667
 1073TIP3    H127414   7.662   3.000  14.768  1.4737  1.3774 -0.5020
 1073TIP3    H227415   7.671   2.876  14.855 -1.5104  0.6480 -1.1001
 1074TIP3   OH227416   0.019   0.431  14.611  0.3898 -0.1293  0.2832
 1074TIP3    H127417   0.094   0.375  14.630  1.4365  1.4003  0.7681
 1074TIP3    H227418  -0.037   0.377  14.554  1.5254 -1.5181  0.4328
 1075TIP3   OH227419   5.576   7.307  14.514  0.0660  0.0368  0.3431
 1075TIP3    H127420   5.528   7.225  14.505 -1.4327  0.9779 -0.6977
 1075TIP3    H227421   5.555   7.356  14.435 -0.4767  2.1242  1.6835
 1076TIP3   OH227422   5.832   0.414  14.691  0.7378 -0.1042  0.2715
 1076TIP3    H127423   5.853   0.498  14.732  0.1079 -0.7245  1.9582
 1076TIP3    H227424   5.904   0.398  14.630  1.0667  1.4592  0.1978
 1077TIP3   OH227425   2.873   0.303  13.931 -0.2512  0.4883 -0.3924
 1077TIP3    H127426   2.955   0.344  13.904 -0.2980  1.0628  0.2933
 1077TIP3    H227427   2.806   0.348  13.881 -0.1555  0.0259 -0.9464
 1078TIP3   OH227428   3.230   5.792  14.613 -0.0014 -0.4018 -0.0775
 1078TIP3    H127429   3.209   5.765  14.703 -0.6393 -0.0320 -0.1152
 1078TIP3    H227430   3.326   5.789  14.610 -0.0197 -1.9668  0.1271
 1079TIP3   OH227431   2.766   5.374  15.034 -0.2005 -0.3685 -0.2603
 1079TIP3    H127432   2.775   5.458  15.078  1.0895 -1.0099  0.7604
 1079TIP3    H227433   2.804   5.388  14.948  0.9530 -0.1616  0.2675
 1080TIP3   OH227434   3.105   2.745  13.206  0.6324  0.4489  0.4414
 1080TIP3    H127435   3.043   2.782  13.143  0.0476 -1.3671 -0.0893
 1080TIP3    H227436   3.052   2.689  13.262  1.3869  0.9433  1.6960
 1081TIP3   OH227437   0.557   2.355  13.421 -0.9367  0.2790  0.3910
 1081TIP3    H127438   0.649   2.377  13.434 -0.9092  1.0333 -0.9704
 1081TIP3    H227439   0.511   2.439  13.427 -1.4868 -0.0190  0.5020
 1082TIP3   OH227440   2.074   1.463  14.479 -0.2258 -0.3506  0.1858
 1082TIP3    H127441   2.140   1.471  14.410  1.2154 -0.4326  1.4984
 1082TIP3    H227442   2.096   1.532  14.542  0.7307 -2.4776  2.3197
 1083TIP3   OH227443   8.099   3.476  14.141  0.3946 -0.0716  0.6269
 1083TIP3    H127444   8.099   3.562  14.099 -1.3345 -0.6501 -0.7245
 1083TIP3    H227445   8.178   3.475  14.194  1.9162  1.3380 -1.4339
 1084TIP3   OH227446   7.795   6.725  14.278 -0.6698 -0.0027  0.1272
 1084TIP3    H127447   7.813   6.636  14.307 -1.4946  0.4194  2.1276
 1084TIP3    H227448   7.701   6.738  14.295 -0.2218  1.7911  1.5806
 1085TIP3   OH227449   0.079   5.659  13.337 -0.6307  0.1791  0.5072
 1085TIP3    H127450   0.032   5.602  13.276 -0.2795 -1.0868  1.3722
 1085TIP3    H227451   0.160   5.612  13.356 -0.6463  0.6354  1.7874
 1086TIP3   OH227452   5.163   7.268  14.491  0.7754 -0.1448 -0.4287
 1086TIP3    H127453   5.231   7.204  14.514 -0.1807 -1.0838 -0.1312
 1086TIP3    H227454   5.141   7.248  14.400 -0.0427 -0.7351 -0.1079
 1087TIP3   OH227455   3.509   3.293  13.093  0.1531  0.0176 -0.4262
 1087TIP3    H127456   3.423   3.253  13.085  0.1567 -0.1046  0.0745
 1087TIP3    H227457   3.560   3.256  13.022  0.1656 -0.9083  0.0555
 1088TIP3   OH227458   1.001   5.935  14.837  0.1179 -0.2551 -0.7299
 1088TIP3    H127459   1.022   5.883  14.760 -0.3538 -1.6018  0.0295
 1088TIP3    H227460   0.993   5.872  14.908 -2.1811  0.6197 -0.1091
 1089TIP3   OH227461   5.235   4.431  14.353  0.1511 -0.4516 -0.2509
 1089TIP3    H127462   5.292   4.364  14.317 -0.4636 -0.6494 -0.8643
 1089TIP3    H227463   5.200   4.477  14.276 -0.1358 -0.0138  0.1345
 1090TIP3   OH227464   5.914   6.194  14.049 -0.1295 -0.3220 -0.2616
 1090TIP3    H127465   5.848   6.136  14.010 -0.9254  0.2912  0.1488
 1090TIP3    H227466   5.874   6.281  14.048  1.0006  0.2169 -0.7489
 1091TIP3   OH227467   5.696   6.777  13.866 -0.0444 -0.5495  0.8544
 1091TIP3    H127468   5.664   6.742  13.782  3.2851 -0.7067 -0.4811
 1091TIP3    H227469   5.661   6.866  13.868 -1.8820 -1.1988  0.3602
 1092TIP3   OH227470   0.415   1.919  14.493 -0.2753 -0.1372 -0.1191
 1092TIP3    H127471   0.468   1.899  14.571  1.0605  0.3805 -0.8660
 1092TIP3    H227472   0.420   2.014  14.485 -0.6748 -0.1585 -0.6675
 1093TIP3   OH227473   5.353   0.746  13.367 -0.0699  0.1302  0.3534
 1093TIP3    H127474   5.283   0.761  13.303 -0.2328 -0.1454  0.4632
 1093TIP3    H227475   5.431   0.784  13.327 -0.2217  0.1731  0.0956
 1094TIP3   OH227476   0.576   1.042  14.823  0.3592  0.7269 -0.5281
 1094TIP3    H127477   0.619   0.956  14.816 -0.6347  0.1614  0.1131
 1094TIP3    H227478   0.508   1.040  14.756  0.4551  1.0858 -0.6339
 1095TIP3   OH227479   0.539   1.792  12.729  0.0191 -0.6671  0.4730
 1095TIP3    H127480   0.523   1.709  12.683  0.8863 -0.0229 -1.0866
 1095TIP3    H227481   0.629   1.814  12.705 -0.9391  1.9025 -1.1270
 1096TIP3   OH227482   6.184   7.752  13.291  0.4307  1.0490  0.0726
 1096TIP3    H127483   6.205   7.844  13.279  0.8541  0.7520 -1.7119
 1096TIP3    H227484   6.127   7.730  13.217 -0.1661  0.0242  0.8017
 1097TIP3   OH227485   2.001   6.457  15.135  0.3234 -0.0587  0.5510
 1097TIP3    H127486   2.038   6.544  15.147 -0.4879  0.0427  2.6398
 1097TIP3    H227487   2.075   6.402  15.108  0.5995  1.4809 -2.2536
 1098TIP3   OH227488   0.782   0.401  15.015 -0.0363  0.1786  0.0643
 1098TIP3    H127489   0.741   0.467  15.071  0.5161  1.3571 -0.8695
 1098TIP3    H227490   0.709   0.352  14.979 -0.4934  0.6183  0.3641
 1099TIP3   OH227491   7.657   7.555  14.399 -0.2027  0.1198 -0.5413
 1099TIP3    H127492   7.651   7.546  14.303  0.4753  1.6119 -0.7499
 1099TIP3    H227493   7.733   7.611  14.413  0.2039 -0.7550  0.9281
 1100TIP3   OH227494   7.493   4.837  13.147  0.0099  0.0769  0.1817
 1100TIP3    H127495   7.469   4.791  13.227 -3.8666 -0.6180 -1.1613
 1100TIP3    H227496   7.467   4.928  13.163 -0.8203 -0.0733 -0.2527
 1101TIP3   OH227497   6.825   3.183  13.390  0.2745 -0.1486  0.6364
 1101TIP3    H127498   6.815   3.172  13.296  1.6339 -0.8888  0.5480
 1101TIP3    H227499   6.754   3.131  13.428  0.5397 -0.9857  0.0285
 1102TIP3   OH227500   1.357   2.971  13.451 -0.5339  0.5069  0.7803
 1102TIP3    H127501   1.293   3.028  13.407  0.4004 -0.1261 -1.5570
 1102TIP3    H227502   1.373   2.901  13.388  2.2803  0.5255  1.3744
 1103TIP3   OH227503   8.021   5.411  14.520 -0.1160  0.0130  0.3827
 1103TIP3    H127504   8.063   5.454  14.594 -0.0086  1.4440 -0.4670
 1103TIP3    H227505   7.928   5.424  14.535 -0.0791  0.7232  0.0438
 1104TIP3   OH227506   5.787   2.973  13.199  0.2486 -0.6187  0.5478
 1104TIP3    H127507   5.779   3.037  13.269 -0.9150 -0.2448  0.0988
 1104TIP3    H227508   5.837   3.017  13.131 -0.6381 -0.1207  0.1985
 1105TIP3   OH227509   4.109   3.720  14.427  0.1601  0.1618  0.5885
 1105TIP3    H127510   4.024   3.685  14.454 -0.3237  0.8681  0.0214
 1105TIP3    H227511   4.172   3.657  14.459 -0.6096 -0.5820  0.6722
 1106TIP3   OH227512   2.895   7.531  13.950  0.0226  0.3353  0.5990
 1106TIP3    H127513   2.863   7.613  13.988 -2.0326  1.1855 -2.6247
 1106TIP3    H227514   2.953   7.559  13.879 -0.5408 -0.9784 -0.4051
 1107TIP3   OH227515   7.985   6.476  13.232 -0.1733 -0.6776  0.0303
 1107TIP3    H127516   7.891   6.485  13.222  0.0604 -0.1184 -2.3400
 1107TIP3    H227517   8.008   6.541  13.299 -1.1640  1.4305 -1.5273
 1108TIP3   OH227518   7.312   6.992  14.905 -0.5402  0.0794  0.2210
 1108TIP3    H127519   7.340   6.932  14.974 -0.5550 -0.1625  0.0200
 1108TIP3    H227520   7.272   7.065  14.951  0.9786  0.7426  0.5430
 1109TIP3   OH227521   2.109   7.458  13.850  0.4305  0.2378 -0.3572
 1109TIP3    H127522   2.114   7.511  13.929  0.6095 -1.8384  1.1096
 1109TIP3    H227523   2.200   7.442  13.826  0.3761  1.0089 -1.1122
 1110TIP3   OH227524   3.787   6.110  14.179 -0.5949  0.3129  0.0989
 1110TIP3    H127525   3.716   6.049  14.161 -1.4627  1.2153  0.3493
 1110TIP3    H227526   3.863   6.055  14.194 -0.6627 -0.6413 -2.4645
 1111TIP3   OH227527   6.810   6.654  14.296 -0.6038 -0.1224 -0.7748
 1111TIP3    H127528   6.731   6.640  14.348 -0.9152  0.1126 -1.1751
 1111TIP3    H227529   6.788   6.728  14.239  1.1514  2.4920  1.6715
 1112TIP3   OH227530   1.467   2.059  14.401  0.6434  0.2822  0.4469
 1112TIP3    H127531   1.374   2.071  14.382  0.1794 -1.3973  1.5203
 1112TIP3    H227532   1.469   2.001  14.477  2.5993 -0.4957 -0.1543
 1113TIP3   OH227533   0.563   5.248  13.759  0.2567 -0.3248 -0.1778
 1113TIP3    H127534   0.531   5.339  13.754  0.5310 -0.1933  0.3922
 1113TIP3    H227535   0.658   5.256  13.752  0.3606 -0.4691  0.9198
 1114TIP3   OH227536   4.198   4.725  14.756 -0.2922 -0.4102 -0.6101
 1114TIP3    H127537   4.215   4.819  14.746 -0.4188 -0.4072 -0.8081
 1114TIP3    H227538   4.106   4.715  14.729 -1.2245 -0.1352  2.0881
 1115TIP3   OH227539   5.010   1.193  15.075 -0.7007  0.2357 -0.6689
 1115TIP3    H127540   5.106   1.197  15.077 -0.7238  0.7474 -0.4447
 1115TIP3    H227541   4.986   1.237  14.993 -0.7707  0.7289 -0.3870
 1116TIP3   OH227542   2.911   7.274  13.606 -0.2673  0.5647 -0.1154
 1116TIP3    H127543   2.880   7.213  13.539 -0.3686  0.0386  0.4080
 1116TIP3    H227544   2.910   7.359  13.562 -2.6488  0.6211 -0.0610
 1117TIP3   OH227545   6.668   2.010  14.296 -0.4783 -0.6737  0.0262
 1117TIP3    H127546   6.717   2.065  14.234 -0.4819 -3.0755 -2.2812
 1117TIP3    H227547   6.736   1.971  14.351 -0.3997  0.7428  0.9996
 1118TIP3   OH227548   8.077   6.839  13.630  0.4733 -0.5497 -0.3127
 1118TIP3    H127549   8.049   6.898  13.560  0.8718 -0.8074 -0.6887
 1118TIP3    H227550   8.117   6.897  13.695 -2.4748  0.0821  1.0862
 1119TIP3   OH227551   4.379   8.253  14.241 -0.3763  0.5038 -0.3137
 1119TIP3    H127552   4.396   8.316  14.311 -0.4860  1.3488 -1.0369
 1119TIP3    H227553   4.351   8.174  14.287  2.5489 -0.0238  0.7942
 1120TIP3   OH227554   3.032   3.963  13.321 -0.4209  0.1970 -0.2240
 1120TIP3    H127555   2.942   3.991  13.311 -0.2999  1.0687  0.8964
 1120TIP3    H227556   3.027   3.889  13.382 -0.3707  0.3388 -0.0466
 1121TIP3   OH227557   3.523   6.545  13.354 -0.1032  0.3210  0.1582
 1121TIP3    H127558   3.543   6.639  13.357 -0.0931  0.3829 -1.2386
 1121TIP3    H227559   3.438   6.540  13.310 -0.7666 -0.2544  1.4607
 1122TIP3   OH227560   7.863   2.133  15.141  0.1559 -0.1279  0.3130
 1122TIP3    H127561   7.849   2.117  15.234  1.1917  1.6230  0.8074
 1122TIP3    H227562   7.787   2.092  15.099 -0.6723 -0.3850  1.9566
 1123TIP3   OH227563   3.232   0.345  14.728 -0.0058  0.2810 -0.4995
 1123TIP3    H127564   3.152   0.322  14.775  0.7328 -0.2110  0.5781
 1123TIP3    H227565   3.210   0.333  14.636 -1.1738  0.1867 -0.2241
 1124TIP3   OH227566   4.139   5.223  14.967 -0.5212  0.1209  0.0489
 1124TIP3    H127567   4.124   5.238  14.874 -2.1804 -0.7367  0.1453
 1124TIP3    H227568   4.067   5.270  15.011  0.8403  1.4408  1.0027
 1125TIP3   OH227569   1.404   4.819  14.832 -0.2134 -0.4050 -0.0079
 1125TIP3    H127570   1.340   4.804  14.901  0.1009  0.0910  0.3981
 1125TIP3    H227571   1.487   4.790  14.869  0.1742  1.0170  0.3009
 1126TIP3   OH227572   4.160   5.251  14.213 -0.3359  0.4906 -0.7705
 1126TIP3    H127573   4.142   5.158  14.224  0.7107  0.3760  0.1255
 1126TIP3    H227574   4.185   5.259  14.120 -1.9904  0.1798 -1.2688
 1127TIP3   OH227575   3.051   7.345  12.894  0.0776  0.1289  0.1393
 1127TIP3    H127576   3.103   7.417  12.930  0.1301  0.3581 -0.3858
 1127TIP3    H227577   2.976   7.387  12.854  0.3006 -0.0711 -0.5092
 1128TIP3   OH227578   1.053   6.660  13.829 -0.0115 -0.4104 -0.0385
 1128TIP3    H127579   0.982   6.716  13.859  0.9640  0.7712  0.1828
 1128TIP3    H227580   1.065   6.596  13.899  0.3268  0.5162  0.7732
 1129TIP3   OH227581   2.758   2.917  13.849  0.0614  0.4781 -0.4033
 1129TIP3    H127582   2.736   2.882  13.935  1.8172 -0.6891 -0.3863
 1129TIP3    H227583   2.823   2.985  13.866  0.3771  0.2815 -0.7968
 1130TIP3   OH227584   4.466   6.150  13.773  0.0230  0.1036  0.2884
 1130TIP3    H127585   4.391   6.185  13.725  0.4815  2.9556  1.4366
 1130TIP3    H227586   4.532   6.134  13.706 -0.7451  0.0182 -0.4644
 1131TIP3   OH227587   7.372   7.717  14.301  0.2828 -0.2309 -0.3936
 1131TIP3    H127588   7.408   7.766  14.375  0.2609  0.0143 -0.5465
 1131TIP3    H227589   7.311   7.655  14.342 -1.4942  1.4485 -0.3533
 1132TIP3   OH227590   0.572   6.777  12.809 -0.1099 -0.3153  0.2329
 1132TIP3    H127591   0.583   6.720  12.886 -1.0726 -0.9303 -0.0606
 1132TIP3    H227592   0.492   6.826  12.828  0.1060  0.1361 -0.0182
 1133TIP3   OH227593   2.579   5.652  15.200 -0.2706  0.0936 -0.7195
 1133TIP3    H127594   2.513   5.721  15.208  0.7019  0.9252  0.5452
 1133TIP3    H227595   2.529   5.571  15.197 -1.3732  0.7100  0.1857
 1134TIP3   OH227596   5.266   1.243  15.023 -0.1761  0.2600  0.0587
 1134TIP3    H127597   5.267   1.337  15.007 -1.4765  0.4265  0.8324
 1134TIP3    H227598   5.351   1.213  14.992  0.0990  1.6201 -0.5832
 1135TIP3   OH227599   7.616   5.714  13.433 -0.1874 -0.4526 -0.4324
 1135TIP3    H127600   7.642   5.703  13.525  2.1992  1.0798 -0.8189
 1135TIP3    H227601   7.544   5.778  13.436 -0.1374 -0.4266  0.3815
 1136TIP3   OH227602   0.087   6.726  15.028 -0.2316 -0.0105 -0.3046
 1136TIP3    H127603   0.026   6.710  14.956 -0.9786  1.8646 -0.1268
 1136TIP3    H227604   0.055   6.805  15.070  1.8735  0.5917  0.2924
 1137TIP3   OH227605   3.420   4.424  13.676 -0.0954  0.3743 -0.2763
 1137TIP3    H127606   3.446   4.515  13.687 -0.1624  0.5011 -1.0466
 1137TIP3    H227607   3.387   4.397  13.761  0.4283  0.9064  0.0978
 1138TIP3   OH227608   2.179   2.789  14.723  0.7240 -0.2365 -1.1179
 1138TIP3    H127609   2.241   2.728  14.683  1.1195 -0.6341  0.0486
 1138TIP3    H227610   2.112   2.733  14.761  2.6566 -0.2849  2.6724
 1139TIP3   OH227611   4.729   6.141  14.937 -0.5880  0.1012 -0.3109
 1139TIP3    H127612   4.713   6.061  14.888  0.6242 -0.5812  0.3360
 1139TIP3    H227613   4.672   6.206  14.898 -2.5808 -1.3788 -0.0147
 1140TIP3   OH227614   1.112   2.950  13.836  0.7777 -0.0227 -0.3150
 1140TIP3    H127615   1.113   2.976  13.928 -1.4385  1.3665 -0.6214
 1140TIP3    H227616   1.064   2.867  13.835  1.0379 -0.1778 -0.2141
 1141TIP3   OH227617   1.856   6.667  13.844  0.3991 -0.3177 -0.6822
 1141TIP3    H127618   1.915   6.667  13.768  2.3041 -0.0223  0.7383
 1141TIP3    H227619   1.884   6.741  13.896 -1.3157 -0.1310  0.0317
 1142TIP3   OH227620   7.529   2.632  14.457  0.2282 -0.7047  0.9273
 1142TIP3    H127621   7.449   2.623  14.404 -0.1181  0.9998  1.0852
 1142TIP3    H227622   7.501   2.680  14.535  1.7483  2.1084 -0.0876
 1143TIP3   OH227623   6.541   3.425  14.670  0.5841 -0.2063  0.2648
 1143TIP3    H127624   6.449   3.440  14.648  0.9250 -0.8170 -1.8264
 1143TIP3    H227625   6.538   3.381  14.755 -0.9586  0.9743  0.8842
 1144TIP3   OH227626   0.709   2.071  14.486  0.0868 -0.0172  0.6546
 1144TIP3    H127627   0.765   2.112  14.421 -1.0797  1.3716  0.4863
 1144TIP3    H227628   0.770   2.025  14.544  1.2336 -0.1716 -0.6192
 1145TIP3   OH227629   2.088   4.134  15.141  0.0435 -0.2451 -0.1617
 1145TIP3    H127630   2.059   4.208  15.193  0.9069  0.7949 -1.1153
 1145TIP3    H227631   2.008   4.098  15.103 -0.3015  0.7289 -0.3771
 1146TIP3   OH227632   3.245   2.840  13.592  0.1666  0.2111  0.2275
 1146TIP3    H127633   3.219   2.888  13.513  1.5626  0.4291 -0.1227
 1146TIP3    H227634   3.306   2.773  13.560  1.3469  0.7864  1.1930
 1147TIP3   OH227635   4.859   1.334  14.237 -0.1225  0.1484  0.4438
 1147TIP3    H127636   4.915   1.312  14.162 -1.1796 -1.4144  0.0570
 1147TIP3    H227637   4.920   1.343  14.310  0.8443  0.8210 -0.4083
 1148TIP3   OH227638   5.750   4.198  13.125 -0.4724 -0.1250  0.4499
 1148TIP3    H127639   5.791   4.132  13.069  0.3516  0.4385  0.3807
 1148TIP3    H227640   5.754   4.161  13.213  1.1682  0.3747  0.6091
 1149TIP3   OH227641   4.299   3.527  13.404 -0.4798 -0.2929  0.6612
 1149TIP3    H127642   4.315   3.456  13.342 -1.3218 -0.7722  0.9689
 1149TIP3    H227643   4.283   3.603  13.349  0.9729 -0.2030  0.3357
 1150TIP3   OH227644   0.407   0.959  14.319 -0.1845 -0.0158 -0.4605
 1150TIP3    H127645   0.337   1.023  14.331  0.6803  0.8453  0.1649
 1150TIP3    H227646   0.450   0.987  14.238 -0.4739 -0.4611 -0.7704
 1151TIP3   OH227647   5.714   0.342  13.514 -0.0537  0.5563 -0.0735
 1151TIP3    H127648   5.783   0.397  13.477 -0.7082 -0.2419 -2.7087
 1151TIP3    H227649   5.637   0.399  13.518  0.7435  1.5939  3.3359
 1152TIP3   OH227650   6.355   4.951  13.808 -0.6278 -0.1562  0.0508
 1152TIP3    H127651   6.394   4.865  13.802 -1.0039 -0.2424 -1.8779
 1152TIP3    H227652   6.262   4.937  13.787 -1.3198  0.3406  2.4590
 1153TIP3   OH227653   8.349   2.610  14.543  0.4167 -0.1504  0.1968
 1153TIP3    H127654   8.287   2.604  14.616  1.7145  1.2083  1.4777
 1153TIP3    H227655   8.294   2.617  14.466 -1.0100 -0.6317  1.1293
 1154TIP3   OH227656   3.051   4.991  14.153 -0.2174 -0.1487  0.2381
 1154TIP3    H127657   3.126   5.034  14.194  0.8408 -1.5623 -0.1281
 1154TIP3    H227658   3.081   4.968  14.066 -1.2202 -0.3974 -0.0563
 1155TIP3   OH227659   6.436   6.246  13.831  0.3032 -0.3627 -0.0115
 1155TIP3    H127660   6.344   6.246  13.860  0.6334 -2.1339  1.2461
 1155TIP3    H227661   6.485   6.271  13.910  0.9230  0.7964 -0.7374
 1156TIP3   OH227662   0.292   8.219  13.211  0.1799 -0.5303 -0.3915
 1156TIP3    H127663   0.364   8.213  13.274 -0.0637  1.1596  0.1051
 1156TIP3    H227664   0.243   8.137  13.222  0.2702 -0.3735  1.4708
 1157TIP3   OH227665   0.246   0.733  13.714 -0.0114  0.0810  0.0584
 1157TIP3    H127666   0.287   0.819  13.707  1.3758 -0.6131 -0.7449
 1157TIP3    H227667   0.233   0.705  13.624  0.6589 -1.0413  0.2831
 1158TIP3   OH227668   7.101   7.723  14.132 -0.5515 -0.3298 -0.1334
 1158TIP3    H127669   7.186   7.747  14.168 -0.7032  0.8513 -0.5164
 1158TIP3    H227670   7.108   7.629  14.115  1.2236 -0.0058 -1.5655
 1159TIP3   OH227671   5.182   4.724  12.867 -0.9384  0.1186  0.2607
 1159TIP3    H127672   5.238   4.711  12.791 -0.7395 -1.7547  0.6615
 1159TIP3    H227673   5.108   4.776  12.835 -0.1555  0.5867 -0.8442
 1160TIP3   OH227674   0.186   5.115  14.540 -0.4383 -0.3865 -0.1930
 1160TIP3    H127675   0.267   5.127  14.491 -1.0129 -1.8441 -1.5949
 1160TIP3    H227676   0.200   5.164  14.621  2.5458 -1.9207  0.3858
 1161TIP3   OH227677   5.767   7.696  14.451  0.3630 -0.0937 -0.2679
 1161TIP3    H127678   5.832   7.682  14.382  0.8971  0.5516  0.0810
 1161TIP3    H227679   5.703   7.756  14.412  2.0378  2.3980  0.5526
 1162TIP3   OH227680   3.773   4.627  14.554 -0.0680  0.1383 -0.0637
 1162TIP3    H127681   3.856   4.599  14.592 -0.1193  0.8106  0.5752
 1162TIP3    H227682   3.708   4.609  14.623 -0.5949 -1.1331 -0.8509
 1163TIP3   OH227683   3.950   6.331  13.163 -0.0156 -0.2623  0.2484
 1163TIP3    H127684   3.909   6.413  13.137  1.4091  1.1156  2.1037
 1163TIP3    H227685   3.880   6.281  13.205 -0.1931  1.5028  2.2066
 1164TIP3   OH227686   0.456   2.184  14.407 -0.6292  0.0286  0.2232
 1164TIP3    H127687   0.549   2.173  14.423 -0.7290  0.8017  1.4236
 1164TIP3    H227688   0.440   2.277  14.417 -1.8914 -0.3516  2.2054
 1165TIP3   OH227689   1.494   6.363  14.287  0.0411 -0.0615  0.3568
 1165TIP3    H127690   1.405   6.354  14.252 -0.2673 -1.7703  1.4657
 1165TIP3    H227691   1.538   6.421  14.225 -0.8374 -1.8898 -2.1616
 1166TIP3   OH227692   4.809   6.534  14.137 -0.1986 -0.2175  0.5199
 1166TIP3    H127693   4.891   6.531  14.187 -0.8409 -0.7553  1.5587
 1166TIP3    H227694   4.743   6.562  14.200 -0.7952  0.4409 -0.3668
 1167TIP3   OH227695   5.139   1.785  13.184  0.7612  0.4313 -0.1654
 1167TIP3    H127696   5.081   1.830  13.123 -0.4958  0.1019  0.7560
 1167TIP3    H227697   5.087   1.774  13.263  1.9305 -0.3026  0.5306
 1168TIP3   OH227698   0.066   8.440  14.055  0.7875 -0.1730 -0.0061
 1168TIP3    H127699   0.122   8.481  14.121  1.1451 -1.2910  0.4122
 1168TIP3    H227700   0.115   8.450  13.973  0.7658  0.4285  0.0521
 1169TIP3   OH227701   6.430   3.523  12.661  0.2874 -0.0291 -0.5946
 1169TIP3    H127702   6.407   3.445  12.712  0.2147  0.2781 -0.1505
 1169TIP3    H227703   6.407   3.501  12.571 -4.2623  1.1503  0.0439
 1170TIP3   OH227704   3.535   4.470  13.382  0.2050 -0.1493  0.2149
 1170TIP3    H127705   3.588   4.499  13.457  0.5887  0.3838 -0.2515
 1170TIP3    H227706   3.456   4.434  13.421  1.1067 -1.4288  0.9569
 1171TIP3   OH227707   5.020   7.935  14.665 -0.0018 -0.1827 -0.2981
 1171TIP3    H127708   4.993   8.021  14.697 -0.1761  1.2627 -3.8931
 1171TIP3    H227709   5.109   7.924  14.698  0.5386  2.0396 -0.8628
 1172TIP3   OH227710   0.548   4.150  13.289  0.3547 -0.0389  0.2005
 1172TIP3    H127711   0.493   4.104  13.352 -0.0246  0.0373 -0.0759
 1172TIP3    H227712   0.492   4.218  13.253  0.4441 -0.3470 -0.5306
 1173TIP3   OH227713   3.278   8.144  14.316 -0.9180 -0.4515  0.1033
 1173TIP3    H127714   3.259   8.213  14.380 -0.3503  0.1903 -0.4117
 1173TIP3    H227715   3.267   8.063  14.366  0.0446  0.0446  1.1877
 1174TIP3   OH227716   8.056   6.090  14.527  0.4555 -0.6450  0.2640
 1174TIP3    H127717   7.968   6.107  14.494 -0.1116 -1.2670  1.4266
 1174TIP3    H227718   8.044   6.064  14.618  1.8472 -0.6899  0.4631
 1175TIP3   OH227719   2.121   2.371  12.883  0.1991  0.3206 -0.2677
 1175TIP3    H127720   2.054   2.304  12.897 -0.9865  1.1906 -1.5652
 1175TIP3    H227721   2.146   2.399  12.971  0.4177 -1.5062  0.2848
 1176TIP3   OH227722   5.296   2.831  15.004  0.6802  0.2514  0.0283
 1176TIP3    H127723   5.250   2.914  14.997  0.0687 -0.1161 -0.3340
 1176TIP3    H227724   5.253   2.785  15.076  0.7751  0.0905 -0.0155
 1177TIP3   OH227725   5.255   7.571  14.720  0.5413 -0.1038 -0.0168
 1177TIP3    H127726   5.347   7.546  14.724  0.9620  0.9358 -1.9045
 1177TIP3    H227727   5.256   7.667  14.724 -0.7256 -0.0921  2.9501
 1178TIP3   OH227728   0.361   0.996  13.713  1.0940  0.0799  0.1416
 1178TIP3    H127729   0.386   0.969  13.625 -0.0184  1.4301 -0.6417
 1178TIP3    H227730   0.385   1.089  13.717  0.3834  0.2461  0.9505
 1179TIP3   OH227731   1.469   2.258  13.694  0.0708  0.5364  0.1509
 1179TIP3    H127732   1.502   2.283  13.607  0.9734  0.2763  0.4118
 1179TIP3    H227733   1.412   2.183  13.677  1.5832 -0.6098 -0.0580
 1180TIP3   OH227734   6.341   0.068  15.168 -0.0008  0.2134 -0.2259
 1180TIP3    H127735   6.374   0.099  15.252 -0.3609  1.6279 -0.5720
 1180TIP3    H227736   6.355  -0.027  15.170  0.1462  0.2394  1.3468
 1181TIP3   OH227737   5.635   7.593  13.871 -0.3484 -0.0869  0.5196
 1181TIP3    H127738   5.634   7.688  13.869  0.2113  0.0345  2.9539
 1181TIP3    H227739   5.698   7.571  13.939 -0.0987 -2.2322 -0.3034
 1182TIP3   OH227740   7.041   3.330  14.615  0.0045  0.3958 -0.4433
 1182TIP3    H127741   6.975   3.389  14.653 -1.2815 -0.1699 -1.6691
 1182TIP3    H227742   7.030   3.341  14.520 -1.6524 -3.1298 -0.8248
 1183TIP3   OH227743   6.938   3.567  13.614  0.1091  0.4165  0.5635
 1183TIP3    H127744   6.864   3.624  13.633 -1.3638 -1.2475  0.0883
 1183TIP3    H227745   6.980   3.606  13.538  0.0087  1.6227  1.1112
 1184TIP3   OH227746   3.086   7.815  15.099  0.0236 -0.0465  0.1540
 1184TIP3    H127747   3.177   7.835  15.079  0.3204 -1.8212 -0.4910
 1184TIP3    H227748   3.039   7.828  15.017  0.0864 -1.0926 -0.0657
 1185TIP3   OH227749   0.593   5.056  13.993 -0.7358 -0.5866  0.0341
 1185TIP3    H127750   0.601   4.967  13.959 -0.5109 -0.0603 -1.3513
 1185TIP3    H227751   0.592   5.112  13.915  3.2679  0.9864  0.8951
 1186TIP3   OH227752   0.790   7.377  13.901  0.4655  0.2174  0.3821
 1186TIP3    H127753   0.801   7.347  13.811  1.3614 -0.1295  0.5949
 1186TIP3    H227754   0.871   7.350  13.945  0.4235  1.1770  1.0721
 1187TIP3   OH227755   2.236   7.754  13.203  0.0333 -0.5488  0.0894
 1187TIP3    H127756   2.239   7.706  13.120 -0.1667  0.4201 -0.4946
 1187TIP3    H227757   2.328   7.764  13.229  0.1814  0.2822 -0.7056
 1188TIP3   OH227758   0.526   5.672  14.067 -0.5943  0.0731 -0.6196
 1188TIP3    H127759   0.503   5.673  14.159 -0.6306 -2.3979 -0.5465
 1188TIP3    H227760   0.443   5.683  14.021 -0.7729 -0.1815 -0.3580
 1189TIP3   OH227761   1.931   5.798  15.123 -0.1932  0.2023 -0.6866
 1189TIP3    H127762   1.847   5.767  15.091 -0.3507 -1.5863  1.2736
 1189TIP3    H227763   1.912   5.832  15.211  1.0683  0.0603 -0.3371
 1190TIP3   OH227764   3.419   0.659  15.100 -0.3336  0.3812 -0.3726
 1190TIP3    H127765   3.373   0.623  15.024 -1.7203 -1.7040  1.3242
 1190TIP3    H227766   3.371   0.738  15.123  0.0304  0.9648 -1.5633
 1191TIP3   OH227767   0.655   2.128  13.987 -0.4252 -0.0315 -0.4137
 1191TIP3    H127768   0.706   2.209  13.987  0.1828 -0.4162 -0.5175
 1191TIP3    H227769   0.564   2.158  13.979 -0.1431  0.5987 -1.4059
 1192TIP3   OH227770   1.411   4.800  14.102 -0.4717 -0.0236 -0.2631
 1192TIP3    H127771   1.375   4.824  14.187  1.3572  3.4578 -0.2773
 1192TIP3    H227772   1.494   4.756  14.123 -1.5639 -2.2019 -0.2968
 1193TIP3   OH227773   8.179   0.281  14.622  0.3236  0.0624 -0.3595
 1193TIP3    H127774   8.156   0.359  14.674  0.4626  0.1340 -0.4049
 1193TIP3    H227775   8.179   0.312  14.532  0.3433  0.0008 -0.3809
 1194TIP3   OH227776   7.504   0.616  13.374 -0.3147  0.2137 -0.1399
 1194TIP3    H127777   7.538   0.551  13.314 -1.4218 -0.5044 -0.0150
 1194TIP3    H227778   7.578   0.676  13.390 -0.2177  0.9157 -2.8338
 1195TIP3   OH227779   7.504   1.528  14.172  0.2600 -0.0162  0.6257
 1195TIP3    H127780   7.553   1.608  14.156  0.4058 -0.3322 -0.6447
 1195TIP3    H227781   7.424   1.557  14.216  0.9197  0.6609  1.4071
 1196TIP3   OH227782   2.275   0.913  15.144 -0.1179  0.4343  0.4478
 1196TIP3    H127783   2.189   0.955  15.147 -0.0047  0.7117 -0.0542
 1196TIP3    H227784   2.337   0.985  15.132 -0.0974  0.0281 -3.0757
 1197TIP3   OH227785   5.101   4.195  14.142  0.1177 -0.8201 -0.0313
 1197TIP3    H127786   5.184   4.202  14.189  0.4987 -1.1390 -0.6537
 1197TIP3    H227787   5.074   4.286  14.127  1.1513 -0.6822 -1.2243
 1198TIP3   OH227788   6.921   2.204  13.379 -0.4014  0.3544 -0.1606
 1198TIP3    H127789   6.941   2.223  13.287  0.2536  0.3013 -0.0321
 1198TIP3    H227790   7.006   2.196  13.421 -0.6068  3.5267  1.1230
 1199TIP3   OH227791   4.998   5.298  13.948 -0.2711  0.1455 -0.5429
 1199TIP3    H127792   4.939   5.314  14.021  0.5911  0.6712  0.0637
 1199TIP3    H227793   4.989   5.204  13.930 -1.5994  0.3032 -0.7641
 1200TIP3   OH227794   8.254   2.113  13.873 -0.1225 -0.0302 -0.1383
 1200TIP3    H127795   8.238   2.112  13.778  0.2846  1.5550 -0.2579
 1200TIP3    H227796   8.349   2.116  13.881 -0.1040  3.4671  0.1357
 1201TIP3   OH227797   4.014   3.754  14.165  0.0310  0.5907 -0.0651
 1201TIP3    H127798   4.040   3.739  14.256 -0.4271  1.4896  0.2322
 1201TIP3    H227799   3.940   3.814  14.172  1.0527  2.0423 -1.0945
 1202TIP3   OH227800   4.555   6.917  13.574  0.1333  0.6436  0.4596
 1202TIP3    H127801   4.636   6.876  13.542 -0.2183  0.0280  0.3292
 1202TIP3    H227802   4.580   6.956  13.658  0.2074 -0.9457  1.2300
 1203TIP3   OH227803   0.086   4.395  13.596 -0.2618 -0.5303  0.4143
 1203TIP3    H127804  -0.006   4.421  13.583 -0.3957 -1.4082 -0.5336
 1203TIP3    H227805   0.124   4.399  13.509  0.4909 -0.6441  0.7330
 1204TIP3   OH227806   0.279   7.379  14.160 -0.0320 -0.0803  0.6333
 1204TIP3    H127807   0.266   7.354  14.069 -1.8190  0.8537  0.5728
 1204TIP3    H227808   0.369   7.411  14.164  0.8210 -2.2204 -0.2495
 1205TIP3   OH227809   6.092   7.207  14.512 -0.4916 -0.0187  0.5201
 1205TIP3    H127810   6.117   7.281  14.567 -1.2409  0.2427  0.5125
 1205TIP3    H227811   6.000   7.192  14.532 -0.5550 -0.4397 -0.0663
 1206TIP3   OH227812   3.130   1.500  13.990  0.5867 -0.1142  0.0603
 1206TIP3    H127813   3.047   1.544  14.003 -0.0128 -1.1457 -0.1802
 1206TIP3    H227814   3.180   1.559  13.934 -0.4291 -0.0151 -0.7650
 1207TIP3   OH227815   6.250   7.684  14.116 -0.3553  0.1648  0.5873
 1207TIP3    H127816   6.207   7.752  14.065 -0.9679 -0.4868  0.2250
 1207TIP3    H227817   6.238   7.711  14.207  0.6379  1.2675  0.4133
 1208TIP3   OH227818   4.951   0.523  14.390  0.4208  0.4073  0.1426
 1208TIP3    H127819   4.972   0.599  14.336  0.3329 -0.1610 -0.7239
 1208TIP3    H227820   5.028   0.466  14.382 -0.0710 -0.2093 -0.3677
 1209TIP3   OH227821   1.451   5.719  14.436 -0.2142 -0.0235  0.3669
 1209TIP3    H127822   1.499   5.668  14.370 -1.2708 -0.5542 -0.0223
 1209TIP3    H227823   1.396   5.655  14.480 -0.7252  0.6040  0.6577
 1210TIP3   OH227824   5.876   0.689  14.743  0.0196 -0.2711  0.1295
 1210TIP3    H127825   5.838   0.742  14.673  0.1548 -0.0946  0.1886
 1210TIP3    H227826   5.966   0.721  14.751 -0.8876  2.1120  2.6621
 1211TIP3   OH227827   8.092   5.673  15.094  0.1110 -0.0267  0.1309
 1211TIP3    H127828   8.084   5.706  15.004  2.0788 -0.5425 -0.2805
 1211TIP3    H227829   8.002   5.669  15.126 -0.5617  1.0815 -1.4807
 1212TIP3   OH227830   3.624   2.120  14.239 -0.1754  0.3078 -0.0145
 1212TIP3    H127831   3.542   2.156  14.206  0.0557  1.4232  0.5768
 1212TIP3    H227832   3.598   2.057  14.306 -0.5717 -0.1950 -0.6329
 1213TIP3   OH227833   3.449   5.367  13.035  0.4364 -0.0658  0.4397
 1213TIP3    H127834   3.459   5.354  12.941  0.5376  0.4757  0.3713
 1213TIP3    H227835   3.445   5.462  13.046  3.0332  0.0325  1.2320
 1214TIP3   OH227836   0.238   4.226  13.765  0.0883  0.1657 -0.3195
 1214TIP3    H127837   0.331   4.235  13.744  0.2351  1.1290  0.6816
 1214TIP3    H227838   0.193   4.277  13.698  0.2257 -0.8468 -1.2016
 1215TIP3   OH227839   8.188   5.636  14.038  0.1669 -0.4941 -0.0871
 1215TIP3    H127840   8.124   5.706  14.043  1.5940  0.7873  1.6468
 1215TIP3    H227841   8.155   5.568  14.096  0.3199  0.1362  0.7552
 1216TIP3   OH227842   5.099   3.244  13.782  0.0494 -0.1540 -0.2340
 1216TIP3    H127843   5.074   3.158  13.815 -0.3524 -0.4654 -1.3251
 1216TIP3    H227844   5.054   3.252  13.698 -0.8865  1.6211  0.3931
 1217TIP3   OH227845   2.499   3.595  14.063  0.1905 -0.1437 -0.0863
 1217TIP3    H127846   2.510   3.690  14.073  2.6931 -0.4880  1.4856
 1217TIP3    H227847   2.517   3.579  13.970  2.4525  0.7398  0.1148
 1218TIP3   OH227848   0.864   7.672  14.767 -0.6574 -0.2383 -0.5442
 1218TIP3    H127849   0.856   7.682  14.862  1.9375  0.5597 -0.3331
 1218TIP3    H227850   0.819   7.589  14.748  0.7051 -1.6077  1.7300
 1219TIP3   OH227851   7.338   2.541  14.255 -0.2883  0.3374 -0.6119
 1219TIP3    H127852   7.289   2.580  14.182  0.3194  0.6178 -0.8784
 1219TIP3    H227853   7.344   2.448  14.233 -2.2634 -0.0684  0.3170
 1220TIP3   OH227854   2.778   8.014  13.961 -0.1303 -0.1894  0.0850
 1220TIP3    H127855   2.833   8.076  13.913  1.6337 -1.2573  0.5942
 1220TIP3    H227856   2.712   7.986  13.899 -1.2598  2.4882 -0.0243
 1221TIP3   OH227857   1.256   5.195  14.642  0.6800 -0.0828  0.8811
 1221TIP3    H127858   1.337   5.171  14.687  2.0459  2.6491  0.1056
 1221TIP3    H227859   1.281   5.206  14.551 -0.3107  1.7861  0.7892
 1222TIP3   OH227860   8.379   5.246  14.105  0.3924  0.3068  0.5597
 1222TIP3    H127861   8.438   5.227  14.032  0.8392  2.2034  0.3659
 1222TIP3    H227862   8.436   5.253  14.181  0.3773  1.4517  0.4943
 1223TIP3   OH227863   4.412   3.029  14.606 -0.6562 -0.3270 -0.3852
 1223TIP3    H127864   4.349   2.960  14.585 -1.3279  0.3753 -0.6932
 1223TIP3    H227865   4.359   3.105  14.627  0.0865  0.2903 -0.6903
 1224TIP3   OH227866   7.145   2.654  14.469  0.2896 -0.2451  0.1408
 1224TIP3    H127867   7.215   2.646  14.404  1.7171  0.6779  1.5002
 1224TIP3    H227868   7.091   2.576  14.455  2.3250 -1.6968 -0.1004
 1225TIP3   OH227869   6.100   5.274  14.897 -0.7638 -0.1183 -0.5696
 1225TIP3    H127870   6.171   5.237  14.845 -1.6126 -1.4442 -0.8558
 1225TIP3    H227871   6.042   5.199  14.914 -1.3653  0.6309  0.8561
 1226TIP3   OH227872   1.945   5.401  13.340  0.1235 -0.2352  0.4662
 1226TIP3    H127873   1.993   5.461  13.397  1.7292  1.2949 -2.2439
 1226TIP3    H227874   2.007   5.330  13.323  0.3854  0.2547 -0.7364
 1227TIP3   OH227875   6.341   5.929  13.412 -0.2326  0.3070  0.1288
 1227TIP3    H127876   6.370   5.991  13.478 -0.0549  0.6782 -0.2885
 1227TIP3    H227877   6.419   5.914  13.358 -0.3873  0.0462 -0.0224
 1228TIP3   OH227878   6.747   0.266  13.824 -0.1257 -0.2147 -0.8828
 1228TIP3    H127879   6.778   0.226  13.905 -2.4835  1.2324  0.8704
 1228TIP3    H227880   6.702   0.196  13.778 -0.4724 -0.6003  0.0288
 1229TIP3   OH227881   6.932   7.206  13.334  0.2723  0.4623  0.3085
 1229TIP3    H127882   6.971   7.207  13.422  0.7558 -0.7476  0.1189
 1229TIP3    H227883   6.961   7.124  13.295 -1.7717 -0.1084 -0.1673
 1230TIP3   OH227884   2.651   3.159  14.572 -0.2060 -0.0648  0.7109
 1230TIP3    H127885   2.704   3.090  14.612  0.4417  0.0669  0.0954
 1230TIP3    H227886   2.561   3.128  14.579 -0.0860 -0.1712  2.0131
 1231TIP3   OH227887   5.974   3.772  13.875  0.3990  0.4045 -0.1304
 1231TIP3    H127888   5.949   3.800  13.963  0.9954  1.7146 -0.3586
 1231TIP3    H227889   6.068   3.754  13.881  1.2137  3.7028 -1.2052
 1232TIP3   OH227890   3.656   0.740  14.880 -0.3656 -0.2925  0.0747
 1232TIP3    H127891   3.579   0.792  14.855  0.6957  0.6971 -1.3336
 1232TIP3    H227892   3.635   0.706  14.966 -1.7468  1.2782  0.4211
 1233TIP3   OH227893   0.240   6.404  14.056 -0.0031 -0.1305  0.3334
 1233TIP3    H127894   0.278   6.388  14.143 -1.2677  1.2061  1.2051
 1233TIP3    H227895   0.183   6.329  14.040  1.6403 -1.3120 -0.2305
 1234TIP3   OH227896   8.011   2.429  13.099 -0.0146  0.1722  0.0208
 1234TIP3    H127897   7.965   2.431  13.015 -0.5117  0.9350  0.3005
 1234TIP3    H227898   7.941   2.424  13.164  0.3825 -0.9116  0.3827
 1235TIP3   OH227899   5.376   0.287  13.591 -0.6364  0.2152  0.5248
 1235TIP3    H127900   5.453   0.276  13.646 -2.1293 -0.9475  2.5514
 1235TIP3    H227901   5.373   0.380  13.571  1.3974  0.2353  0.1820
 1236TIP3   OH227902   3.159   5.614  12.695 -0.0683 -1.0429  0.0659
 1236TIP3    H127903   3.171   5.660  12.779  1.1088 -0.7350 -0.2519
 1236TIP3    H227904   3.247   5.611  12.657 -0.6971 -0.5320 -1.4993
 1237TIP3   OH227905   2.638   6.372  13.422 -0.2837 -0.2104  0.0978
 1237TIP3    H127906   2.674   6.391  13.335  0.6253  1.2250  0.7502
 1237TIP3    H227907   2.656   6.451  13.473 -3.1151  0.0067  0.8953
 1238TIP3   OH227908   7.239   5.887  14.569 -0.0650  0.3072 -0.1934
 1238TIP3    H127909   7.299   5.820  14.601 -0.2228  0.5809  0.7072
 1238TIP3    H227910   7.266   5.967  14.614  0.0804  0.8432 -1.2058
 1239TIP3   OH227911   3.116   7.644  15.342 -0.0731  0.0574  0.3350
 1239TIP3    H127912   3.133   7.710  15.275 -1.0364 -1.7136 -1.7782
 1239TIP3    H227913   3.023   7.654  15.363  0.1311  0.3447  1.1476
 1240TIP3   OH227914   0.245   4.688  13.748 -0.2604  0.1122  0.0488
 1240TIP3    H127915   0.289   4.624  13.805  0.9552  1.1850  0.3594
 1240TIP3    H227916   0.249   4.770  13.797 -3.1360  0.1864  0.3345
 1241TIP3   OH227917   8.439   1.297  12.580  0.2388  0.2514  0.7878
 1241TIP3    H127918   8.370   1.260  12.525 -0.3530  2.7070 -0.2356
 1241TIP3    H227919   8.472   1.222  12.630 -2.3326 -1.2321  0.4516
 1242TIP3   OH227920   7.963   0.291  13.808 -0.2327 -0.0345  0.4625
 1242TIP3    H127921   7.947   0.367  13.752 -0.4295  0.1498  0.7645
 1242TIP3    H227922   8.055   0.268  13.792  0.1615  0.9432  1.1763
 1243TIP3   OH227923   3.440   7.458  14.581 -0.0809 -0.1875 -0.4399
 1243TIP3    H127924   3.422   7.518  14.509 -0.0840 -0.1763 -0.4301
 1243TIP3    H227925   3.428   7.511  14.660  0.1042 -0.1518 -0.4357
 1244TIP3   OH227926   0.193   5.005  13.160  0.0747 -0.3721  0.0845
 1244TIP3    H127927   0.106   4.976  13.133 -0.1922  0.3199  0.1862
 1244TIP3    H227928   0.192   5.100  13.146  0.6017 -0.2775  0.6533
 1245TIP3   OH227929   8.046   4.448  14.396 -0.0047 -0.0435  0.4191
 1245TIP3    H127930   7.978   4.483  14.453  0.7063  1.0184  0.6328
 1245TIP3    H227931   8.118   4.425  14.454 -0.1004 -0.9934  0.1741
 1246TIP3   OH227932   1.459   6.202  14.969 -0.3328  0.0184  0.0421
 1246TIP3    H127933   1.395   6.131  14.961  0.0603 -0.2821 -0.4494
 1246TIP3    H227934   1.454   6.247  14.885  0.4371 -0.2895 -0.1710
 1247TIP3   OH227935   3.799   4.970  15.077  0.1150 -0.0712 -0.2278
 1247TIP3    H127936   3.732   5.015  15.129  0.6721 -0.2307  0.6461
 1247TIP3    H227937   3.781   4.877  15.090  0.2473 -0.1142 -0.3490
 1248TIP3   OH227938   4.519   5.119  13.633 -0.5587 -0.2293 -0.2921
 1248TIP3    H127939   4.548   5.080  13.550  0.5282 -1.9157  0.8116
 1248TIP3    H227940   4.509   5.044  13.692  2.0410  1.1222  2.0885
 1249TIP3   OH227941   0.661   0.045  14.630  0.4066 -0.1680  0.1570
 1249TIP3    H127942   0.724   0.030  14.560 -0.7913  0.5819 -1.1116
 1249TIP3    H227943   0.594   0.100  14.592 -0.1107  0.5700  2.0087
 1250TIP3   OH227944   4.195   4.832  13.614  0.3191  0.5125 -0.6867
 1250TIP3    H127945   4.270   4.772  13.607 -1.7794 -2.7140  1.6805
 1250TIP3    H227946   4.145   4.817  13.534  1.2522  1.3723 -1.4569
 1251TIP3   OH227947   1.868   8.212  13.077  0.1444  0.2165  0.0410
 1251TIP3    H127948   1.925   8.174  13.011  0.0779 -1.3552  0.8487
 1251TIP3    H227949   1.785   8.166  13.067  0.2978 -0.4620  1.5537
 1252TIP3   OH227950   0.738   1.822  14.355  0.3747 -0.1793  0.4512
 1252TIP3    H127951   0.816   1.864  14.321 -0.2454  1.7145  1.2181
 1252TIP3    H227952   0.695   1.890  14.407 -1.3364 -1.4215  0.7520
 1253TIP3   OH227953   2.643   0.749  13.819  0.5159  0.6049  0.1849
 1253TIP3    H127954   2.652   0.788  13.906 -3.8334 -0.4878  1.3802
 1253TIP3    H227955   2.580   0.805  13.774  2.6155  1.0974 -2.3396
 1254TIP3   OH227956   5.644   4.882  14.130 -0.1120 -0.8139 -0.3286
 1254TIP3    H127957   5.689   4.800  14.113 -1.4141 -1.2930 -1.7098
 1254TIP3    H227958   5.555   4.857  14.155 -0.4900  0.1495 -0.6348
 1255TIP3   OH227959   0.948   8.265  13.921 -0.1544 -0.5139 -0.4638
 1255TIP3    H127960   0.855   8.290  13.916 -0.0291 -0.1242 -0.8694
 1255TIP3    H227961   0.996   8.344  13.896  0.2481 -1.1348 -1.7684
 1256TIP3   OH227962   4.671   3.842  14.002  0.2173 -0.1532 -0.0205
 1256TIP3    H127963   4.754   3.886  13.982 -0.9378  1.8443 -0.6693
 1256TIP3    H227964   4.654   3.863  14.094  0.3512 -0.4477  0.0733
 1257TIP3   OH227965   7.411   3.366  12.997  0.0380  0.6458  0.1851
 1257TIP3    H127966   7.467   3.311  12.943 -0.0435  1.0913 -0.3685
 1257TIP3    H227967   7.334   3.383  12.942 -1.3695 -1.1763  1.4647
 1258TIP3   OH227968   8.111   6.565  12.996 -0.1567  0.0159  0.2469
 1258TIP3    H127969   8.143   6.514  12.921 -0.0132 -0.1931  0.4514
 1258TIP3    H227970   8.038   6.514  13.031  0.7358 -0.6627  1.1834
 1259TIP3   OH227971   4.107   7.985  13.855  0.3547 -0.4745 -0.1497
 1259TIP3    H127972   4.159   8.052  13.900 -0.0836  0.5940 -1.1658
 1259TIP3    H227973   4.018   8.000  13.887  0.1010  0.0609 -1.0692
 1260TIP3   OH227974   4.263   3.118  13.447 -0.1576  0.2594  0.3450
 1260TIP3    H127975   4.210   3.054  13.399  0.9062 -0.1525 -0.3187
 1260TIP3    H227976   4.264   3.195  13.390  0.0266  0.2347  0.3151
 1261TIP3   OH227977   5.556   5.341  13.302 -0.3411 -0.2930  0.4276
 1261TIP3    H127978   5.605   5.295  13.369 -0.0321  0.7371  0.9297
 1261TIP3    H227979   5.474   5.366  13.345 -0.3716 -0.0998  0.2603
 1262TIP3   OH227980   6.635   3.457  13.556  0.1084  0.0044  0.0123
 1262TIP3    H127981   6.614   3.386  13.616 -1.1051  1.1697  1.0249
 1262TIP3    H227982   6.650   3.533  13.612  2.6210  0.3383 -0.9540
 1263TIP3   OH227983   6.326   5.136  14.815  0.4471  0.2867  0.1884
 1263TIP3    H127984   6.387   5.153  14.744 -0.4309  3.1267 -0.0105
 1263TIP3    H227985   6.291   5.048  14.797  0.5812  0.7345 -2.6297
 1264TIP3   OH227986   4.751   0.272  14.674 -0.0861 -0.9602 -0.1629
 1264TIP3    H127987   4.844   0.261  14.692  0.1046 -1.2838 -1.2935
 1264TIP3    H227988   4.740   0.365  14.659  0.0222 -0.8976  0.1437
 1265TIP3   OH227989   3.250   5.103  12.422  0.2905 -0.0867  0.4643
 1265TIP3    H127990   3.263   5.011  12.398  0.6661  0.0622  0.0927
 1265TIP3    H227991   3.161   5.123  12.393  0.3488 -0.2215  0.1918
 1266TIP3   OH227992   3.093   5.474  14.732 -0.2980 -0.1823  0.3965
 1266TIP3    H127993   3.162   5.432  14.783  1.3115 -0.6306 -1.9998
 1266TIP3    H227994   3.131   5.558  14.706 -1.0941  0.0506 -0.0456
 1267TIP3   OH227995   4.959   6.961  15.094 -0.7086 -0.4805 -0.1215
 1267TIP3    H127996   4.945   6.877  15.137  0.6902 -1.0743 -0.7616
 1267TIP3    H227997   4.873   6.986  15.061 -1.2989 -1.2401  0.7872
 1268TIP3   OH227998   3.562   1.918  14.417  0.7226  0.2094 -0.1282
 1268TIP3    H127999   3.478   1.906  14.373  1.1641 -0.1742 -0.8688
 1268TIP3    H228000   3.572   1.839  14.471  0.9302 -0.0723 -0.5752
 1269TIP3   OH228001   6.509   2.086  13.341 -0.0128  0.6359 -0.6009
 1269TIP3    H128002   6.600   2.082  13.370 -0.5808  1.7014  1.6047
 1269TIP3    H228003   6.482   1.994  13.333  0.7658  0.2836  0.5438
 1270TIP3   OH228004   2.012   0.227  14.863 -0.1622 -0.0687 -0.6972
 1270TIP3    H128005   2.108   0.222  14.866 -0.2456 -2.2209  0.0012
 1270TIP3    H228006   1.994   0.298  14.802  1.8771  0.4185 -0.8233
 1271TIP3   OH228007   0.545   5.514  13.653 -0.3609  0.3090 -0.1289
 1271TIP3    H128008   0.635   5.542  13.672 -0.1549  0.1835 -0.8726
 1271TIP3    H228009   0.497   5.595  13.639 -0.7655  0.4622  1.8804
 1272TIP3   OH228010   4.294   3.893  13.219 -0.4184 -0.6172 -0.0793
 1272TIP3    H128011   4.328   3.863  13.303  0.7571 -2.7828 -1.2465
 1272TIP3    H228012   4.370   3.891  13.160 -1.6162 -1.0811 -1.6763
 1273TIP3   OH228013   6.627   4.833  15.163  0.5524  0.1109 -0.1398
 1273TIP3    H128014   6.565   4.762  15.175 -1.0436  1.3808 -0.5012
 1273TIP3    H228015   6.653   4.828  15.071  0.7548 -0.2348 -0.0645
 1274TIP3   OH228016   7.212   7.657  14.628 -0.8302 -0.5810 -0.3660
 1274TIP3    H128017   7.307   7.646  14.635 -0.7434 -0.5321 -1.3744
 1274TIP3    H228018   7.187   7.604  14.552 -1.6253 -0.6559 -0.0654
 1275TIP3   OH228019   6.475   4.424  13.458  0.0059  0.0753  0.2293
 1275TIP3    H128020   6.495   4.463  13.372 -0.5913 -0.8622 -0.3501
 1275TIP3    H228021   6.420   4.488  13.502  1.6059  1.2753  0.5634
 1276TIP3   OH228022   5.646   0.145  14.577  0.8563  0.3459 -0.4754
 1276TIP3    H128023   5.665   0.230  14.616  1.8378  0.1794 -0.5512
 1276TIP3    H228024   5.725   0.125  14.525  0.7696 -0.7488 -0.1998
 1277TIP3   OH228025   0.166   7.876  14.027 -0.1116  0.5843 -0.0488
 1277TIP3    H128026   0.118   7.958  14.016 -1.8350 -0.2115  1.1196
 1277TIP3    H228027   0.101   7.807  14.011  1.2501 -0.5852 -0.8443
 1278TIP3   OH228028   2.664   0.463  13.849 -0.8043 -0.0431 -0.3981
 1278TIP3    H128029   2.671   0.554  13.820  1.1952  0.4104  1.3211
 1278TIP3    H228030   2.684   0.411  13.771  1.8418  1.0987 -0.5684
 1279TIP3   OH228031   3.114   3.179  14.265 -0.1541 -0.3546 -0.5515
 1279TIP3    H128032   3.140   3.167  14.356  0.6972  1.3344 -0.5430
 1279TIP3    H228033   3.180   3.238  14.228 -0.9845 -0.2894 -2.0175
 1280TIP3   OH228034   8.203   0.618  13.963 -0.1070  0.0377 -0.5842
 1280TIP3    H128035   8.110   0.598  13.952 -0.2443 -0.0408  0.6298
 1280TIP3    H228036   8.221   0.599  14.055  1.1090  0.0690 -0.8018
 1281TIP3   OH228037   7.314   5.962  15.043 -0.1878  0.4003  0.1792
 1281TIP3    H128038   7.350   6.046  15.071  0.5788  0.1610 -0.0600
 1281TIP3    H228039   7.282   5.978  14.954  1.8798 -0.0549 -0.7110
 1282TIP3   OH228040   1.917   3.706  13.810 -0.2114  0.2122 -0.0655
 1282TIP3    H128041   1.918   3.740  13.720  0.3352  0.6009  0.0868
 1282TIP3    H228042   1.868   3.771  13.860 -2.4436 -1.0329 -0.4628
 1283TIP3   OH228043   1.420   0.714  13.134  0.0678  0.5561 -0.1111
 1283TIP3    H128044   1.502   0.748  13.097  0.6836  0.6086  1.2196
 1283TIP3    H228045   1.448   0.641  13.189 -0.7861  0.5820  0.3707
 1284TIP3   OH228046   2.884   1.799  14.819  0.2797  0.1521 -0.8978
 1284TIP3    H128047   2.873   1.726  14.880 -0.1538  0.0398 -1.1046
 1284TIP3    H228048   2.808   1.855  14.836  0.0468  0.0166 -1.4746
 1285TIP3   OH228049   1.741   6.541  12.948 -0.3953 -0.0208 -0.1753
 1285TIP3    H128050   1.743   6.461  12.895 -1.0986  0.6553 -1.2518
 1285TIP3    H228051   1.776   6.514  13.034 -0.7697 -1.5012 -0.4700
 1286TIP3   OH228052   0.987   2.568  13.975 -0.3715 -0.4023 -0.1753
 1286TIP3    H128053   0.988   2.593  13.883  0.4292  1.3849  0.2818
 1286TIP3    H228054   1.066   2.609  14.012 -1.4789  0.2165  1.6202
 1287TIP3   OH228055   3.716   4.885  14.347  0.0660 -0.1806 -0.5676
 1287TIP3    H128056   3.794   4.898  14.401  0.3874  1.7424 -1.4218
 1287TIP3    H228057   3.643   4.909  14.404  0.2551  0.0476 -0.4215
 1288TIP3   OH228058   6.169   5.305  13.927 -0.4008 -0.3766  0.0421
 1288TIP3    H128059   6.174   5.267  13.840 -0.7338 -0.0479 -0.1242
 1288TIP3    H228060   6.169   5.400  13.913 -0.7014 -0.3218  0.3806
 1289TIP3   OH228061   6.314   6.862  12.922 -0.3322  0.1517  1.0630
 1289TIP3    H128062   6.361   6.780  12.937  0.7803  0.8345  1.4593
 1289TIP3    H228063   6.361   6.904  12.850 -0.2447  0.9087  1.5478
 1290TIP3   OH228064   4.253   3.315  13.241 -0.1252  0.1131  0.0336
 1290TIP3    H128065   4.212   3.241  13.197  1.4697 -0.9112  0.1883
 1290TIP3    H228066   4.317   3.348  13.178 -0.0256  0.6382  0.4006
 1291TIP3   OH228067   1.210   2.136  14.391 -0.2132 -0.0228  0.4527
 1291TIP3    H128068   1.164   2.148  14.308 -2.1297 -0.1921  1.4334
 1291TIP3    H228069   1.225   2.225  14.424  0.2813  0.0349  0.0831
 1292TIP3   OH228070   3.656   3.011  13.519  1.1922  0.5539 -0.2089
 1292TIP3    H128071   3.579   3.050  13.479  1.4740  1.9095  0.5398
 1292TIP3    H228072   3.676   2.936  13.462 -2.2244 -1.5332  1.0111
 1293TIP3   OH228073   8.298   5.201  14.554 -0.1073 -0.1005 -0.6089
 1293TIP3    H128074   8.309   5.294  14.532  1.0521  0.4391  1.8879
 1293TIP3    H228075   8.388   5.168  14.563 -0.5111 -1.0724 -0.0200
 1294TIP3   OH228076   7.686   6.805  14.637 -0.2528  0.1530 -0.3057
 1294TIP3    H128077   7.648   6.851  14.712 -1.3806  1.1045 -1.4277
 1294TIP3    H228078   7.724   6.726  14.675 -0.5891  0.7221  1.3037
 1295TIP3   OH228079   6.764   7.240  14.728  0.0743 -0.2130  0.8116
 1295TIP3    H128080   6.698   7.171  14.737  0.4931 -0.6476  0.6296
 1295TIP3    H228081   6.763   7.262  14.635 -1.4415  1.4395  1.1700
 1296TIP3   OH228082   3.325   5.795  15.301  0.0207 -0.4996 -0.0575
 1296TIP3    H128083   3.389   5.806  15.230  0.2306  1.5792  0.4120
 1296TIP3    H228084   3.245   5.838  15.268  0.3185  1.0750  1.1764
 1297TIP3   OH228085   2.238   7.586  12.994  0.3085 -0.0917 -0.2766
 1297TIP3    H128086   2.159   7.538  12.973  1.0481 -1.1643 -0.6965
 1297TIP3    H228087   2.288   7.527  13.050  0.9077  0.4804 -0.1879
 1298TIP3   OH228088   6.549   2.402  13.396  0.1987  0.4041 -1.1685
 1298TIP3    H128089   6.473   2.346  13.412  0.9481 -0.1450  0.7051
 1298TIP3    H228090   6.588   2.366  13.317  0.3990 -1.4885 -0.2764
 1299TIP3   OH228091   2.580   3.493  13.819 -0.1545  0.6008 -0.6263
 1299TIP3    H128092   2.544   3.418  13.772  0.1789  0.1826 -0.2091
 1299TIP3    H228093   2.645   3.530  13.759  0.4480 -0.0807 -0.4034
 1300TIP3   OH228094   3.293   2.974  13.055 -0.1548 -0.5633  0.2248
 1300TIP3    H128095   3.312   3.044  12.994 -3.2671  1.1976  1.0705
 1300TIP3    H228096   3.249   2.907  13.003 -0.9867  0.0372  0.1390
 1301TIP3   OH228097   0.354   7.768  14.178  0.2162  0.1307 -0.0287
 1301TIP3    H128098   0.283   7.809  14.130 -0.4732 -0.9085  0.0663
 1301TIP3    H228099   0.408   7.726  14.111  0.3374  0.3177 -0.0477
 1302TIP3   OH228100   1.587   1.308  14.846  0.1001  0.4082  0.6273
 1302TIP3    H128101   1.598   1.250  14.921  1.3973  1.0467  0.9659
 1302TIP3    H228102   1.493   1.316  14.835 -0.1009 -0.7229  1.3816
 1303TIP3   OH228103   2.437   6.048  13.797  0.0324  0.0726  0.2562
 1303TIP3    H128104   2.444   6.112  13.726 -1.3184  0.6529  0.6152
 1303TIP3    H228105   2.346   6.052  13.824  0.0445 -1.6290  0.6690
 1304TIP3   OH228106   1.624   3.091  14.773 -0.6357 -0.3430 -0.5099
 1304TIP3    H128107   1.570   3.014  14.761  0.2318 -0.9923 -0.3241
 1304TIP3    H228108   1.636   3.127  14.685  0.8032 -1.7074 -0.9109
 1305TIP3   OH228109   7.076   8.197  13.872 -0.3070  0.1664  0.1464
 1305TIP3    H128110   7.047   8.251  13.946  2.8431  1.0473  0.8732
 1305TIP3    H228111   7.093   8.111  13.909 -0.8060 -0.0244 -0.0499
 1306TIP3   OH228112   7.442   3.894  12.678  0.6516 -0.3336  0.1582
 1306TIP3    H128113   7.515   3.947  12.646  0.3870 -0.6166 -0.9679
 1306TIP3    H228114   7.369   3.918  12.621 -0.0790 -0.2523  1.0960
 1307TIP3   OH228115   4.279   2.517  14.025 -0.2068 -0.5811  0.3835
 1307TIP3    H128116   4.282   2.502  14.119 -3.2801 -2.3748  0.3458
 1307TIP3    H228117   4.285   2.429  13.986  0.1287  0.0394 -1.0277
 1308TIP3   OH228118   2.398   7.726  13.832  0.3046 -0.2690 -0.1959
 1308TIP3    H128119   2.460   7.687  13.894  0.6263  0.2793 -0.1586
 1308TIP3    H228120   2.341   7.780  13.887  0.1793 -0.2921 -0.3037
 1309TIP3   OH228121   1.010   7.878  14.371  0.4124 -0.0397 -0.6927
 1309TIP3    H128122   0.949   7.920  14.311 -1.2773 -0.3647  0.7269
 1309TIP3    H228123   0.970   7.793  14.391  2.2797 -1.1139 -1.1691
 1310TIP3   OH228124   1.316   2.053  13.597  0.5276  0.2605 -0.2275
 1310TIP3    H128125   1.341   1.967  13.631 -1.8114  0.3947  2.2111
 1310TIP3    H228126   1.283   2.036  13.509 -0.2444 -1.4156  0.3545
 1311TIP3   OH228127   3.193   4.317  12.902 -0.0457 -0.3651  0.0305
 1311TIP3    H128128   3.113   4.274  12.930  0.8994 -1.6156  0.9400
 1311TIP3    H228129   3.230   4.258  12.836 -0.1805  0.5195 -0.8515
 1312TIP3   OH228130   7.040   6.142  13.406 -0.3721 -0.1767  0.7402
 1312TIP3    H128131   7.009   6.224  13.367 -0.5739  0.2057  1.6798
 1312TIP3    H228132   7.122   6.124  13.362 -1.8026 -1.1354 -1.7239
 1313TIP3   OH228133   6.251   7.818  13.714  0.2110  0.0621 -0.4795
 1313TIP3    H128134   6.214   7.879  13.650 -1.6011 -2.1165 -1.6573
 1313TIP3    H228135   6.188   7.818  13.786 -0.4373 -1.1943 -1.0079
 1314TIP3   OH228136   1.415   5.285  13.212  0.0423  0.1343  0.0906
 1314TIP3    H128137   1.506   5.313  13.224 -0.4035  1.8960 -0.3403
 1314TIP3    H228138   1.399   5.293  13.118 -0.2788 -1.1407  0.0208
 1315TIP3   OH228139   3.021   2.825  12.650 -0.5188  0.4456 -0.1188
 1315TIP3    H128140   2.979   2.845  12.566 -2.7208 -0.5909  0.6734
 1315TIP3    H228141   2.971   2.874  12.715 -0.2113 -0.4609  0.8307
 1316TIP3   OH228142   7.518   0.364  14.008  0.2062  0.0366 -0.2238
 1316TIP3    H128143   7.589   0.301  13.994  1.3763  1.3807 -0.5602
 1316TIP3    H228144   7.522   0.422  13.932 -1.3061  0.1224 -0.2743
 1317TIP3   OH228145   1.991   7.294  13.662 -0.2773  0.0786 -0.0210
 1317TIP3    H128146   1.962   7.377  13.625 -2.2827 -0.8142 -0.5822
 1317TIP3    H228147   2.050   7.319  13.734  1.8903  1.8864 -2.2386
 1318TIP3   OH228148   3.693   2.407  15.007  0.1277  0.3258 -0.3576
 1318TIP3    H128149   3.607   2.414  14.966 -0.8367 -1.7318  1.1323
 1318TIP3    H228150   3.679   2.429  15.099  1.5973  1.6936 -0.4051
 1319TIP3   OH228151   1.155   3.101  13.269  0.8683 -0.2665 -0.3269
 1319TIP3    H128152   1.068   3.061  13.275  1.1520 -1.0191 -1.0169
 1319TIP3    H228153   1.196   3.059  13.194  2.5657 -1.4095  1.1376
 1320TIP3   OH228154   6.059   0.245  14.573  0.6848  0.4543 -0.2073
 1320TIP3    H128155   6.076   0.309  14.642  2.7189  0.4684 -0.6496
 1320TIP3    H228156   6.124   0.176  14.588 -0.2021 -0.5581 -0.8878
 1321TIP3   OH228157   4.377   0.447  15.052 -0.4238  0.4986  0.3600
 1321TIP3    H128158   4.419   0.531  15.072 -0.0140  0.3310  0.2109
 1321TIP3    H228159   4.435   0.407  14.987 -1.1263  0.5330 -0.2973
 1322TIP3   OH228160   1.420   8.306  13.456  0.0250 -0.3306 -0.0881
 1322TIP3    H128161   1.422   8.251  13.378  0.9213 -2.3320  1.2535
 1322TIP3    H228162   1.404   8.394  13.423 -3.0999 -1.5202 -2.2299
 1323TIP3   OH228163   7.367   5.812  13.085 -0.4744  0.1645  0.3277
 1323TIP3    H128164   7.396   5.825  12.995 -1.0617 -0.5028  0.0364
 1323TIP3    H228165   7.429   5.863  13.137  0.6874 -0.5000 -0.3506
 1324TIP3   OH228166   7.235   0.614  13.376  0.3043  0.1651 -0.4784
 1324TIP3    H128167   7.225   0.540  13.435  1.2990  1.4388  1.3768
 1324TIP3    H228168   7.330   0.624  13.366  0.2033  1.5934 -0.1438
 1325TIP3   OH228169   3.416   7.926  12.811  0.7255 -0.2326 -0.3445
 1325TIP3    H128170   3.364   8.001  12.782 -1.7992 -2.6918 -2.7735
 1325TIP3    H228171   3.485   7.919  12.745  0.0720 -0.8692 -0.9735
 1326TIP3   OH228172   3.924   1.966  14.841  0.2965 -0.2548  0.1712
 1326TIP3    H128173   4.010   1.948  14.879  0.8868  1.7245 -0.0958
 1326TIP3    H228174   3.914   2.061  14.848 -1.7110 -0.3939 -0.1737
 1327TIP3   OH228175   8.056   0.969  14.706  0.0509  0.2108 -0.8764
 1327TIP3    H128176   8.134   1.008  14.744 -0.3177  0.0789  0.0356
 1327TIP3    H228177   8.085   0.934  14.621  0.5038  1.9571 -1.4738
 1328TIP3   OH228178   3.585   5.162  14.577  0.0339 -0.3631 -0.2298
 1328TIP3    H128179   3.640   5.241  14.573 -0.1038 -0.3029 -1.9155
 1328TIP3    H228180   3.514   5.186  14.636  0.2549  0.6196 -0.3323
 1329TIP3   OH228181   1.082   4.985  14.534  0.1032 -0.0865  0.0063
 1329TIP3    H128182   1.013   5.021  14.478 -0.6602  1.3660  1.7691
 1329TIP3    H228183   1.130   5.062  14.565 -0.5441 -0.6578  2.6362
 1330TIP3   OH228184   8.029   1.837  14.450 -0.3266 -0.0721 -0.5740
 1330TIP3    H128185   8.002   1.925  14.475 -0.1419 -0.6127  1.7664
 1330TIP3    H228186   8.014   1.784  14.528 -0.8485 -2.2328 -2.0513
 1331TIP3   OH228187   8.399   3.736  13.229 -0.6530  0.5390 -0.0689
 1331TIP3    H128188   8.315   3.773  13.254 -0.8106  0.3691 -0.3397
 1331TIP3    H228189   8.400   3.742  13.133 -0.8409 -0.4947 -0.1432
 1332TIP3   OH228190   0.570   7.297  14.669  0.4940  0.0947 -0.0852
 1332TIP3    H128191   0.631   7.294  14.743  1.3697  1.6964 -0.6936
 1332TIP3    H228192   0.499   7.239  14.695  1.6502 -0.8195  1.2182
 1333TIP3   OH228193   6.051   7.304  14.808 -0.7441  0.0745  0.5819
 1333TIP3    H128194   5.999   7.224  14.815 -0.6562  0.0253  0.6680
 1333TIP3    H228195   6.142   7.274  14.810 -0.7011  0.2223  1.2153
 1334TIP3   OH228196   6.095   1.099  14.668 -0.2555  0.0547  0.4402
 1334TIP3    H128197   6.058   1.018  14.703  1.9186 -1.0643  0.2683
 1334TIP3    H228198   6.031   1.166  14.692 -1.5943 -1.5291  1.5373
 1335TIP3   OH228199   7.332   0.952  14.406 -0.3203  0.2075  0.0178
 1335TIP3    H128200   7.338   1.003  14.326 -0.5860 -2.0098 -1.5102
 1335TIP3    H228201   7.397   0.882  14.395 -2.2663 -1.7675  0.4401
 1336TIP3   OH228202   8.082   0.201  14.313 -0.4739 -1.0786  0.3759
 1336TIP3    H128203   8.072   0.108  14.333  0.7526 -1.1634  0.6374
 1336TIP3    H228204   8.022   0.215  14.240  1.2184 -2.7020 -1.4527
 1337TIP3   OH228205   8.137   5.483  14.282 -0.5451 -0.4807  0.2321
 1337TIP3    H128206   8.147   5.394  14.248  0.3834 -0.7087  1.0545
 1337TIP3    H228207   8.084   5.473  14.362 -1.8444 -0.0744 -0.5450
 1338TIP3   OH228208   1.463   3.952  14.401 -0.6046  0.1480  0.0616
 1338TIP3    H128209   1.450   3.942  14.495 -0.9229  1.0980  0.1205
 1338TIP3    H228210   1.393   4.010  14.372 -1.2428 -1.0920 -0.9810
 1339TIP3   OH228211   7.684   4.967  14.554  0.1312 -0.0039  0.1595
 1339TIP3    H128212   7.674   5.061  14.569  0.5760 -0.1059  1.1731
 1339TIP3    H228213   7.742   4.960  14.478  0.1733  0.5449  0.1442
 1340TIP3   OH228214   5.050   3.937  13.249 -0.2450 -0.0368 -0.2266
 1340TIP3    H128215   5.054   3.894  13.164  0.2586 -1.5103  0.5048
 1340TIP3    H228216   4.963   3.914  13.284 -0.3509  0.3503 -0.2294
 1341TIP3   OH228217   0.766   7.323  13.352 -0.7773  0.1317  0.1305
 1341TIP3    H128218   0.776   7.322  13.257 -1.0075  1.6840  0.0608
 1341TIP3    H228219   0.825   7.392  13.381 -1.3790  0.2914  1.0110
 1342TIP3   OH228220   6.155   5.896  14.979 -0.2621 -0.3005 -0.2519
 1342TIP3    H128221   6.154   5.817  15.033 -2.6641 -0.0016  0.2509
 1342TIP3    H228222   6.065   5.928  14.981  0.2919  1.5712 -1.7708
 1343TIP3   OH228223   5.624   0.214  13.750  0.5678 -0.0637  0.2390
 1343TIP3    H128224   5.676   0.259  13.816 -0.4133  0.4283  0.6919
 1343TIP3    H228225   5.684   0.200  13.677  1.1233  1.1948  0.4421
 1344TIP3   OH228226   3.156   6.460  15.332 -0.0738 -0.1672  0.2858
 1344TIP3    H128227   3.171   6.554  15.322  0.0889 -0.2360 -0.1640
 1344TIP3    H228228   3.063   6.448  15.314  0.1718 -0.2596 -1.0315
 1345TIP3   OH228229   6.569   1.484  13.025  0.2999  0.3777  0.4868
 1345TIP3    H128230   6.584   1.572  13.058  1.7474 -0.0275  0.9915
 1345TIP3    H228231   6.635   1.430  13.068 -0.7874 -1.0356  0.4835
 1346TIP3   OH228232   8.436   4.588  13.192  0.3581 -0.0593  0.0476
 1346TIP3    H128233   8.374   4.659  13.175 -0.1595 -0.9589 -2.2418
 1346TIP3    H228234   8.382   4.515  13.222  0.6860  0.0477  0.9030
 1347TIP3   OH228235   0.144   5.444  14.918 -0.1415  0.6355 -0.1728
 1347TIP3    H128236   0.164   5.351  14.928  1.9507  1.2118  1.5281
 1347TIP3    H228237   0.212   5.477  14.860  0.3097  1.4793  0.8153
 1348TIP3   OH228238   4.659   2.609  14.489  0.1825  0.0120 -0.1588
 1348TIP3    H128239   4.626   2.582  14.575 -0.1318  0.9465  0.0331
 1348TIP3    H228240   4.694   2.697  14.504  1.3854 -0.3618 -0.6954
 1349TIP3   OH228241   6.150   1.458  13.395  0.5055 -0.6052 -0.5601
 1349TIP3    H128242   6.230   1.407  13.392  0.5225 -0.5352 -1.9523
 1349TIP3    H228243   6.084   1.401  13.355  0.1045 -0.2635 -0.3912
 1350TIP3   OH228244   5.676   1.872  14.089  0.7403  0.4179  0.0037
 1350TIP3    H128245   5.733   1.826  14.151  0.3235  1.2375  1.0217
 1350TIP3    H228246   5.605   1.810  14.072  0.6334  0.3487  0.6806
 1351TIP3   OH228247   7.483   6.953  14.189 -0.0296  0.0318 -0.0999
 1351TIP3    H128248   7.532   7.028  14.222 -0.9067  1.1096 -1.1884
 1351TIP3    H228249   7.490   6.888  14.260 -0.5337  1.6766  1.5411
 1352TIP3   OH228250   0.672   1.399  14.088  0.1126  0.0552  0.3080
 1352TIP3    H128251   0.678   1.426  13.996 -2.0070 -0.0141  0.0988
 1352TIP3    H228252   0.708   1.473  14.137  1.3888  0.0378 -0.5631
 1353TIP3   OH228253   2.145   7.325  14.340  0.4498 -0.1059  0.2392
 1353TIP3    H128254   2.136   7.384  14.415  0.2462 -1.1510  1.0636
 1353TIP3    H228255   2.079   7.257  14.356  1.5683 -1.2774  0.0131
 1354TIP3   OH228256   7.551   0.478  13.107  0.3921 -0.4727 -0.3231
 1354TIP3    H128257   7.512   0.504  13.023 -0.1940 -0.1629  0.0334
 1354TIP3    H228258   7.622   0.419  13.084  2.0902  1.7905 -1.2244
 1355TIP3   OH228259   1.218   6.343  14.339  0.2364  0.6245  0.1390
 1355TIP3    H128260   1.199   6.365  14.248  0.4763  1.7851  0.3510
 1355TIP3    H228261   1.170   6.261  14.355 -1.2801  1.3553 -0.4930
 1356TIP3   OH228262   1.096   5.267  15.145 -0.2813  0.5209 -0.0421
 1356TIP3    H128263   1.103   5.175  15.119  2.0829  0.6394 -0.0421
 1356TIP3    H228264   1.108   5.316  15.064 -2.1163  0.8591 -0.1387
 1357TIP3   OH228265   6.652   7.724  14.009  0.3356  0.1402  0.5197
 1357TIP3    H128266   6.697   7.655  13.961 -1.1798  0.2336 -1.1478
 1357TIP3    H228267   6.573   7.682  14.042 -0.0655  0.8010  0.4158
 1358TIP3   OH228268   3.732   7.429  13.726 -0.1216 -0.6256  0.3675
 1358TIP3    H128269   3.728   7.488  13.651  0.4274 -1.0281  0.0186
 1358TIP3    H228270   3.813   7.453  13.771 -0.5619 -0.2318  0.9663
 1359TIP3   OH228271   3.410   4.159  13.320 -0.3517 -0.0355  0.9690
 1359TIP3    H128272   3.321   4.195  13.318  0.0751  1.0465  0.2997
 1359TIP3    H228273   3.426   4.129  13.231 -0.9869 -2.7527  1.6794
 1360TIP3   OH228274   4.217   2.427  13.503 -0.3347  0.4144  0.6724
 1360TIP3    H128275   4.125   2.436  13.478 -0.0042  1.5248 -0.2408
 1360TIP3    H228276   4.264   2.486  13.444  1.0167 -0.4292  0.8545
 1361TIP3   OH228277   7.772   2.368  14.582 -0.8525 -0.0739 -0.3561
 1361TIP3    H128278   7.807   2.303  14.521 -0.0193 -1.9372  1.9529
 1361TIP3    H228279   7.841   2.434  14.588 -0.9502  0.1417 -1.3965
 1362TIP3   OH228280   4.812   5.694  13.590 -0.7339 -0.2429 -0.0536
 1362TIP3    H128281   4.805   5.621  13.528 -1.3658 -0.1298 -0.1255
 1362TIP3    H228282   4.856   5.656  13.666  1.4012 -0.0234 -1.1153
 1363TIP3   OH228283   1.996   1.678  14.232 -0.3739  0.7430 -0.2334
 1363TIP3    H128284   2.037   1.756  14.194  0.3994 -0.2501 -1.5581
 1363TIP3    H228285   2.067   1.614  14.237 -0.5857  0.6062  2.4278
 1364TIP3   OH228286   0.608   4.514  14.950  0.7367 -0.0256 -0.0723
 1364TIP3    H128287   0.694   4.520  14.991  0.6096  3.5323 -0.0054
 1364TIP3    H228288   0.627   4.515  14.856  0.8227  2.1796 -0.0786
 1365TIP3   OH228289   4.913   8.395  13.222  0.0515  0.2310  0.1258
 1365TIP3    H128290   4.862   8.386  13.303  1.1039 -0.1105  0.7795
 1365TIP3    H228291   4.893   8.482  13.189 -1.1360  0.0069  0.2281
 1366TIP3   OH228292   1.000   1.553  15.226 -0.5871  0.1333 -0.0532
 1366TIP3    H128293   0.942   1.482  15.198 -0.8854 -0.2356  1.4340
 1366TIP3    H228294   1.088   1.522  15.206 -0.8009  0.1039 -1.0260
 1367TIP3   OH228295   7.727   4.346  14.025 -0.3464  0.1916 -0.3465
 1367TIP3    H128296   7.653   4.302  14.067  0.2024 -1.3224 -0.8872
 1367TIP3    H228297   7.804   4.313  14.073  0.0637  0.8851 -0.5143
 1368TIP3   OH228298   0.179   0.673  14.148  0.3212  0.3645 -0.4648
 1368TIP3    H128299   0.129   0.730  14.089 -2.6422  0.0494  1.5428
 1368TIP3    H228300   0.170   0.586  14.111 -0.9841  0.2636  0.0346
 1369TIP3   OH228301   1.944   0.124  13.944  0.3850 -0.3324  0.3103
 1369TIP3    H128302   2.009   0.194  13.950  1.4249 -1.2558  0.1820
 1369TIP3    H228303   1.981   0.063  13.880 -1.1324 -0.3492 -0.5790
 1370TIP3   OH228304   0.104   5.149  15.103  0.3231 -0.4259  0.3534
 1370TIP3    H128305   0.040   5.177  15.169  0.3425 -0.5493  0.4250
 1370TIP3    H228306   0.179   5.119  15.154 -0.3925 -2.3472  0.3639
 1371TIP3   OH228307   1.774   5.858  13.168  0.2840 -0.5744  0.4826
 1371TIP3    H128308   1.820   5.847  13.085  0.4589 -0.2279  0.5366
 1371TIP3    H228309   1.770   5.952  13.182 -2.5682 -0.4175 -0.7378
 1372TIP3   OH228310   3.351   3.052  14.786  0.0127  0.1771  0.6465
 1372TIP3    H128311   3.277   3.073  14.844  0.0630 -0.1742  0.8439
 1372TIP3    H228312   3.424   3.036  14.845 -0.0809 -0.7590  0.5232
 1373TIP3   OH228313   3.692   1.548  12.830  0.2823  0.1490  0.0908
 1373TIP3    H128314   3.646   1.618  12.783  1.2151  1.4440  1.0467
 1373TIP3    H228315   3.649   1.544  12.915  0.3760 -0.3011  0.1199
 1374TIP3   OH228316   4.915   2.136  12.905  0.3229  0.0649 -1.0324
 1374TIP3    H128317   4.900   2.230  12.915  1.2661  0.1179  0.0817
 1374TIP3    H228318   4.869   2.097  12.979  0.1953 -0.3234 -1.3165
 1375TIP3   OH228319   7.886   5.474  14.861 -0.1777 -0.1508  0.1904
 1375TIP3    H128320   7.809   5.444  14.813 -0.5292  1.1667 -0.0994
 1375TIP3    H228321   7.879   5.432  14.947 -2.4940  1.7150  1.0126
 1376TIP3   OH228322   5.057   4.304  13.835 -0.7579  0.4198 -0.0837
 1376TIP3    H128323   5.046   4.381  13.890 -2.1986 -0.2352  0.6168
 1376TIP3    H228324   5.076   4.233  13.897 -2.2395 -0.2993 -0.4153
 1377TIP3   OH228325   3.223   0.602  13.501  0.0178 -0.0985 -0.5978
 1377TIP3    H128326   3.296   0.548  13.532 -0.8232 -0.5143  0.7674
 1377TIP3    H228327   3.221   0.676  13.561 -0.8072 -0.1983 -0.4946
 1378TIP3   OH228328   7.082   5.129  15.196 -0.0286 -0.1813  0.2143
 1378TIP3    H128329   7.054   5.208  15.241 -0.4106 -1.7926  3.0898
 1378TIP3    H228330   7.003   5.097  15.153 -0.1169  0.4603 -0.1106
 1379TIP3   OH228331   1.231   2.163  14.862 -0.1592  0.2869  0.0351
 1379TIP3    H128332   1.152   2.139  14.911 -1.0204 -0.9824 -1.8391
 1379TIP3    H228333   1.224   2.113  14.781  2.6353  0.0731 -0.1722
 1380TIP3   OH228334   3.745   8.027  13.808 -0.2718 -0.2326  0.4814
 1380TIP3    H128335   3.789   8.002  13.889 -0.9651 -0.2801  0.8506
 1380TIP3    H228336   3.691   7.951  13.785 -0.4453 -0.0388  0.2376
 1381TIP3   OH228337   0.858   5.288  14.764 -0.2003 -0.0855  0.1170
 1381TIP3    H128338   0.796   5.324  14.828 -0.3018 -1.6400  0.9622
 1381TIP3    H228339   0.819   5.204  14.738  1.0079 -0.5849 -0.1576
 1382TIP3   OH228340   6.050   1.977  13.156 -0.0537 -0.1052 -0.5093
 1382TIP3    H128341   6.129   2.012  13.197 -0.7777  1.3830 -0.3165
 1382TIP3    H228342   6.014   2.051  13.107 -1.1117 -0.8722 -0.9120
 1383TIP3   OH228343   0.338   6.659  14.048  0.2333 -0.6145  0.0080
 1383TIP3    H128344   0.293   6.575  14.047  1.6993 -1.4462  0.8744
 1383TIP3    H228345   0.413   6.646  14.105  0.6684  1.2080 -0.0709
 1384TIP3   OH228346   2.304   0.170  14.871 -0.2922  0.4801  0.5898
 1384TIP3    H128347   2.381   0.224  14.855  0.7951 -0.6453  1.6620
 1384TIP3    H228348   2.328   0.084  14.837 -1.7454  0.4827 -0.5446
 1385TIP3   OH228349   7.579   1.488  13.250 -0.3970 -0.0245 -0.3068
 1385TIP3    H128350   7.658   1.540  13.263  1.0630 -1.7595 -1.5828
 1385TIP3    H228351   7.549   1.467  13.338 -0.1752  1.6782  0.2099
 1386TIP3   OH228352   4.716   0.930  14.514  0.1691 -0.3692  0.0609
 1386TIP3    H128353   4.791   0.937  14.454 -0.7529  2.5183 -0.9159
 1386TIP3    H228354   4.730   0.998  14.579 -0.9924 -0.6307  0.6134
 1387TIP3   OH228355   7.709   6.444  14.665  0.3147  0.9774 -0.1741
 1387TIP3    H128356   7.725   6.483  14.751 -1.1744  1.1538  0.0478
 1387TIP3    H228357   7.788   6.464  14.615  1.2465  0.8069  1.1613
 1388TIP3   OH228358   2.024   0.487  14.374  0.2919  0.7685 -0.2583
 1388TIP3    H128359   2.065   0.563  14.331 -2.4803  0.3809 -4.1715
 1388TIP3    H228360   2.033   0.416  14.310  0.1012 -1.3926  1.9821
 1389TIP3   OH228361   6.545   6.889  13.264  0.7638  0.1112 -0.5311
 1389TIP3    H128362   6.522   6.939  13.185 -0.7772  1.8531  0.9227
 1389TIP3    H228363   6.607   6.945  13.310 -0.6675  0.5609  0.9218
 1390TIP3   OH228364   2.246   2.076  15.024 -0.2551  0.3759  0.4462
 1390TIP3    H128365   2.155   2.073  15.056 -0.0817 -0.8270  0.9150
 1390TIP3    H228366   2.292   2.014  15.081  0.0897 -1.8636 -2.0924
 1391TIP3   OH228367   5.599   3.729  14.362  0.6136  0.2930  0.5757
 1391TIP3    H128368   5.540   3.672  14.412  0.6453 -0.2008  0.0619
 1391TIP3    H228369   5.620   3.678  14.284  1.0121  0.8311  0.3307
 1392TIP3   OH228370   2.404   2.659  15.102  0.1478  0.0271  0.4200
 1392TIP3    H128371   2.414   2.699  15.188  0.3963 -1.0236  0.8971
 1392TIP3    H228372   2.341   2.715  15.057  1.1349  1.4237  0.7419
 1393TIP3   OH228373   2.966   0.837  14.577 -0.0074  0.0860  0.0408
 1393TIP3    H128374   2.988   0.825  14.485 -1.8051 -1.1770 -0.2803
 1393TIP3    H228375   3.002   0.759  14.620  2.9155  1.7645  0.8976
 1394TIP3   OH228376   0.315   7.942  13.597  0.4138 -0.3329 -0.4121
 1394TIP3    H128377   0.228   7.913  13.626  0.6303  0.2145  0.8800
 1394TIP3    H228378   0.303   7.965  13.505 -1.0905  0.7387  0.0016
 1395TIP3   OH228379   0.915   7.187  14.516 -0.2057  0.1872  0.2114
 1395TIP3    H128380   0.855   7.261  14.519 -0.5185 -0.0651  0.2115
 1395TIP3    H228381   0.903   7.143  14.600  1.6403  1.4264  1.1952
 1396TIP3   OH228382   1.631   0.981  14.157 -0.4670 -0.2222 -0.3304
 1396TIP3    H128383   1.551   1.029  14.178 -1.5438 -1.5509 -1.2277
 1396TIP3    H228384   1.627   0.903  14.211  1.0080  0.3901  0.7277
 1397TIP3   OH228385   7.352   3.489  13.385 -0.1448 -0.1106  0.1328
 1397TIP3    H128386   7.270   3.440  13.380  0.3589 -1.2059  1.7415
 1397TIP3    H228387   7.326   3.581  13.384 -1.4109 -0.4466  0.9549
 1398TIP3   OH228388   8.035   0.493  13.213 -0.2306  0.1682  0.0783
 1398TIP3    H128389   7.958   0.437  13.210  0.5559 -0.9624  0.3080
 1398TIP3    H228390   8.042   0.530  13.125 -1.3675  0.7698  0.2267
 1399TIP3   OH228391   5.655   1.344  14.857 -0.2326 -0.0074  0.2059
 1399TIP3    H128392   5.638   1.323  14.765 -0.4654  0.3980  0.1525
 1399TIP3    H228393   5.607   1.277  14.906 -4.0383  2.3239  0.1122
 1400TIP3   OH228394   4.613   6.281  14.125 -0.0370  0.4032  0.4583
 1400TIP3    H128395   4.611   6.262  14.219 -1.9844 -0.0480  0.3735
 1400TIP3    H228396   4.545   6.225  14.088  0.2447  1.0550 -1.1355
 1401TIP3   OH228397   0.971   0.047  14.193  0.0978  0.7875  0.3017
 1401TIP3    H128398   1.048   0.081  14.147  1.2369  0.5179  1.9145
 1401TIP3    H228399   0.998  -0.040  14.224 -1.1595  0.3342  0.2003
 1402TIP3   OH228400   7.509   6.516  14.400  0.6110  0.2911 -0.8629
 1402TIP3    H128401   7.573   6.492  14.467  0.0308 -0.1900 -0.4683
 1402TIP3    H228402   7.463   6.592  14.435  0.5172  0.2290 -0.8501
 1403TIP3   OH228403   3.212   2.786  14.701 -0.8586  0.3627 -0.4897
 1403TIP3    H128404   3.205   2.701  14.746  0.9307  0.0595 -0.7016
 1403TIP3    H228405   3.241   2.847  14.769 -0.2979  0.3736 -0.7276
 1404TIP3   OH228406   7.103   1.647  14.040  0.2467  0.1895  0.5900
 1404TIP3    H128407   7.079   1.554  14.036 -1.0996  0.5190  0.4138
 1404TIP3    H228408   7.157   1.654  14.119  1.6876 -1.0060 -0.2444
 1405TIP3   OH228409   7.037   3.872  15.006  0.3201  0.0598 -0.1447
 1405TIP3    H128410   7.076   3.785  15.001  0.7077  0.2242 -0.0067
 1405TIP3    H228411   7.111   3.931  15.023 -0.0869  0.2716  0.9944
 1406TIP3   OH228412   7.259   4.050  14.253 -0.2505  0.0609  0.9563
 1406TIP3    H128413   7.273   3.956  14.248  2.1811  0.3585  0.6659
 1406TIP3    H228414   7.178   4.066  14.204  0.3050 -1.6839 -0.6145
 1407TIP3   OH228415   2.167   6.623  13.807  0.5982  0.4366 -0.3266
 1407TIP3    H128416   2.195   6.542  13.765 -0.8113 -0.3398  0.1343
 1407TIP3    H228417   2.158   6.600  13.900 -3.3583 -0.0578 -0.6314
 1408TIP3   OH228418   1.783   6.400  14.963  0.1716 -0.1754 -0.4119
 1408TIP3    H128419   1.845   6.384  14.892  1.0068 -0.4821  0.3504
 1408TIP3    H228420   1.837   6.396  15.042 -0.6068  0.8273  0.1992
 1409TIP3   OH228421   3.392   4.113  13.058 -0.1404  0.3123 -0.3659
 1409TIP3    H128422   3.404   4.034  13.005  0.4486  0.7536 -0.8922
 1409TIP3    H228423   3.302   4.140  13.039 -0.7854 -0.8952  0.7441
 1410TIP3   OH228424   6.242   4.410  12.943  0.2350  0.0769  0.1830
 1410TIP3    H128425   6.186   4.358  12.885 -1.0142  1.1053  0.4402
 1410TIP3    H228426   6.318   4.433  12.888 -1.8470  2.7970 -1.8499
 1411TIP3   OH228427   7.745   0.237  13.411 -0.0483  0.8988  0.5998
 1411TIP3    H128428   7.766   0.317  13.460  1.0873  0.0739  1.5264
 1411TIP3    H228429   7.665   0.204  13.452  0.0476  1.0241  0.8913
 1412TIP3   OH228430   6.864   2.463  12.900 -0.0332  0.1780 -0.1278
 1412TIP3    H128431   6.847   2.369  12.910  1.4276 -0.0126  0.8417
 1412TIP3    H228432   6.797   2.505  12.953  0.4447 -0.4161  0.9823
 1413TIP3   OH228433   4.739   1.139  13.573  0.2211 -0.0259 -0.5292
 1413TIP3    H128434   4.762   1.148  13.665 -0.6409  0.1225 -0.3202
 1413TIP3    H228435   4.807   1.187  13.526  0.2102  0.5978  0.0852
 1414TIP3   OH228436   8.307   7.892  14.367 -0.0649  0.6011 -0.0000
 1414TIP3    H128437   8.225   7.874  14.413 -0.7043 -0.6970 -1.5370
 1414TIP3    H228438   8.365   7.930  14.433 -2.3329  2.8928  0.7991
 1415TIP3   OH228439   7.470   3.160  14.332  0.6117  0.3607 -0.0257
 1415TIP3    H128440   7.464   3.166  14.236 -2.2575 -1.2969 -0.0753
 1415TIP3    H228441   7.430   3.241  14.363 -0.2709  0.0441 -0.2925
 1416TIP3   OH228442   1.957   0.516  13.765  0.1481  0.2907 -0.4690
 1416TIP3    H128443   1.891   0.493  13.830  2.3865 -0.0049  1.8690
 1416TIP3    H228444   1.960   0.612  13.766  0.6937  0.2735  0.4769
 1417TIP3   OH228445   1.674   1.403  13.200  0.4720  0.7478  0.8511
 1417TIP3    H128446   1.696   1.362  13.284 -1.0234  0.9280  1.3682
 1417TIP3    H228447   1.600   1.353  13.167  0.6230  1.0926 -0.0535
 1418TIP3   OH228448   4.846   6.220  14.602 -0.6503 -0.0548 -0.1848
 1418TIP3    H128449   4.852   6.242  14.509 -0.3379  0.0514 -0.1413
 1418TIP3    H228450   4.864   6.126  14.606 -3.2242 -0.6264 -0.5105
 1419TIP3   OH228451   6.512   6.649  12.927 -0.6119 -0.4286 -0.3688
 1419TIP3    H128452   6.473   6.563  12.907  1.5543 -1.2718 -1.1956
 1419TIP3    H228453   6.605   6.631  12.939  0.1346  1.9859 -1.8211
 1420TIP3   OH228454   7.997   4.086  13.348 -0.1612  0.0154  0.5520
 1420TIP3    H128455   7.908   4.111  13.322  0.4056  1.3260 -0.2488
 1420TIP3    H228456   8.042   4.169  13.363  1.0024 -0.6153  0.7222
 1421TIP3   OH228457   1.881   3.833  13.576 -0.1732 -0.3808  0.0971
 1421TIP3    H128458   1.795   3.836  13.534 -0.1098  0.7361  0.0255
 1421TIP3    H228459   1.937   3.885  13.519  0.1528  0.3040  1.0386
 1422TIP3   OH228460   5.466   5.626  12.928  0.0121 -0.3941  0.1359
 1422TIP3    H128461   5.446   5.704  12.980  0.0618 -0.6036  0.4711
 1422TIP3    H228462   5.560   5.632  12.911 -0.2606  0.4886 -1.2719
 1423TIP3   OH228463   4.736   7.738  14.020  0.4399  0.2594 -0.1350
 1423TIP3    H128464   4.771   7.727  14.108 -0.4637 -0.0423  0.1920
 1423TIP3    H228465   4.643   7.754  14.032  0.2487 -0.0700 -1.0474
 1424TIP3   OH228466   4.006   4.473  14.613 -0.0885 -0.3496 -0.2821
 1424TIP3    H128467   4.074   4.420  14.655 -0.5134 -0.2237  0.6003
 1424TIP3    H228468   4.029   4.472  14.520 -0.2409 -2.2909 -0.3419
 1425TIP3   OH228469   7.777   4.842  14.312 -0.1873  0.4445 -0.6740
 1425TIP3    H128470   7.865   4.819  14.341 -0.5672 -0.3145 -0.0759
 1425TIP3    H228471   7.723   4.767  14.339 -1.2665  1.5188  0.2861
 1426TIP3   OH228472   2.312   0.596  14.343  0.0590  0.1753  0.2944
 1426TIP3    H128473   2.320   0.681  14.387  2.1745  0.2224 -0.0785
 1426TIP3    H228474   2.252   0.612  14.270  0.0731  1.2354  0.4969
 1427TIP3   OH228475   0.279   4.646  15.348 -0.1654  0.4932  0.3238
 1427TIP3    H128476   0.334   4.615  15.276  1.3229  2.5849  0.4732
 1427TIP3    H228477   0.268   4.570  15.405  1.0876 -0.4410 -0.6394
 1428TIP3   OH228478   1.671   5.307  13.645  0.3975 -0.1624  0.1771
 1428TIP3    H128479   1.612   5.361  13.593  0.9799  2.3659  1.9048
 1428TIP3    H228480   1.686   5.359  13.725  2.6315 -2.0148  1.0820
 1429TIP3   OH228481   6.538   0.885  13.969  0.0126  0.5639 -0.1335
 1429TIP3    H128482   6.448   0.878  13.939 -0.1314  0.4670  0.3147
 1429TIP3    H228483   6.559   0.978  13.962  0.2394  0.4415 -1.2611
 1430TIP3   OH228484   4.910   7.217  14.878  0.5418 -1.3821  0.2655
 1430TIP3    H128485   4.930   7.287  14.817 -1.5397  0.1445  1.2275
 1430TIP3    H228486   4.884   7.143  14.823  0.0582 -0.4955 -0.7287
 1431TIP3   OH228487   4.733   3.609  14.722 -0.1691  0.4360  0.0586
 1431TIP3    H128488   4.783   3.568  14.792 -0.9283  0.6187  0.7206
 1431TIP3    H228489   4.658   3.552  14.709  0.0287  0.3286 -0.7171
 1432TIP3   OH228490   3.687   3.024  13.784 -0.6985  0.5137 -0.3046
 1432TIP3    H128491   3.674   3.018  13.689 -0.7800  0.1567 -0.2730
 1432TIP3    H228492   3.780   3.045  13.795 -0.8624  1.3810 -0.4847
 1433TIP3   OH228493   2.692   3.745  13.481  0.5341 -0.1048 -0.2100
 1433TIP3    H128494   2.785   3.769  13.475  1.4200 -2.8384  0.7145
 1433TIP3    H228495   2.693   3.650  13.496 -2.4149 -0.1149  0.5815
 1434TIP3   OH228496   0.897   0.126  14.761 -0.6077 -0.0426  0.0259
 1434TIP3    H128497   0.803   0.105  14.759 -1.1516  2.1604 -0.0095
 1434TIP3    H228498   0.900   0.221  14.755  1.6658 -0.0831 -0.1687
 1435TIP3   OH228499   0.159   0.037  14.928 -0.3594 -0.9787 -0.3679
 1435TIP3    H128500   0.136   0.083  14.847 -0.2588 -0.0943  0.0958
 1435TIP3    H228501   0.124   0.092  14.998  1.7649 -0.3601  0.3022
 1436TIP3   OH228502   5.030   7.413  14.680  0.2542 -0.5177 -0.1184
 1436TIP3    H128503   5.082   7.366  14.615  1.2341 -1.1524  1.0710
 1436TIP3    H228504   5.092   7.474  14.720 -0.6390  0.7368 -0.6070
 1437TIP3   OH228505   6.574   6.122  15.367  0.4178 -0.2963 -0.3927
 1437TIP3    H128506   6.492   6.081  15.392 -0.8096  1.7242 -0.9220
 1437TIP3    H228507   6.555   6.166  15.284  2.5148 -1.1687 -1.4288
 1438TIP3   OH228508   2.490   6.166  14.098 -0.0586  0.0034  0.3131
 1438TIP3    H128509   2.416   6.108  14.112  0.2614 -0.5925 -0.3803
 1438TIP3    H228510   2.520   6.188  14.186 -1.2645  0.5379  0.6047
 1439TIP3   OH228511   4.255   3.938  14.215 -0.1767  0.3215  0.6554
 1439TIP3    H128512   4.259   3.880  14.139  0.7831  0.9324  0.2091
 1439TIP3    H228513   4.176   3.990  14.202 -0.2399  0.1335  0.2917
 1440TIP3   OH228514   8.424   2.939  14.915 -0.0686  0.3849  0.3173
 1440TIP3    H128515   8.457   3.013  14.863  1.0552  0.8564  1.6414
 1440TIP3    H228516   8.341   2.916  14.874  0.3427  1.3341 -1.1115
 1441TIP3   OH228517   3.471   6.902  15.104  0.1397  0.0202  0.5273
 1441TIP3    H128518   3.559   6.914  15.140  1.3516 -2.3191 -1.3954
 1441TIP3    H228519   3.421   6.866  15.178  0.7337  1.3772  1.6506
 1442TIP3   OH228520   7.708   6.269  14.932 -0.1909  0.0433  0.5643
 1442TIP3    H128521   7.616   6.279  14.955 -0.6416 -2.5115  0.1553
 1442TIP3    H228522   7.708   6.209  14.858  1.6039  3.1057 -2.1936
 1443TIP3   OH228523   6.889   0.005  13.749 -0.4880  0.1346 -0.0498
 1443TIP3    H128524   6.900   0.013  13.655 -0.8113  1.9127  0.0266
 1443TIP3    H228525   6.977   0.018  13.785 -0.5758  0.7067 -0.0460
 1444TIP3   OH228526   2.030   4.576  14.403 -0.1016 -0.6363  0.4135
 1444TIP3    H128527   2.081   4.535  14.334 -1.2274  1.8596 -2.1001
 1444TIP3    H228528   2.093   4.591  14.474  1.9013 -0.4609 -1.3248
 1445TIP3   OH228529   1.060   1.322  15.008 -0.2967  1.0266 -0.3235
 1445TIP3    H128530   1.102   1.302  14.924 -1.1790  1.7425 -0.9465
 1445TIP3    H228531   1.018   1.240  15.033  0.9313  0.4714  0.0132
 1446TIP3   OH228532   1.388   8.181  13.169  0.1795  0.5252  0.1382
 1446TIP3    H128533   1.320   8.193  13.103 -0.1625  1.6898  0.6724
 1446TIP3    H228534   1.357   8.109  13.224 -1.3738  1.9836  1.2642
 1447TIP3   OH228535   8.036   6.827  13.092  0.6428 -0.0750  0.0963
 1447TIP3    H128536   8.045   6.743  13.047 -1.4988 -0.8851  1.0220
 1447TIP3    H228537   8.083   6.889  13.037  0.8864 -1.6021 -1.4981
 1448TIP3   OH228538   3.524   4.621  14.166  0.2622 -0.8447  0.1168
 1448TIP3    H128539   3.487   4.612  14.254  1.2649  1.1157  0.8104
 1448TIP3    H228540   3.455   4.663  14.115  0.5390  0.3512  0.6877
 1449TIP3   OH228541   7.598   1.862  14.398 -0.0053 -1.4365 -0.3087
 1449TIP3    H128542   7.603   1.951  14.362  0.3486 -1.0600  0.6386
 1449TIP3    H228543   7.507   1.836  14.382 -0.4205 -0.4775  0.3658
 1450TIP3   OH228544   1.498   6.246  14.674 -0.0003  0.9975 -0.3755
 1450TIP3    H128545   1.539   6.277  14.594  0.0041  0.8819 -0.4189
 1450TIP3    H228546   1.531   6.156  14.685 -0.5229  0.7726 -0.6096
 1451TIP3   OH228547   7.499   2.398  13.372  0.4006  0.1663  0.7780
 1451TIP3    H128548   7.479   2.437  13.287 -0.5354  0.0688  0.9430
 1451TIP3    H228549   7.586   2.359  13.361  0.1988 -0.0378 -0.2019
 1452TIP3   OH228550   6.869   2.775  12.633  0.4458  0.2945 -0.2343
 1452TIP3    H128551   6.854   2.826  12.712  0.4234  0.2456 -0.2064
 1452TIP3    H228552   6.964   2.778  12.620  1.3269 -4.1709  2.9038
 1453TIP3   OH228553   3.792   1.385  14.970 -0.1145  0.0032  0.7234
 1453TIP3    H128554   3.813   1.446  14.899 -1.3502 -1.6367 -1.1843
 1453TIP3    H228555   3.704   1.410  14.998  0.2291  0.4210  1.4390
 1454TIP3   OH228556   4.868   2.960  13.312  0.7010  0.1377 -0.6094
 1454TIP3    H128557   4.915   3.013  13.248  1.2604  1.6977  0.9974
 1454TIP3    H228558   4.929   2.890  13.336  0.5644 -0.3333 -1.5698
 1455TIP3   OH228559   5.589   7.203  13.435  0.1845 -0.4461 -0.1689
 1455TIP3    H128560   5.559   7.118  13.467  1.0304 -1.3643 -1.6984
 1455TIP3    H228561   5.684   7.195  13.431  0.2799  0.5933 -0.2933
 1456TIP3   OH228562   2.091   0.961  13.710  0.1419 -0.2953  0.5150
 1456TIP3    H128563   2.142   0.935  13.633  0.4592 -0.8378  0.9124
 1456TIP3    H228564   2.130   1.044  13.737 -1.1931  0.9127 -1.0508
 1457TIP3   OH228565   2.736   1.412  14.043  0.1256  0.0923  0.0331
 1457TIP3    H128566   2.654   1.460  14.031  0.6143  1.0441  0.4488
 1457TIP3    H228567   2.721   1.359  14.121 -0.5819 -0.8181 -0.6956
 1458TIP3   OH228568   2.945   6.169  13.011  0.4432  0.5366 -0.1507
 1458TIP3    H128569   3.021   6.139  13.060  0.5657 -0.0203 -0.6657
 1458TIP3    H228570   2.880   6.099  13.023  0.0842  0.9042  0.1048
 1459TIP3   OH228571   7.937   3.837  13.238  0.0848 -0.0705  0.0166
 1459TIP3    H128572   7.979   3.920  13.263  0.9485 -0.5234  0.1333
 1459TIP3    H228573   8.009   3.784  13.203 -0.5348 -0.6165 -0.4572
 1460TIP3   OH228574   3.555   1.704  13.328  0.5134  0.3932  0.3276
 1460TIP3    H128575   3.502   1.766  13.378  0.0274  0.1680  0.0976
 1460TIP3    H228576   3.493   1.639  13.297  0.5893  1.1289 -1.5306
 1461TIP3   OH228577   8.153   0.673  13.412  0.3081 -0.2835 -0.2498
 1461TIP3    H128578   8.097   0.604  13.377  0.9308 -0.6310 -0.5771
 1461TIP3    H228579   8.162   0.735  13.339 -0.4122  0.2605  0.1039
 1462TIP3   OH228580   2.014   5.712  14.665 -0.0344 -0.7601 -0.2700
 1462TIP3    H128581   1.936   5.700  14.719 -0.3158  0.7133 -0.3042
 1462TIP3    H228582   2.069   5.636  14.685 -0.5145 -0.7181  1.4285
 1463TIP3   OH228583   2.616   7.516  13.654 -0.1106  0.5689  0.3367
 1463TIP3    H128584   2.654   7.555  13.732  1.8017  0.3551 -0.4310
 1463TIP3    H228585   2.539   7.470  13.685 -1.9158  3.9650  1.4607
 1464TIP3   OH228586   4.651   3.247  12.968  0.2256 -0.8429 -0.1728
 1464TIP3    H128587   4.678   3.155  12.967  2.6129 -0.1964 -0.4251
 1464TIP3    H228588   4.685   3.281  13.050 -0.2455 -0.0595 -0.2973
 1465TIP3   OH228589   4.361   3.412  14.273 -0.3179  0.6864  0.4961
 1465TIP3    H128590   4.329   3.326  14.245  1.2448  0.4936 -0.8774
 1465TIP3    H228591   4.304   3.474  14.228 -0.3007  0.3498 -0.0094
 1466TIP3   OH228592   8.111   5.832  14.261 -0.4718  1.0460 -0.2679
 1466TIP3    H128593   8.099   5.842  14.356 -0.3046  0.1798 -0.1457
 1466TIP3    H228594   8.181   5.767  14.253 -2.0301 -0.6035 -0.9846
 1467TIP3   OH228595   5.711   2.677  13.193  0.1917 -0.9270  0.0743
 1467TIP3    H128596   5.677   2.634  13.271  0.3462 -0.6008  0.3239
 1467TIP3    H228597   5.758   2.754  13.226  1.8065 -1.7382 -0.1953
 1468TIP3   OH228598   8.151   8.229  13.646 -0.1778  0.2820 -0.1737
 1468TIP3    H128599   8.242   8.240  13.621 -0.2653  1.9369  0.0715
 1468TIP3    H228600   8.138   8.135  13.653  1.1111 -0.0432 -1.6582
 1469TIP3   OH228601   0.890   2.165  13.419 -0.0422 -0.2412  0.2782
 1469TIP3    H128602   0.892   2.125  13.332 -1.4981 -0.0253  0.1207
 1469TIP3    H228603   0.883   2.259  13.402 -1.4139 -0.2635  0.5920
 1470TIP3   OH228604   7.394   0.727  13.891 -0.0801 -0.2420 -0.3354
 1470TIP3    H128605   7.332   0.798  13.906 -0.5824 -0.8717  0.6892
 1470TIP3    H228606   7.343   0.660  13.845  0.2095 -0.2105 -0.7028
 1471TIP3   OH228607   6.028   5.932  13.773  0.2969  0.4375  0.2866
 1471TIP3    H128608   6.044   5.899  13.685 -0.2391  1.0495 -0.0538
 1471TIP3    H228609   6.084   5.879  13.830  1.9255  1.1323 -0.5970
 1472TIP3   OH228610   1.824   3.582  14.865  0.5458  0.0246 -0.1538
 1472TIP3    H128611   1.878   3.613  14.793 -1.1614  1.1970 -0.9858
 1472TIP3    H228612   1.746   3.637  14.862 -1.3006 -2.4208  0.1988
 1473TIP3   OH228613   0.501   5.650  14.340  0.3208 -0.9106 -0.0382
 1473TIP3    H128614   0.502   5.556  14.358 -0.0897 -1.0223 -0.5484
 1473TIP3    H228615   0.589   5.679  14.360  0.1830 -1.2160  1.0633
 1474TIP3   OH228616   7.032   6.785  14.069  0.1781  0.4113  0.2001
 1474TIP3    H128617   6.939   6.780  14.092  0.5131  0.4290  1.6364
 1474TIP3    H228618   7.070   6.705  14.106  0.9255  0.9228  0.5413
 1475TIP3   OH228619   1.821   4.911  13.522  0.7143 -0.3788 -0.2071
 1475TIP3    H128620   1.804   4.969  13.448 -0.0802  0.6827  0.7659
 1475TIP3    H228621   1.735   4.894  13.559  1.1535 -0.3489  0.8642
 1476TIP3   OH228622   2.952   6.574  15.195 -0.3579 -0.3341  0.0896
 1476TIP3    H128623   2.983   6.641  15.255 -0.4814  0.4690 -0.7165
 1476TIP3    H228624   2.880   6.616  15.148  1.1886 -0.0945 -2.2307
 1477TIP3   OH228625   5.247   2.486  14.780  0.9786  0.0839 -0.6037
 1477TIP3    H128626   5.283   2.464  14.694  1.6195  1.7114 -0.7855
 1477TIP3    H228627   5.176   2.547  14.762  1.1514  0.4813  0.0258
 1478TIP3   OH228628   8.111   3.948  14.600  0.2868  0.2528  0.0743
 1478TIP3    H128629   8.045   3.991  14.655 -0.0331 -1.4639  1.1174
 1478TIP3    H228630   8.171   3.907  14.663  0.1504 -1.4276 -0.8310
 1479TIP3   OH228631   2.785   6.426  14.434  0.0411  0.5826  0.0407
 1479TIP3    H128632   2.838   6.372  14.492 -0.1102 -1.3340 -1.5118
 1479TIP3    H228633   2.844   6.451  14.363 -0.5217  0.3946 -0.5003
 1480TIP3   OH228634   3.414   4.462  14.383  0.0585 -0.5605  0.4176
 1480TIP3    H128635   3.427   4.506  14.468 -0.7890  1.1489 -0.2826
 1480TIP3    H228636   3.323   4.432  14.386 -0.2572  0.2878 -0.1942
 1481TIP3   OH228637   2.034   3.951  13.356  0.2494  0.1467 -0.0866
 1481TIP3    H128638   2.124   3.981  13.351  0.3811 -0.3084 -0.6021
 1481TIP3    H228639   2.039   3.856  13.343 -0.3159  0.1387 -0.2969
 1482TIP3   OH228640   2.362   6.547  15.129 -0.1809  0.1328  0.3011
 1482TIP3    H128641   2.371   6.631  15.085  0.6533 -0.0882  0.0495
 1482TIP3    H228642   2.410   6.485  15.075 -2.6314 -0.9828 -0.7568
 1483TIP3   OH228643   0.489   3.196  13.339 -0.2020  0.3579 -0.1759
 1483TIP3    H128644   0.439   3.268  13.300 -0.0926 -0.1478 -1.2945
 1483TIP3    H228645   0.578   3.229  13.346 -0.3928  0.7523  0.4644
 1484TIP3   OH228646   8.044   1.236  15.094  0.1503  0.5010 -0.1367
 1484TIP3    H128647   8.113   1.204  15.035 -1.3996  0.3388 -1.9740
 1484TIP3    H228648   8.062   1.330  15.102  1.2245  0.2696  0.3436
 1485TIP3   OH228649   2.815   7.089  14.852  0.2831 -0.1786 -0.2778
 1485TIP3    H128650   2.887   7.047  14.805  0.6466 -0.2722  0.3468
 1485TIP3    H228651   2.858   7.156  14.906  0.2027 -1.7010  1.7970
 1486TIP3   OH228652   3.362   6.720  12.800 -0.3718 -0.0902 -0.0188
 1486TIP3    H128653   3.357   6.633  12.761 -0.5855 -0.3832  0.6557
 1486TIP3    H228654   3.430   6.713  12.866 -0.3105  0.2887 -0.0401
 1487TIP3   OH228655   7.529   4.985  13.454  0.3354 -0.0401  0.4423
 1487TIP3    H128656   7.515   5.030  13.370  0.3158 -1.0347 -0.1036
 1487TIP3    H228657   7.481   4.903  13.445  1.5012 -0.7813  0.8908
 1488TIP3   OH228658   6.616   7.271  13.205 -0.5858 -0.0252  0.3839
 1488TIP3    H128659   6.702   7.253  13.242  0.2908 -0.0810 -1.5550
 1488TIP3    H228660   6.597   7.195  13.149 -1.2839  0.6009 -0.2573
 1489TIP3   OH228661   2.257   0.737  13.903 -0.1769  0.5462  0.1043
 1489TIP3    H128662   2.346   0.752  13.935 -0.1883  0.5776  0.1213
 1489TIP3    H228663   2.267   0.725  13.808 -0.1089  0.1352  0.1645
 1490TIP3   OH228664   0.614   1.251  15.356  0.0039 -0.3474 -0.1009
 1490TIP3    H128665   0.686   1.224  15.413  0.2579 -1.3412 -0.8657
 1490TIP3    H228666   0.654   1.315  15.296 -0.1325  0.2818  0.4713
 1491TIP3   OH228667   2.762   6.473  12.951  0.0768 -0.3331 -0.0432
 1491TIP3    H128668   2.788   6.563  12.970 -0.9462  0.5280 -2.2703
 1491TIP3    H228669   2.712   6.480  12.870 -0.5870 -2.8515  0.0724
 1492TIP3   OH228670   8.284   0.598  14.227 -0.0926  0.3845 -0.2697
 1492TIP3    H128671   8.284   0.510  14.263  1.1363  0.2980 -0.4523
 1492TIP3    H228672   8.357   0.642  14.272 -0.0029  0.9676 -0.9707
 1493TIP3   OH228673   3.017   7.245  14.982  0.0749 -0.2486  0.2378
 1493TIP3    H128674   3.086   7.292  14.935  0.2274  0.1243  0.8157
 1493TIP3    H228675   3.005   7.295  15.063 -2.0438  0.6432 -0.5601
 1494TIP3   OH228676   6.476   7.807  14.394 -0.0997 -0.3254 -0.8386
 1494TIP3    H128677   6.553   7.860  14.373  1.0929 -1.4621  0.4288
 1494TIP3    H228678   6.504   7.717  14.380 -1.9498 -0.6868 -2.5103
 1495TIP3   OH228679   2.854   3.454  14.797  0.3816  0.7381  0.2447
 1495TIP3    H128680   2.886   3.430  14.710  0.6552 -0.6398  0.6994
 1495TIP3    H228681   2.765   3.484  14.783  0.8847  1.9026 -0.6779
 1496TIP3   OH228682   3.916   7.375  14.961  0.6117 -0.3754  0.2342
 1496TIP3    H128683   3.920   7.287  15.000 -0.5222 -1.0925 -1.1873
 1496TIP3    H228684   3.998   7.383  14.912  0.3576 -0.9991 -0.3169
 1497TIP3   OH228685   7.590   7.330  14.061  0.1800 -0.1135 -0.3408
 1497TIP3    H128686   7.637   7.404  14.099  3.6504 -1.7360 -1.1441
 1497TIP3    H228687   7.642   7.303  13.986 -0.4005 -3.8826  0.3987
 1498TIP3   OH228688   0.373   7.121  14.701  0.2675  0.1741  0.0472
 1498TIP3    H128689   0.328   7.188  14.751 -1.2795  0.2789 -1.4092
 1498TIP3    H228690   0.355   7.039  14.748  0.6461  0.5303  0.8224
 1499TIP3   OH228691   1.571   5.667  13.221 -0.3145 -0.4204 -0.7632
 1499TIP3    H128692   1.604   5.577  13.215  0.9406 -0.0853  0.4944
 1499TIP3    H228693   1.647   5.721  13.200  0.1168  0.3970  2.4879
 1500TIP3   OH228694   1.376   2.662  13.836  0.0364  0.0439 -0.2238
 1500TIP3    H128695   1.358   2.570  13.852  0.0085 -0.0183 -0.6022
 1500TIP3    H228696   1.328   2.708  13.905 -3.4569  0.0296 -2.3640
 1501TIP3   OH228697   2.828   2.369  14.662  0.3001 -0.5944  0.1458
 1501TIP3    H128698   2.734   2.356  14.676  0.4634 -2.5143 -0.2445
 1501TIP3    H228699   2.858   2.409  14.744 -1.0002  1.0438 -0.1248
 1502TIP3   OH228700   0.117   0.358  14.001 -0.0076  0.3772 -0.2161
 1502TIP3    H128701   0.192   0.322  14.048  0.3829 -0.1033 -1.1795
 1502TIP3    H228702   0.153   0.431  13.951 -0.3584  0.7016  0.0066
 1503TIP3   OH228703   4.836   1.857  13.862 -0.2106  0.3666 -0.0643
 1503TIP3    H128704   4.871   1.854  13.773 -0.2373  1.6231 -0.1370
 1503TIP3    H228705   4.898   1.912  13.910 -0.3805 -0.0203  0.6072
 1504TIP3   OH228706   4.328   2.633  13.338 -0.1207  0.0654  0.3295
 1504TIP3    H128707   4.338   2.590  13.253 -1.1066  0.5629 -0.0510
 1504TIP3    H228708   4.313   2.725  13.316  0.2562  0.3070  1.0727
 1505TIP3   OH228709   4.333   6.599  14.323 -0.1158  0.0352 -0.1940
 1505TIP3    H128710   4.311   6.507  14.336  2.5906 -0.6683  0.0440
 1505TIP3    H228711   4.386   6.599  14.243 -0.1379  1.3920 -0.2188
 1506TIP3   OH228712   6.143   5.249  12.882  0.8761  0.2749 -0.0978
 1506TIP3    H128713   6.138   5.265  12.788 -0.9161  3.3022  0.3645
 1506TIP3    H228714   6.227   5.286  12.908  1.0111  0.1761 -0.3833
 1507TIP3   OH228715   3.255   3.447  14.643 -0.0224 -0.4671 -0.2383
 1507TIP3    H128716   3.222   3.369  14.687 -0.2751 -0.8681 -1.1078
 1507TIP3    H228717   3.244   3.517  14.707  0.0125 -1.1006  0.4815
 1508TIP3   OH228718   4.214   3.641  13.145  0.2445  0.5010 -0.1187
 1508TIP3    H128719   4.222   3.736  13.143 -0.1426  0.5452  0.4302
 1508TIP3    H228720   4.142   3.622  13.084  0.8453  0.4976 -0.8371
 1509TIP3   OH228721   7.931   7.060  14.703  0.2234 -0.1447 -0.5834
 1509TIP3    H128722   7.879   7.081  14.626 -0.6135 -0.5559 -0.1453
 1509TIP3    H228723   7.969   7.144  14.730 -1.2450  0.4309 -0.1839
 1510TIP3   OH228724   5.900   2.479  14.082  0.3876  0.0381  0.0165
 1510TIP3    H128725   5.946   2.455  14.163  0.3213 -0.6805 -0.1536
 1510TIP3    H228726   5.816   2.432  14.088  0.0359  0.6459 -0.0843
 1511TIP3   OH228727   1.466   0.496  13.299 -0.0219  0.1383  0.2219
 1511TIP3    H128728   1.460   0.419  13.242  1.0572  0.8042 -0.8427
 1511TIP3    H228729   1.539   0.477  13.358 -0.8342 -0.3458  1.1040
 1512TIP3   OH228730   5.431   8.008  14.477  0.0811 -0.1516  0.2727
 1512TIP3    H128731   5.384   7.999  14.394 -0.9540 -0.8588  0.9163
 1512TIP3    H228732   5.446   8.102  14.486 -2.0903  0.2338  0.5006
 1513TIP3   OH228733   7.672   1.687  14.737 -0.1366 -0.0713  0.1299
 1513TIP3    H128734   7.606   1.749  14.707  0.8240  0.5093 -0.8471
 1513TIP3    H228735   7.680   1.703  14.832  0.3902  1.6110 -0.1634
 1514TIP3   OH228736   5.529   0.458  14.566 -0.0832  0.6093 -0.0644
 1514TIP3    H128737   5.488   0.522  14.508  0.1346  0.6251 -0.2031
 1514TIP3    H228738   5.620   0.454  14.537 -0.2584 -0.3015 -0.5368
 1515TIP3   OH228739   6.543   7.554  14.763 -0.2283 -0.5739 -0.3470
 1515TIP3    H128740   6.564   7.524  14.851  0.6096 -0.9292 -0.6593
 1515TIP3    H228741   6.527   7.648  14.773  0.5255 -0.4843  0.0777
 1516TIP3   OH228742   0.817   7.659  13.945 -0.4812 -0.3989  0.2205
 1516TIP3    H128743   0.779   7.678  14.030 -0.9889 -1.0049  0.1399
 1516TIP3    H228744   0.791   7.569  13.926 -0.8154 -0.1057 -0.8001
 1517TIP3   OH228745   4.197   4.238  13.401 -0.4168 -0.0792 -0.2663
 1517TIP3    H128746   4.151   4.165  13.444 -0.6208 -0.5381 -1.2268
 1517TIP3    H228747   4.168   4.234  13.310  1.0228  0.0304 -0.7569
 1518TIP3   OH228748   2.764   3.638  14.161 -0.2329 -0.5446 -0.1894
 1518TIP3    H128749   2.736   3.677  14.244 -0.5870 -2.4484  0.6385
 1518TIP3    H228750   2.684   3.600  14.124  0.1876 -0.9335 -0.7076
 1519TIP3   OH228751   4.356   7.573  14.858 -0.2222 -0.0459 -0.1515
 1519TIP3    H128752   4.431   7.514  14.855  0.8432  1.2580 -0.0865
 1519TIP3    H228753   4.280   7.515  14.859  0.7499 -1.3882 -0.9122
 1520TIP3   OH228754   6.873   0.914  13.532  0.3724 -0.0683  0.2284
 1520TIP3    H128755   6.854   1.005  13.511 -0.5934 -0.1445  0.7556
 1520TIP3    H228756   6.950   0.893  13.478  0.8351  1.1594  0.3868
 1521TIP3   OH228757   2.914   2.957  14.459 -0.3096 -0.6815  0.1523
 1521TIP3    H128758   2.904   2.923  14.370  0.0468 -1.1481  0.2835
 1521TIP3    H228759   2.999   3.002  14.457 -1.0789  0.8041 -0.2001
 1522TIP3   OH228760   3.877   1.506  14.185  0.5037  0.5590  0.5416
 1522TIP3    H128761   3.942   1.576  14.195  1.0990 -0.1359  1.8090
 1522TIP3    H228762   3.804   1.532  14.240 -0.6741  1.6904 -1.4277
 1523TIP3   OH228763   1.053   2.112  13.655 -0.2974  0.0652  0.0030
 1523TIP3    H128764   1.147   2.097  13.657 -0.2940  0.1026  0.1393
 1523TIP3    H228765   1.037   2.150  13.569 -0.1566  0.2549  0.0587
 1524TIP3   OH228766   5.305   5.827  13.688  0.8459  0.1294  0.1298
 1524TIP3    H128767   5.256   5.746  13.703 -0.4656  0.8146 -0.3298
 1524TIP3    H228768   5.367   5.805  13.619 -1.0151  0.0721 -1.6102
 1525TIP3   OH228769   6.409   4.381  13.169  0.6236  0.4196  0.1866
 1525TIP3    H128770   6.359   4.406  13.091  0.2410  0.4745  0.4481
 1525TIP3    H228771   6.375   4.296  13.194  1.3776 -0.0205 -0.2325
 1526TIP3   OH228772   5.732   6.682  14.466  0.2884  0.5988  0.1315
 1526TIP3    H128773   5.785   6.602  14.467  1.3911  1.2212  3.4423
 1526TIP3    H228774   5.788   6.747  14.424 -0.2685 -0.0704 -1.7591
 1527TIP3   OH228775   3.649   4.228  14.207  0.1362 -0.1996 -0.8006
 1527TIP3    H128776   3.637   4.303  14.265 -0.5113 -0.0768 -1.0766
 1527TIP3    H228777   3.743   4.222  14.192  0.3002 -0.1972  0.2099
 1528TIP3   OH228778   0.362   7.410  15.111 -0.0352  0.7723 -0.0060
 1528TIP3    H128779   0.358   7.325  15.069  2.6703  0.7944 -0.4694
 1528TIP3    H228780   0.277   7.420  15.154 -0.5522 -1.9602 -0.2568
 1529TIP3   OH228781   3.755   2.856  13.267  0.2857  0.0689  0.1012
 1529TIP3    H128782   3.681   2.885  13.214 -1.7418 -0.4118  2.5211
 1529TIP3    H228783   3.832   2.876  13.213 -1.3531  3.6039 -1.2100
 1530TIP3   OH228784   1.575   2.860  14.311 -0.4249 -0.0661  0.0431
 1530TIP3    H128785   1.663   2.846  14.346 -0.5768 -0.0254  0.4425
 1530TIP3    H228786   1.540   2.772  14.299 -1.2130 -0.0756  2.1321
 1531TIP3   OH228787   7.340   4.950  14.961 -0.8105  0.4011  0.2459
 1531TIP3    H128788   7.424   4.917  14.931 -0.8360  1.3797 -0.9629
 1531TIP3    H228789   7.330   4.915  15.049  0.0703 -1.1378 -0.2393
 1532TIP3   OH228790   8.348   8.213  14.233  0.4839  0.2734 -0.1793
 1532TIP3    H128791   8.388   8.209  14.146  2.1563 -0.3070  0.5610
 1532TIP3    H228792   8.386   8.140  14.281 -0.2516  0.6872  1.1032
 1533TIP3   OH228793   4.576   7.425  14.745  0.3797 -0.4708 -0.8396
 1533TIP3    H128794   4.506   7.410  14.682 -0.5688 -1.0436  0.3238
 1533TIP3    H228795   4.653   7.442  14.691 -0.3811 -1.0492 -2.1473
 1534TIP3   OH228796   5.680   2.781  15.132  0.4368 -0.7102  0.2087
 1534TIP3    H128797   5.650   2.775  15.223  1.9796  0.7525  0.8590
 1534TIP3    H228798   5.765   2.737  15.131  0.7577 -0.1057 -0.3487
 1535TIP3   OH228799   8.097   8.335  14.316  0.1709 -0.4006 -0.0240
 1535TIP3    H128800   8.108   8.313  14.408  0.3799 -1.5776 -0.3161
 1535TIP3    H228801   8.171   8.293  14.272 -0.3481 -0.5105 -0.8182
 1536TIP3   OH228802   1.267   0.934  12.808  0.1172  0.8425 -0.7202
 1536TIP3    H128803   1.260   1.028  12.791  2.7832  1.5651  1.5184
 1536TIP3    H228804   1.352   0.910  12.773 -1.2834 -1.2963 -3.0185
 1537TIP3   OH228805   3.826   1.673  13.448  0.0164  0.5742  0.6707
 1537TIP3    H128806   3.777   1.755  13.452  0.3550  0.7803  0.7064
 1537TIP3    H228807   3.795   1.630  13.369  0.1490  0.9457  0.4086
 1538TIP3   OH228808   2.309   3.319  14.934  0.2737 -0.5893  0.1968
 1538TIP3    H128809   2.384   3.347  14.882 -1.4912 -0.4530 -2.4446
 1538TIP3    H228810   2.242   3.386  14.920 -1.3586 -2.1445  0.0492
 1539TIP3   OH228811   1.836   2.494  14.627 -0.5965  0.5040 -0.3204
 1539TIP3    H128812   1.786   2.498  14.546 -0.1875  1.0574 -0.5431
 1539TIP3    H228813   1.923   2.525  14.604 -0.0198 -0.7898 -0.0199
 1540TIP3   OH228814   2.800   4.728  13.828 -0.7050  0.2066 -0.1307
 1540TIP3    H128815   2.776   4.706  13.918  0.2212 -0.5915 -0.0639
 1540TIP3    H228816   2.805   4.824  13.827  0.0305  0.1893  0.8769
 1541TIP3   OH228817   7.589   5.595  14.965 -0.1286  0.0686 -0.3952
 1541TIP3    H128818   7.501   5.630  14.981  0.4023  0.8243  1.0377
 1541TIP3    H228819   7.588   5.508  15.004  0.0758  0.5054  0.6054
 1542TIP3   OH228820   4.998   0.261  13.947  0.2048  0.3585 -0.0363
 1542TIP3    H128821   5.071   0.298  13.996 -0.9942  0.5607  1.6698
 1542TIP3    H228822   4.938   0.335  13.933 -0.1074  0.0088 -0.6059
 1543TIP3   OH228823   5.766   7.344  14.987  0.2421  0.1318  0.1618
 1543TIP3    H128824   5.804   7.257  14.977  0.7053  0.4670 -1.3541
 1543TIP3    H228825   5.671   7.330  14.978  0.0605 -0.4940  2.3696
 1544TIP3   OH228826   8.284   1.207  13.545 -0.0877 -0.3033  0.4156
 1544TIP3    H128827   8.263   1.206  13.638  2.4801  1.0990  1.1157
 1544TIP3    H228828   8.376   1.234  13.542 -0.3279  0.4855 -2.5757
 1545TIP3   OH228829   4.487   3.941  13.783  0.3228  0.1382 -0.2970
 1545TIP3    H128830   4.525   3.900  13.861 -0.2815  0.3032  0.0909
 1545TIP3    H228831   4.415   3.883  13.758 -1.1280  1.3585  0.7879
 1546TIP3   OH228832   0.702   2.950  14.608  0.5197 -0.2935  0.1341
 1546TIP3    H128833   0.673   3.019  14.549 -1.0984 -2.3326 -1.5899
 1546TIP3    H228834   0.703   2.991  14.694 -3.4907  1.1269 -0.3063
 1547TIP3   OH228835   0.042   4.821  15.532 -0.4338  0.2129 -0.3044
 1547TIP3    H128836  -0.038   4.834  15.582 -1.4253 -0.5448 -1.6305
 1547TIP3    H228837   0.013   4.818  15.441  0.9212 -1.4647 -0.7206
 1548TIP3   OH228838   5.977   2.565  12.952  0.3977 -0.4381 -0.1888
 1548TIP3    H128839   5.931   2.485  12.926  1.1174 -1.1497  0.6588
 1548TIP3    H228840   6.068   2.538  12.964  0.9792  0.8616 -1.4221
 1549TIP3   OH228841   3.856   0.333  14.690  0.5284  0.1048 -0.1293
 1549TIP3    H128842   3.914   0.257  14.693  0.9422  0.3674 -0.9513
 1549TIP3    H228843   3.874   0.373  14.605 -0.9804  0.1102 -0.4829
 1550TIP3   OH228844   1.466   0.312  14.096 -0.2573 -0.0035  0.0261
 1550TIP3    H128845   1.529   0.376  14.128  2.4003 -1.1282 -2.5481
 1550TIP3    H228846   1.427   0.353  14.019 -1.5714  0.0474  0.6883
 1551TIP3   OH228847   7.197   6.475  15.017 -0.4982 -0.1959 -0.2467
 1551TIP3    H128848   7.117   6.443  15.058 -0.8836 -1.0518 -1.5808
 1551TIP3    H228849   7.177   6.476  14.923  1.9540 -3.3985 -0.9875
 1552TIP3   OH228850   4.606   1.341  14.706  0.1932 -0.0096 -0.2037
 1552TIP3    H128851   4.605   1.380  14.618  0.5032  1.2171  0.3138
 1552TIP3    H228852   4.681   1.281  14.704 -0.0311 -0.2793 -0.8929
 1553TIP3   OH228853   7.501   6.827  14.437 -0.4651  0.1734 -0.2371
 1553TIP3    H128854   7.569   6.802  14.499 -0.6215 -0.6781 -0.4050
 1553TIP3    H228855   7.429   6.858  14.492 -0.1779  0.4983 -0.0387
 1554TIP3   OH228856   3.888   7.990  14.022 -0.1721  0.0598  0.0564
 1554TIP3    H128857   3.894   7.911  14.075 -3.4580 -0.5523 -0.2475
 1554TIP3    H228858   3.882   8.061  14.086 -1.4320 -0.4083  0.4895
 1555TIP3   OH228859   7.464   8.214  14.513 -0.3051  0.2070  0.0488
 1555TIP3    H128860   7.416   8.209  14.595 -2.9662  1.2951 -1.2947
 1555TIP3    H228861   7.495   8.304  14.508 -1.7003  0.6779 -0.8507
 1556TIP3   OH228862   5.078   2.140  13.275  0.4028 -0.1706  0.2174
 1556TIP3    H128863   5.017   2.204  13.311  0.1897  0.1670 -0.7137
 1556TIP3    H228864   5.165   2.179  13.287  0.1341  1.4879 -2.5635
 1557TIP3   OH228865   4.768   0.468  14.199  0.1125  0.4073  0.4188
 1557TIP3    H128866   4.830   0.463  14.126  0.8152  0.0170  1.0354
 1557TIP3    H228867   4.823   0.476  14.277 -0.6206  0.3344  0.9536
 1558TIP3   OH228868   2.434   5.517  13.822  0.0274  0.2913 -0.5488
 1558TIP3    H128869   2.431   5.527  13.726 -2.4819 -0.3709 -0.5957
 1558TIP3    H228870   2.451   5.605  13.855 -0.4720  0.7778 -1.5549
 1559TIP3   OH228871   3.535   0.663  13.466 -0.3781  0.3971 -0.0350
 1559TIP3    H128872   3.502   0.680  13.378  0.4851 -0.7942 -0.6168
 1559TIP3    H228873   3.508   0.573  13.486  0.1854  0.3421  0.5529
 1560TIP3   OH228874   8.131   3.605  15.091 -0.1966 -0.1790  0.2138
 1560TIP3    H128875   8.112   3.699  15.089  0.1086 -0.0799  1.2670
 1560TIP3    H228876   8.069   3.566  15.030 -1.2524  0.5536  0.7844
 1561TIP3   OH228877   4.947   4.968  14.572  0.1156 -0.0216 -0.6569
 1561TIP3    H128878   4.940   4.887  14.522  0.1943 -0.6527  0.3275
 1561TIP3    H228879   5.015   4.950  14.637 -0.5287  0.5054  0.1759
 1562TIP3   OH228880   1.147   5.426  13.499  0.2276  0.2744  0.1432
 1562TIP3    H128881   1.209   5.479  13.451 -0.0280 -1.2789 -2.0336
 1562TIP3    H228882   1.137   5.471  13.583  2.3028  1.9370 -0.4194
 1563TIP3   OH228883   6.468   5.663  15.102 -0.4237 -0.5208  0.0922
 1563TIP3    H128884   6.498   5.593  15.160 -0.7749 -0.8118 -0.0738
 1563TIP3    H228885   6.421   5.618  15.032  0.3676 -0.2082 -0.6591
 1564TIP3   OH228886   4.463   6.645  15.010  1.0254  0.1307  0.0896
 1564TIP3    H128887   4.503   6.647  14.923  1.1965  2.2269  0.1691
 1564TIP3    H228888   4.528   6.685  15.068 -0.4411  2.0056  0.5267
 1565TIP3   OH228889   3.270   3.421  14.199  0.5774 -0.2866  0.0444
 1565TIP3    H128890   3.231   3.507  14.185  3.1601  0.8205 -0.7737
 1565TIP3    H228891   3.266   3.379  14.113  0.5488 -0.4573  0.1271
 1566TIP3   OH228892   6.110   5.421  14.305  0.2167  0.1177  0.0637
 1566TIP3    H128893   6.151   5.412  14.391 -0.8977 -1.3268  0.4755
 1566TIP3    H228894   6.176   5.466  14.252  1.8787 -1.1125  0.9967
 1567TIP3   OH228895   6.304   1.349  13.110  0.2810 -0.2408  0.6327
 1567TIP3    H128896   6.251   1.399  13.048  1.8416 -1.4704 -1.9007
 1567TIP3    H228897   6.392   1.385  13.100  0.8058 -1.3307  1.1544
 1568TIP3   OH228898   2.565   3.424  12.975 -0.1657  0.3573 -0.5414
 1568TIP3    H128899   2.608   3.438  12.890  0.1256  1.0198 -0.2968
 1568TIP3    H228900   2.514   3.344  12.964 -0.2801  0.5402 -1.4039
 1569TIP3   OH228901   6.355   2.712  13.771 -0.0679  0.2103  0.3838
 1569TIP3    H128902   6.309   2.734  13.690 -0.8381 -1.8773  0.1921
 1569TIP3    H228903   6.448   2.711  13.747 -0.0902  1.7163  0.1053
 1570TIP3   OH228904   7.027   7.483  13.301  0.1576  0.4174  0.1689
 1570TIP3    H128905   7.060   7.435  13.226  1.4957  0.0306  0.9672
 1570TIP3    H228906   6.957   7.428  13.336  1.0487 -0.5271  0.5245
 1571TIP3   OH228907   3.461   4.861  14.898  0.6074 -0.2288  0.2560
 1571TIP3    H128908   3.393   4.808  14.940  1.2011 -1.3790 -0.1688
 1571TIP3    H228909   3.526   4.797  14.869  2.0261  0.8553  0.9112
 1572TIP3   OH228910   1.127   4.418  12.989  0.0453 -0.2246 -0.1025
 1572TIP3    H128911   1.156   4.497  12.944 -0.0873 -0.7960 -1.2116
 1572TIP3    H228912   1.208   4.381  13.026  0.2294 -0.0295 -0.3104
 1573TIP3   OH228913   6.253   0.078  14.600 -0.8464 -0.1383  0.5086
 1573TIP3    H128914   6.320   0.146  14.611  0.2512 -1.1092  0.1151
 1573TIP3    H228915   6.265   0.020  14.676 -2.2124  0.4448  1.1979
 1574TIP3   OH228916   3.237   0.998  13.441 -0.1402  0.7895 -0.0181
 1574TIP3    H128917   3.212   0.949  13.520  0.4957 -1.3759 -1.0752
 1574TIP3    H228918   3.188   0.956  13.371  0.2451  1.8669 -0.9549
 1575TIP3   OH228919   4.151   7.444  14.517 -0.0752 -0.5781 -0.2408
 1575TIP3    H128920   4.240   7.415  14.537  0.1053 -0.9519 -1.5017
 1575TIP3    H228921   4.141   7.527  14.564  0.1519 -1.5867  1.6957
 1576TIP3   OH228922   7.269   3.842  13.726  0.0196  0.5279 -0.1925
 1576TIP3    H128923   7.237   3.755  13.701 -0.2954  0.7762 -0.6786
 1576TIP3    H228924   7.203   3.876  13.786 -0.4458  0.8823 -0.8898
 1577TIP3   OH228925   2.906   6.147  14.296 -0.0184 -0.1027  0.0506
 1577TIP3    H128926   2.903   6.200  14.376 -1.8840 -1.4899  0.9801
 1577TIP3    H228927   2.987   6.097  14.304 -0.3771 -0.5300  1.3220
 1578TIP3   OH228928   5.842   1.319  14.375  0.0113  0.0526  0.6252
 1578TIP3    H128929   5.886   1.234  14.375 -1.1889 -0.6016 -0.4286
 1578TIP3    H228930   5.878   1.365  14.299 -1.3714 -0.6582 -0.5081
 1579TIP3   OH228931   5.542   2.274  13.368  0.2747  0.5839 -0.3243
 1579TIP3    H128932   5.529   2.266  13.462  1.3509  1.1346 -0.1204
 1579TIP3    H228933   5.620   2.222  13.349  0.0146  0.3978 -0.9360
 1580TIP3   OH228934   0.917   3.021  14.086 -0.0233 -0.2651  0.1674
 1580TIP3    H128935   0.915   3.062  13.999 -1.7531  0.5596  0.5477
 1580TIP3    H228936   0.935   3.094  14.146 -0.6406 -0.4820  0.6332
 1581TIP3   OH228937   3.619   6.931  15.367 -0.3500 -0.1552  0.0835
 1581TIP3    H128938   3.633   7.015  15.323 -0.7724  0.1005  0.4298
 1581TIP3    H228939   3.705   6.905  15.399 -0.2233  0.1578 -0.0051
 1582TIP3   OH228940   1.680   3.343  13.259 -0.1258 -0.0593  0.4735
 1582TIP3    H128941   1.736   3.307  13.327 -0.9017 -2.1042  0.1177
 1582TIP3    H228942   1.637   3.266  13.220 -0.3525  1.1030 -1.7359
 1583TIP3   OH228943   0.138   6.206  15.188 -0.1177 -0.0282 -0.5208
 1583TIP3    H128944   0.155   6.156  15.109  2.9248  0.0749 -0.0711
 1583TIP3    H228945   0.225   6.233  15.218 -1.2105  0.6069  2.4195
 1584TIP3   OH228946   2.677   1.902  14.996  0.0243  0.3983  0.1305
 1584TIP3    H128947   2.591   1.860  15.001  0.8387 -1.2273  1.5679
 1584TIP3    H228948   2.713   1.894  15.084  2.3368 -0.5375 -0.8028
 1585TIP3   OH228949   8.041   2.923  14.509 -0.7412  0.4231  0.1695
 1585TIP3    H128950   7.977   2.855  14.527 -0.4035  0.1860  0.4819
 1585TIP3    H228951   7.989   3.003  14.497 -1.2468 -0.1408 -1.6537
 1586TIP3   OH228952   1.943   2.284  14.791 -0.1739 -0.2773 -0.3186
 1586TIP3    H128953   1.902   2.361  14.752  1.9985  0.8565 -0.4722
 1586TIP3    H228954   2.008   2.256  14.726  0.8317 -0.6778  0.8348
 1587TIP3   OH228955   6.716   0.471  12.556 -0.6061  0.6936 -0.2931
 1587TIP3    H128956   6.707   0.377  12.536 -1.4784  1.1288 -2.1380
 1587TIP3    H228957   6.749   0.473  12.646 -1.8891 -1.3835  0.3047
 1588TIP3   OH228958   1.969   2.058  12.699  0.0728  0.6791  0.2087
 1588TIP3    H128959   1.973   2.064  12.795 -0.4340  1.7452  0.1826
 1588TIP3    H228960   1.876   2.069  12.678  0.4159  2.8503 -0.5030
 1589TIP3   OH228961   5.857   5.836  15.011 -0.5516 -0.6032 -0.0013
 1589TIP3    H128962   5.771   5.878  15.003  0.2680  0.8403 -2.2534
 1589TIP3    H228963   5.897   5.847  14.925  2.0164 -0.9711  1.0546
 1590TIP3   OH228964   0.792   1.692  13.297  0.3197  0.6292  0.0012
 1590TIP3    H128965   0.773   1.644  13.216  0.0150  1.2205 -0.2819
 1590TIP3    H228966   0.749   1.776  13.286  2.1442  1.5964 -0.1756
 1591TIP3   OH228967   2.282   3.510  12.920 -0.2161 -0.3802 -0.2559
 1591TIP3    H128968   2.279   3.583  12.982  1.3868  0.0615 -0.6347
 1591TIP3    H228969   2.343   3.540  12.852  0.0168 -1.8450 -0.7240
 1592TIP3   OH228970   5.973   2.027  12.776  0.2104  0.4926  0.6910
 1592TIP3    H128971   5.944   1.981  12.697  0.3840 -0.2081  1.0237
 1592TIP3    H228972   5.896   2.031  12.832 -0.0602  1.5012  0.2547
 1593TIP3   OH228973   7.436   1.621  13.791  0.3851  0.7574 -0.1056
 1593TIP3    H128974   7.419   1.702  13.838  1.3964  0.8334  0.1549
 1593TIP3    H228975   7.519   1.636  13.746  0.1760  0.1542 -0.7195
 1594TIP3   OH228976   2.614   4.159  13.042  0.8182 -0.5378 -0.3503
 1594TIP3    H128977   2.614   4.251  13.017  1.1872 -0.1289  1.0697
 1594TIP3    H228978   2.612   4.112  12.958 -1.4944  0.7179 -1.0990
 1595TIP3   OH228979   0.020   7.677  14.302 -0.1364 -0.3148 -0.0796
 1595TIP3    H128980  -0.023   7.761  14.288  0.7511  0.0888 -0.4869
 1595TIP3    H228981  -0.051   7.614  14.312 -0.8279  0.1808 -1.6427
 1596TIP3   OH228982   2.674   6.714  14.163 -0.4898 -0.2050 -0.4069
 1596TIP3    H128983   2.622   6.791  14.184 -0.8770 -0.7034  0.5233
 1596TIP3    H228984   2.639   6.682  14.080 -1.2233 -0.1532 -0.1208
 1597TIP3   OH228985   4.559   5.055  13.983  0.3737 -0.5617 -0.3028
 1597TIP3    H128986   4.540   5.138  13.941  0.3300 -0.8674 -0.8947
 1597TIP3    H228987   4.630   5.075  14.045  0.5772 -0.1520 -0.6655
 1598TIP3   OH228988   5.604   4.481  14.408 -0.3807 -0.0280 -0.3008
 1598TIP3    H128989   5.655   4.450  14.483 -0.9068  2.0370  0.9896
 1598TIP3    H228990   5.514   4.455  14.428 -0.9785  2.7398  1.2192
 1599TIP3   OH228991   6.621   3.012  13.495  0.2917 -0.1471 -0.2924
 1599TIP3    H128992   6.591   2.965  13.417  0.6421  0.4467 -0.7892
 1599TIP3    H228993   6.628   2.944  13.562 -0.2080 -0.6300 -0.7198
 1600TIP3   OH228994   7.800   8.164  13.257 -0.0427 -0.1279 -0.4833
 1600TIP3    H128995   7.829   8.236  13.313 -0.2532  0.4372 -1.0829
 1600TIP3    H228996   7.880   8.132  13.215 -0.0468  0.2577 -0.7887
 1601TIP3   OH228997   3.666   5.378  13.465 -0.1670  0.2628 -0.8585
 1601TIP3    H128998   3.748   5.387  13.513  0.4364  2.6717 -2.1837
 1601TIP3    H228999   3.598   5.395  13.531  0.4265 -0.5655 -0.0063
 1602TIP3   OH229000   6.571   0.694  12.701  0.3422 -0.0560 -0.3186
 1602TIP3    H129001   6.595   0.615  12.653  1.1503 -1.2345  1.8649
 1602TIP3    H229002   6.571   0.667  12.793  0.3065  2.4089  0.4892
 1603TIP3   OH229003   6.796   7.587  14.573 -0.3328  0.2842  0.0344
 1603TIP3    H129004   6.737   7.591  14.649  0.8968 -1.3837  1.1555
 1603TIP3    H229005   6.772   7.505  14.529 -0.0590  0.5056 -0.5321
 1604TIP3   OH229006   1.743   7.884  14.980 -0.3630  0.1766  0.2782
 1604TIP3    H129007   1.668   7.942  14.968 -0.7902 -0.5917 -1.0881
 1604TIP3    H229008   1.791   7.889  14.897 -0.1161 -0.9815  0.3300
 1605TIP3   OH229009   3.552   3.368  14.927 -0.5660  0.3561  0.1512
 1605TIP3    H129010   3.542   3.353  14.833  0.9367 -1.3962  0.2142
 1605TIP3    H229011   3.521   3.287  14.967 -0.6487  0.8716  1.1518
 1606TIP3   OH229012   4.445   5.429  12.966  0.0687  0.3041  0.5388
 1606TIP3    H129013   4.503   5.424  12.890 -0.8485 -2.1557 -0.0985
 1606TIP3    H229014   4.371   5.480  12.937  1.2256  2.3202  0.9388
 1607TIP3   OH229015   1.234   8.410  14.153  0.0726  0.4496  0.1137
 1607TIP3    H129016   1.226   8.336  14.213 -1.0503  0.2965 -0.2009
 1607TIP3    H229017   1.275   8.374  14.075 -1.9912 -0.2605 -0.6921
 1608TIP3   OH229018   3.275   1.025  13.809 -0.2689 -0.0272  0.5454
 1608TIP3    H129019   3.226   1.086  13.865  0.5507 -0.0041  1.2461
 1608TIP3    H229020   3.209   0.962  13.779 -1.0791  1.0367  0.0156
 1609TIP3   OH229021   2.449   0.450  14.852 -0.6735  0.4767 -0.2149
 1609TIP3    H129022   2.471   0.529  14.803  1.1744  0.4932  0.5856
 1609TIP3    H229023   2.385   0.479  14.917 -0.0634  1.3104  0.0245
 1610TIP3   OH229024   0.991   6.083  13.267 -0.0255  0.4681 -0.3738
 1610TIP3    H129025   1.030   6.083  13.179 -2.6326 -3.7558 -1.8387
 1610TIP3    H229026   1.042   6.018  13.316 -1.9511 -1.4628 -0.7603
 1611TIP3   OH229027   7.008   6.031  14.759  0.6367 -0.1581 -0.5388
 1611TIP3    H129028   6.987   6.106  14.704  0.5560 -1.3805 -2.2404
 1611TIP3    H229029   6.953   5.960  14.726  2.0003 -1.4517 -0.1634
 1612TIP3   OH229030   2.726   2.509  14.025  0.2045  0.1805  0.5578
 1612TIP3    H129031   2.729   2.505  13.929  1.1210 -0.2022  0.6006
 1612TIP3    H229032   2.662   2.441  14.049  1.0786 -0.7654  0.2823
 1613TIP3   OH229033   3.225   1.755  13.634 -0.1034  0.1437 -0.0811
 1613TIP3    H129034   3.189   1.842  13.648  0.9925  1.2014 -3.1390
 1613TIP3    H229035   3.154   1.695  13.656 -2.1507  1.9577 -1.4212
 1614TIP3   OH229036   5.066   2.669  14.689  0.5150  0.2084 -0.0082
 1614TIP3    H129037   5.106   2.681  14.603  1.0605 -0.3528  0.1627
 1614TIP3    H229038   5.005   2.742  14.697  0.3320  0.1680 -0.9427
 1615TIP3   OH229039   5.259   1.301  12.943 -0.1717 -0.3598 -0.0562
 1615TIP3    H129040   5.233   1.383  12.984  0.3080 -0.6355  0.8424
 1615TIP3    H229041   5.178   1.264  12.909 -0.4409  0.3176 -0.1501
 1616TIP3   OH229042   4.302   5.815  13.618 -0.0875  0.2360  0.3208
 1616TIP3    H129043   4.378   5.808  13.676 -1.0733 -2.1281  1.4738
 1616TIP3    H229044   4.338   5.803  13.530  0.7044 -4.0860  1.0093
 1617TIP3   OH229045   6.359   2.576  14.120  0.2356 -0.1318 -0.4195
 1617TIP3    H129046   6.310   2.502  14.084  1.6211 -1.1588 -0.2507
 1617TIP3    H229047   6.359   2.641  14.049 -1.0192 -0.2583 -0.5576
 1618TIP3   OH229048   1.391   1.136  14.220 -0.4137  0.2913  0.3035
 1618TIP3    H129049   1.376   1.150  14.314 -0.6140 -0.7886  0.4479
 1618TIP3    H229050   1.304   1.121  14.184 -0.2866  0.1731  0.0401
 1619TIP3   OH229051   5.403   3.851  14.214 -0.1779  0.4323  0.2803
 1619TIP3    H129052   5.445   3.804  14.141  0.5057  2.1870 -0.5194
 1619TIP3    H229053   5.459   3.832  14.289 -0.4456 -0.7599  0.2068
 1620TIP3   OH229054   0.146   4.813  12.830 -0.4128 -0.2147  0.4155
 1620TIP3    H129055   0.073   4.875  12.839 -1.0571 -0.8939 -0.0424
 1620TIP3    H229056   0.224   4.866  12.847 -0.9472  0.7376  0.0021
 1621TIP3   OH229057   5.405   5.889  13.938  0.1505  0.3560  0.1615
 1621TIP3    H129058   5.374   5.975  13.967  0.5898  0.6256 -0.1558
 1621TIP3    H229059   5.365   5.877  13.852  1.4416  1.0095 -0.5561
 1622TIP3   OH229060   0.141   6.810  14.169  0.2509 -0.4876 -0.2058
 1622TIP3    H129061   0.204   6.761  14.117 -0.6969 -2.6916  0.6005
 1622TIP3    H229062   0.185   6.823  14.253  1.0401  1.3710 -0.8609
 1623TIP3   OH229063   1.813   2.964  13.313  0.7234 -0.4862  0.1689
 1623TIP3    H129064   1.764   3.042  13.340  0.2069 -1.1366  1.1594
 1623TIP3    H229065   1.877   2.951  13.383  0.6688 -1.0739  0.1079
 1624TIP3   OH229066   7.086   5.137  12.935  0.1732  0.7174  0.4520
 1624TIP3    H129067   7.012   5.105  12.882 -0.2602  2.6713 -0.2014
 1624TIP3    H229068   7.133   5.058  12.960 -2.0542 -0.5994  0.7633
 1625TIP3   OH229069   6.540   7.147  14.294 -0.0467 -0.2124  0.0967
 1625TIP3    H129070   6.531   7.060  14.332 -0.0938 -0.5856 -0.7513
 1625TIP3    H229071   6.457   7.164  14.250 -0.4980  0.7756  1.2624
 1626TIP3   OH229072   3.985   3.746  15.102  0.4943  0.4716 -0.8613
 1626TIP3    H129073   3.897   3.729  15.137  1.4158 -1.2334  0.8459
 1626TIP3    H229074   3.978   3.726  15.009 -0.9167  0.3591 -0.7588
 1627TIP3   OH229075   3.774   2.213  13.787 -0.0532  0.3063 -0.5073
 1627TIP3    H129076   3.826   2.189  13.711 -0.3837 -1.3767 -0.2346
 1627TIP3    H229077   3.748   2.130  13.826  0.1779  1.1224  1.4986
 1628TIP3   OH229078   7.399   2.371  14.836  0.0564 -0.7786  0.3984
 1628TIP3    H129079   7.345   2.330  14.769 -0.8482  1.6723 -0.4752
 1628TIP3    H229080   7.476   2.315  14.843 -1.1807 -2.6779 -0.5516
 1629TIP3   OH229081   5.248   5.652  14.053  0.4475  0.3610  0.2281
 1629TIP3    H129082   5.326   5.690  14.013 -0.2375 -0.5207 -2.1181
 1629TIP3    H229083   5.273   5.635  14.143  2.3630  1.7441  0.0189
 1630TIP3   OH229084   0.437   6.588  13.038  0.2401 -0.2136  0.2091
 1630TIP3    H129085   0.358   6.537  13.022  0.8386 -1.9976  2.3884
 1630TIP3    H229086   0.503   6.523  13.063  1.8088  1.4085  0.4987
 1631TIP3   OH229087   7.069   0.612  14.203 -0.2008  0.0743 -0.0652
 1631TIP3    H129088   6.995   0.589  14.146 -0.8566 -2.1432  1.5106
 1631TIP3    H229089   7.123   0.533  14.204  0.0886  0.2537  1.8658
 1632TIP3   OH229090   2.749   4.736  13.552 -0.5444  0.4555  0.1135
 1632TIP3    H129091   2.716   4.818  13.518  0.7506  1.1142  0.3827
 1632TIP3    H229092   2.775   4.755  13.642 -1.2165 -0.5268  0.5378
 1633TIP3   OH229093   0.673   0.497  14.194  0.1296  0.6179 -0.7263
 1633TIP3    H129094   0.751   0.512  14.141  1.2553 -0.4430  0.5544
 1633TIP3    H229095   0.601   0.535  14.142  1.5844  2.4910 -1.5128
 1634TIP3   OH229096   7.400   5.688  13.918 -0.7774  0.3244  0.2665
 1634TIP3    H129097   7.483   5.692  13.965 -1.5160 -0.9005  1.7726
 1634TIP3    H229098   7.416   5.628  13.845 -0.3883 -0.0435  0.6534
 1635TIP3   OH229099   2.910   7.884  15.320 -0.3595 -0.8405  0.0228
 1635TIP3    H129100   2.968   7.880  15.244  0.4088 -2.8416  0.6249
 1635TIP3    H229101   2.828   7.920  15.287  1.0081  1.5578 -0.9836
 1636TIP3   OH229102   7.114   1.109  14.914 -0.4160 -0.3122  0.0694
 1636TIP3    H129103   7.186   1.049  14.933  0.7452  0.4189 -1.7701
 1636TIP3    H229104   7.061   1.063  14.849 -0.2490  0.1224 -0.3785
 1637TIP3   OH229105   5.608   3.985  14.645 -0.3194 -0.6069  0.4863
 1637TIP3    H129106   5.644   3.898  14.625 -0.8833 -0.8837  0.6428
 1637TIP3    H229107   5.615   3.992  14.740 -1.2752 -0.9398  0.5891
 1638TIP3   OH229108   6.605   4.823  14.874  0.1248  0.6891 -0.0226
 1638TIP3    H129109   6.513   4.848  14.888  0.8990  2.6704  2.3665
 1638TIP3    H229110   6.653   4.906  14.877  1.9683 -0.2487 -1.8142
 1639TIP3   OH229111   2.973   6.259  14.539  0.2900  0.1754 -0.2191
 1639TIP3    H129112   3.041   6.298  14.594  0.9332 -1.0799 -0.0749
 1639TIP3    H229113   3.006   6.171  14.519 -2.5078 -1.6330  2.2639
 1640TIP3   OH229114   0.877   0.561  14.473  0.0776 -0.3415  0.5175
 1640TIP3    H129115   0.863   0.649  14.438 -2.9464 -0.8922  0.0569
 1640TIP3    H229116   0.890   0.506  14.396  0.1638 -0.5779  0.6987
 1641TIP3   OH229117   8.137   6.350  14.501  0.1618  0.6971  0.6273
 1641TIP3    H129118   8.182   6.323  14.421 -2.9918  0.0583 -1.0586
 1641TIP3    H229119   8.111   6.268  14.543  0.1448  1.0618  1.3541
 1642TIP3   OH229120   2.165   6.901  14.087  0.2903 -0.2973 -0.3676
 1642TIP3    H129121   2.205   6.970  14.141 -0.7385  0.0263  0.0045
 1642TIP3    H229122   2.134   6.836  14.150  1.8743 -1.4817 -0.7487
 1643TIP3   OH229123   7.303   5.169  14.685 -0.0253 -0.3959  0.6222
 1643TIP3    H129124   7.393   5.196  14.665 -0.0014 -0.8005  0.1764
 1643TIP3    H229125   7.296   5.181  14.780  0.4406 -0.1861  0.6341
 1644TIP3   OH229126   2.640   5.185  15.200 -0.1151  0.2758  0.1499
 1644TIP3    H129127   2.687   5.254  15.153 -0.5886 -0.1172 -0.9548
 1644TIP3    H229128   2.561   5.228  15.233 -0.1744  0.3831 -0.1223
 1645TIP3   OH229129   1.910   7.950  13.346 -0.3560 -0.1269  0.1262
 1645TIP3    H129130   1.956   7.942  13.262  0.5444  0.7982  0.5197
 1645TIP3    H229131   1.872   8.038  13.344  2.1513  1.1107  1.8637
 1646TIP3   OH229132   1.184   8.029  13.585 -1.0358 -0.1067  0.5582
 1646TIP3    H129133   1.146   7.965  13.645 -2.5968 -0.9967 -1.2516
 1646TIP3    H229134   1.146   8.113  13.612 -0.3221 -0.1922  1.8834
 1647TIP3   OH229135   1.284   1.417  13.541 -0.1929  0.3393 -0.3742
 1647TIP3    H129136   1.324   1.491  13.587 -0.1107 -0.5023  0.9680
 1647TIP3    H229137   1.340   1.342  13.562 -0.6217 -0.2370 -1.1954
 1648TIP3   OH229138   4.077   7.879  14.720 -0.2130  0.1200 -0.3736
 1648TIP3    H129139   4.079   7.869  14.815  0.3615  0.8777 -0.3008
 1648TIP3    H229140   4.165   7.853  14.692  0.5812  2.6231 -0.3986
 1649TIP3   OH229141   0.297   5.035  15.258  0.2642  0.3681 -0.3820
 1649TIP3    H129142   0.275   5.033  15.351 -0.8233 -0.8335 -0.6490
 1649TIP3    H229143   0.392   5.049  15.256  0.0925  1.9264  0.8580
 1650TIP3   OH229144   8.325   0.966  14.820 -0.0305 -0.2761 -0.3327
 1650TIP3    H129145   8.360   0.953  14.732  0.2078  2.9086 -0.8036
 1650TIP3    H229146   8.401   0.965  14.877  0.3424  1.6399 -0.7300
 1651TIP3   OH229147   7.527   6.050  14.454  0.5801  0.2954  0.2384
 1651TIP3    H129148   7.503   5.987  14.386  1.4965  0.7710 -0.5470
 1651TIP3    H229149   7.484   6.131  14.428 -0.1620  0.1509  0.9645
 1652TIP3   OH229150   3.123   7.935  13.083 -0.5063 -0.0546 -0.0318
 1652TIP3    H129151   3.064   7.861  13.067 -0.4176 -0.7532  2.4521
 1652TIP3    H229152   3.210   7.896  13.085 -0.2605  0.4509 -0.5462
 1653TIP3   OH229153   6.372   3.568  13.671 -0.3630  0.2055  0.3778
 1653TIP3    H129154   6.382   3.530  13.584 -0.1323 -0.5219  0.7121
 1653TIP3    H229155   6.306   3.636  13.660 -0.1531  0.2889 -0.4140
 1654TIP3   OH229156   4.233   7.542  13.839  0.4163  0.0237  0.2137
 1654TIP3    H129157   4.220   7.626  13.882 -0.0653 -0.2924  0.7036
 1654TIP3    H229158   4.321   7.547  13.801  0.7969  0.3626  1.1157
 1655TIP3   OH229159   3.233   3.490  12.704  0.6139  0.3043  0.0175
 1655TIP3    H129160   3.308   3.469  12.760  1.6516  0.9841 -1.0730
 1655TIP3    H229161   3.272   3.526  12.624 -0.6784 -2.6438 -2.1120
 1656TIP3   OH229162   2.381   6.238  14.534 -0.2401 -0.6468  0.4066
 1656TIP3    H129163   2.370   6.266  14.625  2.1142  0.7683  0.3378
 1656TIP3    H229164   2.373   6.142  14.537  0.7197 -0.7041  2.2591
 1657TIP3   OH229165   4.538   5.676  13.215  0.2275  0.3661  0.4251
 1657TIP3    H129166   4.495   5.591  13.219 -0.9055  0.7699 -1.6145
 1657TIP3    H229167   4.629   5.658  13.238 -0.2893 -1.1168  1.4713
 1658TIP3   OH229168   8.412   4.313  15.242 -0.1232 -0.1909 -0.6949
 1658TIP3    H129169   8.378   4.232  15.204 -1.1741  1.3545 -3.2441
 1658TIP3    H229170   8.337   4.372  15.245  0.5512  0.6516  1.4041
 1659TIP3   OH229171   8.176   2.637  13.650  0.2428 -0.1640 -0.2309
 1659TIP3    H129172   8.159   2.557  13.701 -0.4575 -0.4621 -0.9168
 1659TIP3    H229173   8.266   2.661  13.673  0.0023 -0.3724  1.0264
 1660TIP3   OH229174   7.581   3.773  12.869  0.1474 -0.4812  0.2350
 1660TIP3    H129175   7.630   3.697  12.838  3.7018  1.8551 -0.3884
 1660TIP3    H229176   7.532   3.803  12.792 -0.1516 -1.2797  0.1036
 1661TIP3   OH229177   7.412   4.622  14.768 -0.0735 -0.2199 -0.1797
 1661TIP3    H129178   7.475   4.690  14.744  0.1686 -0.3903 -0.0355
 1661TIP3    H229179   7.340   4.633  14.705 -0.9857  1.4522  1.0669
 1662TIP3   OH229180   1.000   5.491  14.579  0.1259 -0.3784 -0.5856
 1662TIP3    H129181   0.975   5.426  14.515 -0.5633  0.1015 -0.8172
 1662TIP3    H229182   0.979   5.452  14.664 -0.5784 -0.3447 -0.7381
 1663TIP3   OH229183   0.899   6.691  13.091  0.1114  0.3362 -0.0910
 1663TIP3    H129184   0.840   6.620  13.120  0.8937  0.1698  1.2062
 1663TIP3    H229185   0.842   6.750  13.042 -0.8937 -0.4027  0.1248
 1664TIP3   OH229186   4.196   6.031  13.375  0.1137  0.6120 -0.5847
 1664TIP3    H129187   4.284   6.060  13.352 -0.1167  0.6341 -1.4712
 1664TIP3    H229188   4.206   5.936  13.389  0.1990  0.5393 -1.1144
 1665TIP3   OH229189   3.462   0.324  14.291 -0.7545 -0.0830 -0.0464
 1665TIP3    H129190   3.526   0.341  14.360 -0.6592  3.7297 -0.8559
 1665TIP3    H229191   3.378   0.317  14.336 -0.4343  0.1803  0.6008
 1666TIP3   OH229192   0.604   4.780  13.925  0.0650 -0.1383  0.0005
 1666TIP3    H129193   0.611   4.803  13.832  1.4391  1.2864  0.4134
 1666TIP3    H229194   0.683   4.729  13.943  0.1049  0.0927  0.5004
 1667TIP3   OH229195   5.407   4.720  14.751 -0.5164  0.1494 -0.7990
 1667TIP3    H129196   5.424   4.732  14.844 -1.8981 -2.1419 -0.1565
 1667TIP3    H229197   5.486   4.678  14.716 -0.9423 -1.3391 -0.0502
 1668TIP3   OH229198   2.057   3.459  14.282  0.3697 -0.1532  1.2089
 1668TIP3    H129199   1.987   3.405  14.245 -0.5239  1.7568 -0.0378
 1668TIP3    H229200   2.121   3.396  14.314  0.3170 -1.9909 -1.9125
 1669TIP3   OH229201   1.953   0.365  13.534 -0.2596 -0.8916  0.1927
 1669TIP3    H129202   2.047   0.352  13.518 -0.4450 -0.3478 -1.6160
 1669TIP3    H229203   1.949   0.410  13.618  1.3084  1.2013 -0.7458
 1670TIP3   OH229204   5.096   2.463  15.146  0.1654  0.2844  0.1270
 1670TIP3    H129205   5.054   2.511  15.075  0.2155 -1.4516 -1.1294
 1670TIP3    H229206   5.150   2.397  15.102  0.2454 -0.8071  1.7787
 1671TIP3   OH229207   2.629   0.256  14.881  0.2224  0.0749 -0.0706
 1671TIP3    H129208   2.688   0.271  14.808  0.2943  0.5707  0.0826
 1671TIP3    H229209   2.567   0.329  14.877  0.2391  0.1172  0.3714
 1672TIP3   OH229210   7.412   0.545  12.872 -0.6305  0.2427 -0.1958
 1672TIP3    H129211   7.389   0.632  12.839  0.3348 -0.5293 -3.2482
 1672TIP3    H229212   7.459   0.504  12.800 -0.8881 -2.7797  1.1988
 1673TIP3   OH229213   3.552   6.005  14.912  0.5996  0.5930  0.3030
 1673TIP3    H129214   3.613   6.069  14.876 -0.4041  0.1859 -2.3427
 1673TIP3    H229215   3.465   6.039  14.889  0.0268 -1.3240 -0.5578
 1674TIP3   OH229216   2.925   6.930  14.284 -0.1881  0.0927 -0.4300
 1674TIP3    H129217   2.929   6.993  14.212 -0.9029 -1.1697 -1.6450
 1674TIP3    H229218   2.948   6.846  14.243  0.8857 -0.4369  1.1649
 1675TIP3   OH229219   8.385   6.967  14.220  0.0040  0.2308 -0.1405
 1675TIP3    H129220   8.303   6.917  14.220  1.3259 -2.0790  1.2202
 1675TIP3    H229221   8.451   6.906  14.189  1.6009  1.3525  0.8891
 1676TIP3   OH229222   2.431   1.004  13.949 -1.0705 -0.1045 -0.2502
 1676TIP3    H129223   2.438   0.982  13.856  0.6354  1.3591 -0.5242
 1676TIP3    H229224   2.521   1.015  13.978 -1.5016  5.0321  0.0981
 1677TIP3   OH229225   3.981   7.348  14.320 -0.8055  0.0273  0.2186
 1677TIP3    H129226   4.047   7.383  14.380  2.4550 -1.4119 -2.2305
 1677TIP3    H229227   3.951   7.267  14.363 -1.9155  1.2508  1.8640
 1678TIP3   OH229228   2.826   5.541  14.778  0.0381 -0.6269 -0.0283
 1678TIP3    H129229   2.917   5.517  14.760 -0.1580 -0.9332 -0.6249
 1678TIP3    H229230   2.780   5.525  14.695 -0.0731  1.9552 -0.5667
 1679TIP3   OH229231   4.341   7.960  13.704 -0.2747 -0.2946  0.2914
 1679TIP3    H129232   4.249   7.953  13.731 -0.2290  2.9593  1.7977
 1679TIP3    H229233   4.348   8.048  13.668  2.0250 -0.9342 -0.9963
 1680TIP3   OH229234   6.973   8.063  14.376 -0.0505 -0.7663  0.1923
 1680TIP3    H129235   7.060   8.100  14.392  0.0760  0.1943 -2.2233
 1680TIP3    H229236   6.986   7.969  14.374  1.6323 -0.5846 -3.1087
 1681TIP3   OH229237   7.082   6.549  14.202  0.4356 -0.0668  0.1422
 1681TIP3    H129238   7.006   6.492  14.215  0.5458 -0.2227  0.1036
 1681TIP3    H229239   7.086   6.603  14.281  0.2346  0.0000  0.1079
 1682TIP3   OH229240   7.758   8.261  12.957  0.5332  0.1202  0.3023
 1682TIP3    H129241   7.788   8.201  13.026 -0.4988 -0.7148  0.0397
 1682TIP3    H229242   7.686   8.215  12.914  0.6536  0.9508 -0.8480
 1683TIP3   OH229243   6.057   2.658  14.478 -0.6296  0.1027  0.3929
 1683TIP3    H129244   6.136   2.694  14.519 -1.0762 -0.1046  1.4621
 1683TIP3    H229245   6.090   2.611  14.401  0.2076  0.6454  0.4016
 1684TIP3   OH229246   2.558   2.359  14.704  0.1867 -0.3657  0.2155
 1684TIP3    H129247   2.519   2.297  14.766 -0.4701 -0.6296 -0.4322
 1684TIP3    H229248   2.542   2.445  14.741 -2.6742 -0.3322 -0.8504
 1685TIP3   OH229249   4.007   8.090  12.920 -0.1122 -0.3297 -0.1905
 1685TIP3    H129250   4.015   8.178  12.885 -1.0910 -0.3259 -0.4249
 1685TIP3    H229251   3.954   8.043  12.856 -0.0497 -0.9393  0.1950
 1686TIP3   OH229252   3.436   0.626  12.902  0.4108 -0.1257 -0.3292
 1686TIP3    H129253   3.441   0.611  12.807  0.4004 -0.7778 -0.2306
 1686TIP3    H229254   3.403   0.544  12.938  0.8998 -0.0566  0.2958
 1687TIP3   OH229255   2.013   3.134  13.686 -0.5288 -0.1390 -0.5014
 1687TIP3    H129256   2.088   3.121  13.628  1.0393  0.6369  1.2309
 1687TIP3    H229257   2.035   3.213  13.735 -3.0930  0.8289 -0.7883
 1688TIP3   OH229258   6.099   4.164  14.437  0.0832  0.8653 -0.1904
 1688TIP3    H129259   6.117   4.233  14.502  1.4668  0.2824  0.0788
 1688TIP3    H229260   6.005   4.168  14.425  0.0163  2.2152  0.4932
 1689TIP3   OH229261   0.195   6.044  14.943  0.4730 -0.2340  0.1582
 1689TIP3    H129262   0.157   6.103  14.878  0.3773 -0.3763  0.0820
 1689TIP3    H229263   0.199   5.959  14.898  0.8553 -0.2267  0.1734
 1690TIP3   OH229264   3.591   7.733  13.126 -0.5500 -0.8042  0.0732
 1690TIP3    H129265   3.628   7.733  13.214  1.1428 -2.2160 -0.5661
 1690TIP3    H229266   3.653   7.783  13.073 -1.3644 -0.2629 -0.3911
 1691TIP3   OH229267   7.377   1.043  13.153  0.2645  0.6211  0.7556
 1691TIP3    H129268   7.465   1.062  13.120 -0.3391  2.9905  0.3259
 1691TIP3    H229269   7.337   0.989  13.085  1.4890 -0.9059  1.1750
 1692TIP3   OH229270   1.732   4.785  14.250  0.5131  0.1179 -0.0556
 1692TIP3    H129271   1.798   4.837  14.295  0.2248  0.7479 -0.3581
 1692TIP3    H229272   1.782   4.716  14.205  0.6547 -2.6940  3.8726
 1693TIP3   OH229273   4.016   4.530  14.334  0.6307  0.3405 -0.6764
 1693TIP3    H129274   3.943   4.480  14.298  0.3618 -1.0948  1.6947
 1693TIP3    H229275   4.075   4.542  14.260 -0.8820 -0.5337 -2.0959
 1694TIP3   OH229276   0.735   1.887  13.880  0.6711 -0.1984 -0.8977
 1694TIP3    H129277   0.669   1.834  13.835 -0.0642  1.2859 -1.6339
 1694TIP3    H229278   0.686   1.960  13.917  1.7945  0.4987 -0.7272
 1695TIP3   OH229279   6.655   3.391  15.074 -0.4193 -0.5338  0.0584
 1695TIP3    H129280   6.601   3.323  15.035 -0.6379 -0.3712  0.0778
 1695TIP3    H229281   6.645   3.379  15.168 -0.7018 -0.2857  0.0641
 1696TIP3   OH229282   1.486   1.561  13.692  0.0866 -0.5060  0.4892
 1696TIP3    H129283   1.535   1.615  13.754  1.8674 -2.4819  0.8940
 1696TIP3    H229284   1.524   1.474  13.700  0.3160 -0.9098 -3.2983
 1697TIP3   OH229285   5.289   2.340  13.301  0.4976  0.0860 -0.7962
 1697TIP3    H129286   5.271   2.434  13.303 -0.7145 -0.1317  0.7160
 1697TIP3    H229287   5.382   2.333  13.323  0.6394  0.9352 -1.1012
 1698TIP3   OH229288   6.623   3.399  12.966 -0.0124  0.8681  0.4667
 1698TIP3    H129289   6.676   3.424  13.042 -0.5779  1.7291  0.5917
 1698TIP3    H229290   6.647   3.308  12.949  0.8372  0.9664  1.0742
 1699TIP3   OH229291   4.202   4.332  14.732  0.0825  0.0374  0.0143
 1699TIP3    H129292   4.224   4.288  14.814  0.7628  0.7663  0.2317
 1699TIP3    H229293   4.277   4.389  14.714  0.6444 -1.1885 -1.8913
 1700TIP3   OH229294   0.930   5.089  13.374  0.4923  0.0061  0.1128
 1700TIP3    H129295   0.944   5.002  13.337  2.0925 -0.7640  2.3039
 1700TIP3    H229296   0.842   5.085  13.413  0.9152 -0.9772  1.0083
 1701TIP3   OH229297   2.747   8.213  15.018  0.7819 -0.3845 -0.1646
 1701TIP3    H129298   2.662   8.228  14.978  1.3400 -0.6691 -1.4986
 1701TIP3    H229299   2.788   8.300  15.021  0.8207 -0.3931 -0.4175
 1702TIP3   OH229300   1.179   4.101  14.886  0.2480  0.3377 -0.5181
 1702TIP3    H129301   1.232   4.034  14.931 -1.6393 -1.1024 -0.3242
 1702TIP3    H229302   1.101   4.054  14.857 -1.7769  2.7375  0.7445
 1703TIP3   OH229303   1.449   1.922  14.629  0.1997 -0.1924 -0.7433
 1703TIP3    H129304   1.531   1.919  14.678  0.0861  0.0704 -0.5341
 1703TIP3    H229305   1.385   1.879  14.686  0.1033 -0.0353 -0.7320
 1704TIP3   OH229306   6.254   6.834  13.392  0.0511 -0.6034 -0.2099
 1704TIP3    H129307   6.341   6.806  13.364  0.8184  0.0357  1.3672
 1704TIP3    H229308   6.208   6.856  13.312  1.2722 -1.1634 -1.0920
 1705TIP3   OH229309   2.499   1.574  13.985  0.0033  0.3976 -0.7529
 1705TIP3    H129310   2.427   1.513  13.997  0.1946 -0.1439 -2.1379
 1705TIP3    H229311   2.471   1.630  13.913  0.1071  1.5292  0.0760
 1706TIP3   OH229312   3.199   8.228  13.033 -0.2185  0.6325  0.6142
 1706TIP3    H129313   3.145   8.153  13.009 -0.2574  0.3311  1.6131
 1706TIP3    H229314   3.289   8.194  13.031 -0.1258  0.9027 -0.1845
 1707TIP3   OH229315   6.448   6.193  13.172  0.2137 -0.6875  0.0283
 1707TIP3    H129316   6.543   6.182  13.173  0.5819  1.6622 -1.1603
 1707TIP3    H229317   6.429   6.250  13.246  0.1097  0.8321 -1.1085
 1708TIP3   OH229318   1.608   3.789  14.774  0.4277 -0.5732  0.2176
 1708TIP3    H129319   1.515   3.811  14.782  0.6127  0.0409  0.6965
 1708TIP3    H229320   1.624   3.789  14.680  1.0004  3.8808  0.1085
 1709TIP3   OH229321   5.967   4.759  13.591 -0.2826 -0.9310 -0.1213
 1709TIP3    H129322   5.940   4.782  13.502 -1.5245 -0.3093  0.3959
 1709TIP3    H229323   5.948   4.665  13.599 -0.4714 -0.9173 -0.4094
 1710TIP3   OH229324   0.067   2.984  13.879 -0.1869 -0.3613  0.0237
 1710TIP3    H129325   0.065   2.908  13.937  1.0545 -0.1460  0.3945
 1710TIP3    H229326  -0.001   3.042  13.913 -0.6933 -1.0189  0.1463
 1711TIP3   OH229327   0.396   4.912  12.956  0.4513 -0.4387  0.0473
 1711TIP3    H129328   0.435   4.999  12.943 -0.7930  0.1389  0.0253
 1711TIP3    H229329   0.456   4.852  12.913  0.5193  0.5958 -1.3522
 1712TIP3   OH229330   6.569   5.865  13.246 -0.0629 -0.0299 -0.3595
 1712TIP3    H129331   6.624   5.799  13.286  0.3147  0.8736  0.6606
 1712TIP3    H229332   6.600   5.872  13.156  0.7304 -0.3333 -0.1106
 1713TIP3   OH229333   1.558   1.398  12.867  0.1174 -0.0110  0.5981
 1713TIP3    H129334   1.598   1.325  12.819  0.8718  1.1932 -0.6493
 1713TIP3    H229335   1.498   1.355  12.928  0.2815 -1.6645 -0.3310
 1714TIP3   OH229336   8.168   0.797  13.167  0.3987  0.1615 -0.0437
 1714TIP3    H129337   8.188   0.720  13.113 -0.2103  0.8461 -1.2975
 1714TIP3    H229338   8.213   0.869  13.123  0.5036  0.6219  0.8026
 1715TIP3   OH229339   3.351   7.721  13.790 -0.3310 -0.5176  0.2588
 1715TIP3    H129340   3.371   7.640  13.837  0.0613 -1.3963 -1.3495
 1715TIP3    H229341   3.311   7.692  13.707 -1.0602  0.9692  0.0451
 1716TIP3   OH229342   1.740   6.957  15.020 -0.1719  0.2678 -0.2545
 1716TIP3    H129343   1.673   6.969  15.087 -0.3401 -1.5161 -0.0599
 1716TIP3    H229344   1.706   6.887  14.964  0.9582  0.2021 -0.8853
 1717TIP3   OH229345   3.250   4.833  12.454 -0.0875 -0.0527  0.4059
 1717TIP3    H129346   3.165   4.834  12.499 -0.1547 -0.9395  0.3073
 1717TIP3    H229347   3.286   4.746  12.471  0.5972  0.1498  0.0523
 1718TIP3   OH229348   7.155   4.194  12.363 -0.0105 -0.1657 -0.1928
 1718TIP3    H129349   7.101   4.227  12.291  0.9640  2.2694  0.0803
 1718TIP3    H229350   7.120   4.237  12.441  0.2292 -1.1906  0.5080
 1719TIP3   OH229351   3.549   3.007  13.184 -0.0030 -0.8310 -0.6430
 1719TIP3    H129352   3.519   3.037  13.270  0.3991  2.4690 -1.5032
 1719TIP3    H229353   3.469   2.992  13.134 -0.3215  1.0927 -0.8015
 1720TIP3   OH229354   5.630   1.588  14.980 -0.5925  0.2732 -0.1982
 1720TIP3    H129355   5.684   1.574  15.058 -0.5397  1.1186 -0.0806
 1720TIP3    H229356   5.633   1.503  14.934  1.0639  0.3698 -0.3445
 1721TIP3   OH229357   6.459   7.539  14.064 -0.4912 -0.3603  0.9383
 1721TIP3    H129358   6.379   7.593  14.063 -0.9659 -0.9138 -1.9535
 1721TIP3    H229359   6.426   7.450  14.054  0.4222 -0.4857 -1.7938
 1722TIP3   OH229360   8.284   6.697  14.067  0.0408 -0.0009  0.5662
 1722TIP3    H129361   8.343   6.668  13.998 -0.1681  1.2907 -0.1818
 1722TIP3    H229362   8.214   6.631  14.069 -0.1453  0.1339 -0.7161
 1723TIP3   OH229363   0.239   6.459  13.275  0.0784 -0.0107 -0.0232
 1723TIP3    H129364   0.251   6.548  13.307  2.5391 -0.5233  0.6988
 1723TIP3    H229365   0.262   6.464  13.182 -0.4962  0.2277 -0.1553
 1724TIP3   OH229366   2.582   3.775  13.229 -0.1604  0.0917 -0.1605
 1724TIP3    H129367   2.628   3.798  13.310 -0.4851  1.6613 -0.3842
 1724TIP3    H229368   2.651   3.773  13.163 -0.1844  1.0112 -0.2309
 1725TIP3   OH229369   1.344   8.436  14.860 -0.1864  0.1286  0.3816
 1725TIP3    H129370   1.268   8.401  14.814 -0.6160  0.4170  0.8561
 1725TIP3    H229371   1.329   8.530  14.863  1.2370  0.4702 -1.3946
 1726TIP3   OH229372   0.793   7.675  15.022  0.1257  0.2144 -0.2957
 1726TIP3    H129373   0.797   7.597  15.077 -0.2526 -0.9399 -1.8386
 1726TIP3    H229374   0.707   7.713  15.041 -0.4199 -0.7377 -0.8179
 1727TIP3   OH229375   4.266   6.759  13.987 -0.4103  0.3176  0.2114
 1727TIP3    H129376   4.258   6.676  13.940  0.7282  0.3910 -0.1493
 1727TIP3    H229377   4.193   6.812  13.955 -0.1430  0.0669 -0.8651
 1728TIP3   OH229378   7.067   0.819  13.378 -0.0211  0.7230 -0.4635
 1728TIP3    H129379   7.133   0.751  13.386  0.5555  1.3544  0.3854
 1728TIP3    H229380   7.032   0.809  13.290  1.8054  0.9160 -1.2530
 1729TIP3   OH229381   2.808   3.732  13.886 -0.2953 -0.4003 -0.2390
 1729TIP3    H129382   2.775   3.710  13.972  0.7458  1.0247  0.5770
 1729TIP3    H229383   2.745   3.796  13.852  0.4683  0.7739  0.4650
 1730TIP3   OH229384   2.729   5.799  14.570 -0.1654 -0.2050 -0.2068
 1730TIP3    H129385   2.804   5.759  14.526  1.4854  3.1978 -0.8164
 1730TIP3    H229386   2.766   5.844  14.646 -1.3377  2.2526 -0.9617
 1731TIP3   OH229387   3.852   4.450  14.837  0.0061  0.1563 -0.4799
 1731TIP3    H129388   3.910   4.475  14.765 -0.0499  1.4295 -0.1055
 1731TIP3    H229389   3.835   4.357  14.822  2.0548 -0.2471 -0.6680
 1732TIP3   OH229390   0.815   1.337  15.171  0.5382  0.6742 -0.6052
 1732TIP3    H129391   0.880   1.271  15.145 -1.2391 -1.1586 -0.5947
 1732TIP3    H229392   0.785   1.375  15.088  1.4696  1.4269 -0.6178
 1733TIP3   OH229393   7.471   7.304  13.682 -0.1166 -0.8912  0.0648
 1733TIP3    H129394   7.470   7.227  13.626 -1.0523 -0.9984  0.2107
 1733TIP3    H229395   7.541   7.287  13.745  2.7201  0.3590 -2.5502
 1734TIP3   OH229396   7.069   1.256  13.540 -0.1595 -0.3802 -0.0305
 1734TIP3    H129397   7.092   1.324  13.604 -1.4084  0.7984 -0.7858
 1734TIP3    H229398   7.153   1.228  13.505  0.3783  1.2364 -0.1487
 1735TIP3   OH229399   3.241   3.594  13.398 -0.0001 -0.0631  0.9147
 1735TIP3    H129400   3.321   3.625  13.441 -2.7979  2.1876  5.1023
 1735TIP3    H229401   3.243   3.638  13.312  1.6739  2.7804  2.2334
 1736TIP3   OH229402   5.499   6.509  14.456 -0.5121 -0.1474 -0.2427
 1736TIP3    H129403   5.575   6.566  14.449 -0.8132  0.1170 -1.6043
 1736TIP3    H229404   5.514   6.441  14.390 -1.2222 -0.3718 -0.1841
 1737TIP3   OH229405   4.745   0.803  13.913  0.2248 -0.0331 -0.8327
 1737TIP3    H129406   4.695   0.762  13.983  0.7388  1.9391  0.8130
 1737TIP3    H229407   4.705   0.771  13.832 -0.8369 -1.8712  0.3377
 1738TIP3   OH229408   1.761   5.830  14.782 -0.2271  0.1094 -0.0688
 1738TIP3    H129409   1.692   5.885  14.745 -0.7176  0.7221  1.6391
 1738TIP3    H229410   1.834   5.890  14.797 -0.6523  0.2936  1.5074
 1739TIP3   OH229411   4.034   0.931  13.329 -0.0786 -0.0939 -0.4556
 1739TIP3    H129412   4.026   0.974  13.244  1.2359 -0.6143 -0.8662
 1739TIP3    H229413   4.087   0.991  13.382  0.7888 -0.6640 -0.6589
 1740TIP3   OH229414   7.134   3.341  14.965 -0.3470 -0.1652  0.2053
 1740TIP3    H129415   7.055   3.373  14.921  0.2478  0.4337 -0.4555
 1740TIP3    H229416   7.103   3.271  15.022 -1.4770  0.6400  0.6154
 1741TIP3   OH229417   1.399   0.272  13.554  0.1155  0.0952 -0.5773
 1741TIP3    H129418   1.397   0.217  13.476 -3.9857  1.0825 -1.4056
 1741TIP3    H229419   1.361   0.355  13.526 -2.1635  0.2884  2.5482
 1742TIP3   OH229420   5.957   3.758  15.265  0.9293  0.6133 -0.4080
 1742TIP3    H129421   6.007   3.837  15.287  0.9461  0.3154  0.6982
 1742TIP3    H229422   5.913   3.735  15.347  0.1932 -0.0014 -0.9743
 1743TIP3   OH229423   6.416   2.533  15.002  0.1974 -0.1301 -0.1541
 1743TIP3    H129424   6.345   2.571  15.053 -0.5548 -0.8666 -0.6124
 1743TIP3    H229425   6.474   2.606  14.982 -0.2893  0.4353  0.4538
 1744TIP3   OH229426   1.965   2.006  14.779 -0.8337 -0.5163 -0.8206
 1744TIP3    H129427   2.041   1.990  14.835 -1.4194 -1.5887 -0.3307
 1744TIP3    H229428   1.951   2.101  14.785  1.1856 -0.0682 -1.8669
 1745TIP3   OH229429   2.204   0.912  13.361 -0.4040 -0.2268 -0.1266
 1745TIP3    H129430   2.296   0.934  13.375 -0.0597 -1.1750 -0.7625
 1745TIP3    H229431   2.205   0.854  13.284 -1.7779  1.8175 -1.8100
 1746TIP3   OH229432   4.023   0.527  13.816  0.1873  0.1154  0.2539
 1746TIP3    H129433   3.945   0.530  13.871 -1.6733  1.4941 -2.2419
 1746TIP3    H229434   4.074   0.603  13.842 -0.5463  0.6152  0.2748
 1747TIP3   OH229435   5.941   5.023  15.014 -0.4713  0.4519  0.1279
 1747TIP3    H129436   5.912   4.970  15.088  0.5253  1.0327  0.9644
 1747TIP3    H229437   5.932   4.965  14.938  1.7129 -1.3774  1.1619
 1748TIP3   OH229438   0.672   7.479  15.223 -0.1377  0.0323  0.4838
 1748TIP3    H129439   0.582   7.503  15.200  0.3848  1.3944 -0.2512
 1748TIP3    H229440   0.662   7.415  15.294 -1.6705  1.2846  1.4856
 1749TIP3   OH229441   6.517   4.944  13.073 -0.3630  0.3133 -0.4304
 1749TIP3    H129442   6.447   4.970  13.014 -0.4997  0.7123 -0.0941
 1749TIP3    H229443   6.520   4.848  13.066  0.3139  0.4249 -1.8564
 1750TIP3   OH229444   2.494   8.401  14.806 -0.2272 -0.1857 -0.1346
 1750TIP3    H129445   2.456   8.450  14.733 -1.0236 -0.8542 -0.1912
 1750TIP3    H229446   2.586   8.425  14.806 -0.3102  0.1679 -1.0832
 1751TIP3   OH229447   1.391   7.306  14.296  0.6100  0.4532 -0.1492
 1751TIP3    H129448   1.383   7.395  14.331 -0.8384  0.2767  0.0203
 1751TIP3    H229449   1.301   7.276  14.287  1.0897 -1.0687 -0.0396
 1752TIP3   OH229450   7.519   7.932  14.482 -0.6824  0.0291  0.0496
 1752TIP3    H129451   7.503   8.014  14.529 -1.9947  0.4362 -1.0400
 1752TIP3    H229452   7.562   7.959  14.401  0.1739 -0.5172  0.3084
 1753TIP3   OH229453   7.346   0.340  13.500  0.1037  0.7893 -0.0047
 1753TIP3    H129454   7.276   0.294  13.546  0.3973 -0.6155 -0.9144
 1753TIP3    H229455   7.426   0.301  13.532  0.3555  0.5792 -0.8636
 1754TIP3   OH229456   0.131   4.701  14.067  0.0607  0.2143  0.0377
 1754TIP3    H129457   0.086   4.639  14.009 -1.6545 -0.2391  1.7094
 1754TIP3    H229458   0.170   4.765  14.009 -1.4103 -0.3139 -1.6272
 1755TIP3   OH229459   3.650   6.109  13.787 -0.3161  0.0812 -0.7034
 1755TIP3    H129460   3.583   6.129  13.722  0.5967 -0.0120 -1.6864
 1755TIP3    H229461   3.691   6.028  13.755  0.5012  0.3298 -0.2995
 1756TIP3   OH229462   6.668   5.759  13.884  0.2660 -0.1159 -0.7303
 1756TIP3    H129463   6.625   5.718  13.960 -2.1424 -0.1863 -2.0329
 1756TIP3    H229464   6.618   5.839  13.869  1.1498  0.2435 -1.8342
 1757TIP3   OH229465   2.187   3.996  14.136 -0.0400 -0.2009 -0.0573
 1757TIP3    H129466   2.173   3.965  14.046 -1.2573  0.3748 -0.0876
 1757TIP3    H229467   2.105   4.039  14.159  0.1634 -0.5813  1.4428
 1758TIP3   OH229468   4.878   5.504  13.796 -0.1973 -0.0098 -0.7396
 1758TIP3    H129469   4.945   5.449  13.836  0.8820  1.5670 -0.2703
 1758TIP3    H229470   4.804   5.500  13.857  0.1008 -0.4402 -0.3994
 1759TIP3   OH229471   4.047   5.069  14.627  0.3009  0.8955  0.1394
 1759TIP3    H129472   4.066   4.975  14.636  0.2780  0.6886 -1.5800
 1759TIP3    H229473   3.969   5.083  14.681 -0.2202 -0.2777 -0.2733
 1760TIP3   OH229474   6.490   3.546  13.915 -0.0994 -0.1295  0.0120
 1760TIP3    H129475   6.470   3.570  13.825 -0.7865  1.0989  0.4690
 1760TIP3    H229476   6.584   3.561  13.924 -0.3958  1.9448  0.1086
 1761TIP3   OH229477   0.911   5.466  14.026 -0.1559 -0.5007 -0.1262
 1761TIP3    H129478   0.830   5.419  14.044  0.2478 -0.8224  0.8838
 1761TIP3    H229479   0.882   5.553  13.997 -0.8569 -0.3709  0.9221
 1762TIP3   OH229480   6.770   4.705  14.302  0.4930  0.2173 -0.3920
 1762TIP3    H129481   6.844   4.693  14.361  0.2424  0.2858 -0.0595
 1762TIP3    H229482   6.800   4.772  14.240  0.4676  0.7581  0.1620
 1763TIP3   OH229483   0.499   2.654  13.319 -0.6205  0.1155 -0.3134
 1763TIP3    H129484   0.441   2.688  13.388  2.5155  0.5002  2.3701
 1763TIP3    H229485   0.493   2.719  13.249 -1.9847  1.1185  0.6576
 1764TIP3   OH229486   7.633   6.485  14.148  0.1018  0.3698  0.2170
 1764TIP3    H129487   7.633   6.561  14.090 -0.9235  0.8815  0.8391
 1764TIP3    H229488   7.565   6.505  14.213  0.3039 -0.7679  0.8107
 1765TIP3   OH229489   7.183   8.071  13.102 -0.5074 -0.2262  0.6741
 1765TIP3    H129490   7.158   8.163  13.108  0.1883  0.0638 -0.5052
 1765TIP3    H229491   7.100   8.023  13.102 -1.0255  0.5785 -1.0601
 1766TIP3   OH229492   1.741   3.329  13.611 -0.1187  0.0083  0.2854
 1766TIP3    H129493   1.671   3.297  13.554 -0.9970  0.1122  1.2627
 1766TIP3    H229494   1.775   3.406  13.567 -0.8662  0.1605 -0.0434
 1767TIP3   OH229495   2.148   5.611  15.038  0.0554  0.1432  0.1351
 1767TIP3    H129496   2.083   5.596  14.969 -0.0545  0.0551  0.2577
 1767TIP3    H229497   2.106   5.673  15.097  0.1324  0.1837  0.1465
 1768TIP3   OH229498   2.293   4.014  13.449 -0.1187 -0.3828 -0.2104
 1768TIP3    H129499   2.303   3.920  13.435 -1.9185 -0.7893  0.9683
 1768TIP3    H229500   2.284   4.023  13.544  1.4629  1.1711 -0.1489
 1769TIP3   OH229501   7.081   4.751  13.494  0.4773 -0.2230  0.2416
 1769TIP3    H129502   7.080   4.837  13.453 -0.1606 -1.2609 -2.0716
 1769TIP3    H229503   7.138   4.762  13.570 -0.6488  2.5560  0.8138
 1770TIP3   OH229504   8.104   1.599  15.117 -0.0525  0.1045 -0.1080
 1770TIP3    H129505   8.108   1.595  15.021  0.0639 -0.9848 -0.0692
 1770TIP3    H229506   8.173   1.660  15.142  1.4017 -1.2550 -0.6181
 1771TIP3   OH229507   4.324   4.909  14.421 -0.1426 -0.1692 -0.5153
 1771TIP3    H129508   4.341   4.835  14.363 -0.0189  1.0337 -2.1022
 1771TIP3    H229509   4.255   4.959  14.377 -1.6042 -0.3459  1.4900
 1772TIP3   OH229510   7.314   1.202  13.785  0.0596  0.2157 -0.1229
 1772TIP3    H129511   7.387   1.258  13.812  1.8870 -1.4955 -1.2072
 1772TIP3    H229512   7.266   1.255  13.721  0.0247  1.5628  0.9725
 1773TIP3   OH229513   0.020   4.428  13.867  0.4952  0.1267 -0.3555
 1773TIP3    H129514   0.049   4.340  13.888 -0.1013 -0.2024 -0.8718
 1773TIP3    H229515   0.058   4.446  13.781 -0.5285 -0.1857 -0.8924
 1774TIP3   OH229516   2.869   0.163  14.362 -0.3757 -0.1167  0.3910
 1774TIP3    H129517   2.964   0.173  14.362  0.3797 -4.9741  1.1364
 1774TIP3    H229518   2.846   0.150  14.455 -1.6999  0.4335  0.1692
 1775TIP3   OH229519   8.075   1.394  12.724 -0.3018 -0.3861 -0.0774
 1775TIP3    H129520   8.020   1.417  12.799  0.7365 -1.1631  0.9686
 1775TIP3    H229521   8.037   1.312  12.692 -0.2378 -0.5035  0.1439
 1776TIP3   OH229522   4.478   1.113  13.509 -0.0102 -0.3212 -0.0451
 1776TIP3    H129523   4.493   1.102  13.415  0.3883  0.7798 -0.1282
 1776TIP3    H229524   4.566   1.125  13.546 -0.1961 -0.3630  0.4123
 1777TIP3   OH229525   5.621   7.894  14.671  0.2068  0.2493 -0.5608
 1777TIP3    H129526   5.714   7.915  14.677  0.5838 -1.5292  0.6975
 1777TIP3    H229527   5.589   7.947  14.597  2.3084  0.5059 -1.3629
 1778TIP3   OH229528   4.134   2.808  13.752 -0.5198 -0.0855  0.0031
 1778TIP3    H129529   4.102   2.738  13.808 -1.0832 -0.9832 -1.3803
 1778TIP3    H229530   4.205   2.768  13.702 -1.3527  0.0639 -1.3602
 1779TIP3   OH229531   7.001   4.526  13.391 -0.5209  0.2539  0.0311
 1779TIP3    H129532   6.909   4.520  13.418 -1.0109  1.2551 -1.2921
 1779TIP3    H229533   7.037   4.594  13.447  0.3361 -2.2624  2.7730
 1780TIP3   OH229534   1.707   5.394  14.111 -0.3184  0.1065  0.4762
 1780TIP3    H129535   1.648   5.337  14.061  1.2747  0.1784 -1.6240
 1780TIP3    H229536   1.743   5.337  14.180 -1.5605 -0.3642  0.7576
 1781TIP3   OH229537   1.826   1.614  13.423  0.2688 -0.0852  0.0812
 1781TIP3    H129538   1.773   1.645  13.497 -0.2328 -1.2749  0.2356
 1781TIP3    H229539   1.828   1.519  13.433  1.1148 -0.1746 -0.8301
 1782TIP3   OH229540   0.018   2.751  14.040  0.1519 -0.0508 -0.0007
 1782TIP3    H129541   0.041   2.662  14.012  0.2504 -0.1628  0.4355
 1782TIP3    H229542   0.088   2.776  14.101 -0.2851  0.0358  0.4683
 1783TIP3   OH229543   3.467   8.102  13.125  0.2426  0.2028 -0.4011
 1783TIP3    H129544   3.457   8.008  13.135 -0.0945  0.3823  1.0692
 1783TIP3    H229545   3.550   8.112  13.078  0.1806 -0.8181 -0.7587
 1784TIP3   OH229546   6.352   5.004  14.358  0.1466 -0.1692  0.3326
 1784TIP3    H129547   6.411   4.932  14.380  0.3502 -0.1008  0.0214
 1784TIP3    H229548   6.402   5.058  14.296 -0.2309 -0.1004  0.0832
 1785TIP3   OH229549   6.949   0.778  15.145 -0.4413 -0.0271 -0.3364
 1785TIP3    H129550   7.035   0.788  15.105 -0.2544  0.3160  0.1434
 1785TIP3    H229551   6.934   0.683  15.147  1.1104 -0.2893  2.0344
 1786TIP3   OH229552   4.799   0.465  13.134 -0.0977 -0.3596 -0.5279
 1786TIP3    H129553   4.869   0.520  13.169 -0.1136 -0.8763  0.3629
 1786TIP3    H229554   4.813   0.464  13.040  0.2173  0.7243 -0.5006
 1787TIP3   OH229555   2.430   6.364  13.919 -0.1719  0.0414  0.5285
 1787TIP3    H129556   2.490   6.439  13.925  1.3996 -1.0372 -0.8164
 1787TIP3    H229557   2.461   6.304  13.987 -0.2660 -0.1557  0.3969
 1788TIP3   OH229558   0.161   5.101  14.827 -0.1050  0.0719 -0.2501
 1788TIP3    H129559   0.140   5.133  14.915  1.0602 -0.0428  0.0883
 1788TIP3    H229560   0.227   5.033  14.841  1.4105  1.2506 -1.3060
 1789TIP3   OH229561   6.306   3.423  14.960  0.1264 -0.2651  0.3158
 1789TIP3    H129562   6.293   3.456  14.871 -0.5150 -1.1833  0.0656
 1789TIP3    H229563   6.219   3.403  14.992  0.3743 -0.1807  1.0686
 1790TIP3   OH229564   1.241   4.824  14.311 -0.0037 -0.5620 -0.1679
 1790TIP3    H129565   1.288   4.784  14.384 -0.8163 -1.4180 -0.0886
 1790TIP3    H229566   1.208   4.907  14.346 -1.6728 -1.6341  0.9636
 1791TIP3   OH229567   6.309   2.675  13.191 -0.1294  0.6337  0.2222
 1791TIP3    H129568   6.308   2.610  13.121 -0.8110  0.8023  0.0697
 1791TIP3    H229569   6.237   2.734  13.170 -2.4022 -1.0224  2.6522
 1792TIP3   OH229570   0.744   2.781  15.190 -0.0447  0.2090 -0.2656
 1792TIP3    H129571   0.653   2.760  15.213  0.5755 -1.3906  0.9031
 1792TIP3    H229572   0.783   2.697  15.168  1.3600  0.7695 -0.0044
 1793TIP3   OH229573   8.009   6.188  13.168 -0.7717  0.0614  0.0263
 1793TIP3    H129574   7.915   6.170  13.168 -0.7468 -0.0681  0.3579
 1793TIP3    H229575   8.017   6.273  13.211 -0.7261  0.0071  0.1271
 1794TIP3   OH229576   8.100   3.047  13.728 -0.2857  0.3102 -0.2453
 1794TIP3    H129577   8.127   2.972  13.781 -0.7533 -1.1478 -1.9618
 1794TIP3    H229578   8.031   3.089  13.779 -0.8295 -1.1319  0.2548
 1795TIP3   OH229579   2.922   3.505  13.785  0.5188  0.5626 -0.7028
 1795TIP3    H129580   2.874   3.571  13.834 -1.8217 -1.8621  0.5469
 1795TIP3    H229581   3.012   3.511  13.818 -0.4834  0.5615  2.3372
 1796TIP3   OH229582   0.313   2.060  13.135  0.1004 -0.7235 -0.1294
 1796TIP3    H129583   0.335   2.153  13.145 -0.6823 -0.4003 -1.1968
 1796TIP3    H229584   0.350   2.035  13.051  1.8982 -1.9115  0.9526
 1797TIP3   OH229585   0.469   8.256  13.749 -0.4701  0.2860  0.0560
 1797TIP3    H129586   0.518   8.190  13.699 -0.5829 -0.3677  0.7875
 1797TIP3    H229587   0.414   8.205  13.809 -1.7344  1.0085 -0.4417
 1798TIP3   OH229588   3.864   8.097  14.445  0.2659  0.1269 -0.1439
 1798TIP3    H129589   3.777   8.136  14.451  1.3191  2.5041  0.4661
 1798TIP3    H229590   3.891   8.112  14.354  0.3620  0.1080 -0.1185
 1799TIP3   OH229591   6.152   6.062  14.473 -0.0242 -0.3714  0.2448
 1799TIP3    H129592   6.077   6.007  14.497 -0.2081  0.3868  1.5266
 1799TIP3    H229593   6.228   6.011  14.499 -0.1286 -0.7183 -0.1219
 1800TIP3   OH229594   1.233   1.652  13.106 -0.2508  0.8706 -0.3333
 1800TIP3    H129595   1.254   1.571  13.152 -0.7690  0.4344 -0.8585
 1800TIP3    H229596   1.209   1.624  13.018  1.2709  1.7297 -1.0560
 1801TIP3   OH229597   6.105   4.764  14.742 -0.3281  0.6122  0.1490
 1801TIP3    H129598   6.133   4.834  14.683 -0.8228  0.8830  0.2322
 1801TIP3    H229599   6.139   4.790  14.827 -1.0822  1.1032  0.3114
 1802TIP3   OH229600   5.046   5.845  14.036  0.3890  0.2484  0.1940
 1802TIP3    H129601   5.101   5.768  14.046  0.1776  0.1303  0.4441
 1802TIP3    H229602   5.021   5.869  14.125  1.5512  1.4101  0.2507
 1803TIP3   OH229603   3.917   2.812  14.096  0.3604  0.3763 -0.0622
 1803TIP3    H129604   3.852   2.819  14.026 -0.8495 -1.4980  0.7879
 1803TIP3    H229605   3.986   2.756  14.059  0.7406  1.0571 -0.4142
 1804TIP3   OH229606   2.957   8.439  14.142 -0.0669 -0.0673  0.3746
 1804TIP3    H129607   2.912   8.484  14.214 -0.6526 -0.6646  0.3848
 1804TIP3    H229608   2.976   8.352  14.176  0.9446  0.1110  0.3036
 1805TIP3   OH229609   2.185   8.276  12.931 -0.4119  0.4967  0.3506
 1805TIP3    H129610   2.267   8.324  12.922 -0.5888  0.6803 -0.4104
 1805TIP3    H229611   2.211   8.184  12.928 -0.2009  0.5545  0.3974
 1806TIP3   OH229612   0.811   1.234  14.824 -0.3372  0.4121 -0.2320
 1806TIP3    H129613   0.878   1.180  14.865 -1.0764  1.2528  2.2784
 1806TIP3    H229614   0.729   1.187  14.840 -0.5652  0.2062 -1.8257
 1807TIP3   OH229615   0.950   6.280  15.137  0.2987  0.3611  0.1585
 1807TIP3    H129616   0.887   6.209  15.153  0.1555 -0.2553 -2.6260
 1807TIP3    H229617   1.033   6.246  15.168 -0.0566 -0.4242  0.2739
 1808TIP3   OH229618   0.746   3.879  14.017 -0.1193  0.2212 -0.2467
 1808TIP3    H129619   0.668   3.932  14.030  0.7269  1.3452  0.4935
 1808TIP3    H229620   0.771   3.850  14.105  0.3277 -0.0686 -0.4617
 1809TIP3   OH229621   3.853   8.368  13.026  0.0749  0.0742  0.2583
 1809TIP3    H129622   3.916   8.347  12.957  0.1609  0.7491  0.1314
 1809TIP3    H229623   3.904   8.416  13.091  0.2306 -1.3958  1.2875
 1810TIP3   OH229624   3.337   1.836  14.288 -0.4876  0.5332  0.4751
 1810TIP3    H129625   3.257   1.790  14.313 -0.6074  0.5431  0.1080
 1810TIP3    H229626   3.308   1.903  14.226 -0.4595  1.6954  1.6498
 1811TIP3   OH229627   6.168   0.519  13.608  0.1798  0.0417  0.3838
 1811TIP3    H129628   6.246   0.496  13.659  0.1539 -0.0126  0.3991
 1811TIP3    H229629   6.197   0.517  13.517  1.0546  3.2602  0.4752
 1812TIP3   OH229630   5.650   7.273  14.167  0.0448 -0.1494  0.1259
 1812TIP3    H129631   5.609   7.335  14.227  0.1798 -0.1311  0.2013
 1812TIP3    H229632   5.582   7.252  14.103  0.7150  1.9813 -1.3852
 1813TIP3   OH229633   3.057   6.210  13.915 -0.2666  0.6234  0.1229
 1813TIP3    H129634   2.965   6.184  13.919 -0.8501  2.2062 -1.5491
 1813TIP3    H229635   3.058   6.300  13.946  0.9045  0.3084  1.0786
 1814TIP3   OH229636   1.915   3.117  14.778 -0.0052  0.2569 -0.4092
 1814TIP3    H129637   1.877   3.191  14.731 -0.4202  0.0139 -0.4556
 1814TIP3    H229638   1.842   3.075  14.822  0.0948 -0.6018 -1.0299
 1815TIP3   OH229639   2.506   5.006  14.579  0.5219  0.9968 -0.0467
 1815TIP3    H129640   2.596   5.037  14.586  1.0123 -0.3724 -0.1641
 1815TIP3    H229641   2.513   4.919  14.540 -0.6285 -0.2207  2.2246
 1816TIP3   OH229642   4.351   7.842  14.815  0.2912 -0.5974 -0.1946
 1816TIP3    H129643   4.346   7.750  14.839 -1.2199 -0.4213  0.2449
 1816TIP3    H229644   4.395   7.884  14.889  0.2260 -0.8347 -0.0214
 1817TIP3   OH229645   4.423   3.639  12.772 -0.1125 -0.1207 -0.9019
 1817TIP3    H129646   4.437   3.656  12.679  1.6668  0.2649 -0.5912
 1817TIP3    H229647   4.438   3.545  12.782 -0.6597 -0.2304 -1.0408
 1818TIP3   OH229648   4.591   2.355  13.899 -0.1451  0.0360  0.2526
 1818TIP3    H129649   4.632   2.275  13.865  0.0286  0.9263 -1.8176
 1818TIP3    H229650   4.518   2.371  13.839 -0.4298  1.2010  0.8891
 1819TIP3   OH229651   1.945   1.753  13.019  0.1427  0.8216 -1.2476
 1819TIP3    H129652   1.880   1.689  12.990  2.6061 -2.4671 -0.0642
 1819TIP3    H229653   1.915   1.779  13.107 -0.8182  1.3108 -1.6987
 1820TIP3   OH229654   7.621   2.647  14.795 -0.3087  0.4295  0.2129
 1820TIP3    H129655   7.539   2.606  14.768  0.4263 -1.6463  0.9403
 1820TIP3    H229656   7.609   2.667  14.888 -0.0966  0.3736  0.2538
 1821TIP3   OH229657   8.194   1.024  14.117 -0.3495 -0.3764 -0.9291
 1821TIP3    H129658   8.241   1.061  14.042 -0.2246 -1.6221 -1.4933
 1821TIP3    H229659   8.259   0.967  14.160 -0.5469 -0.0015 -0.1234
 1822TIP3   OH229660   5.893   3.624  14.929 -0.0164 -0.4911 -0.5209
 1822TIP3    H129661   5.977   3.663  14.904  0.5372 -2.0005 -1.1598
 1822TIP3    H229662   5.845   3.695  14.971  1.6526  0.3620  0.0486
 1823TIP3   OH229663   4.423   1.662  14.454 -0.1920 -0.0953 -0.0612
 1823TIP3    H129664   4.378   1.616  14.383  3.8912 -0.5829 -2.6842
 1823TIP3    H229665   4.439   1.750  14.418 -0.0991  0.4662  1.2949
 1824TIP3   OH229666   0.799   1.584  14.238 -0.2702 -0.1842 -0.2638
 1824TIP3    H129667   0.848   1.621  14.166 -0.7059  0.6305 -0.1523
 1824TIP3    H229668   0.782   1.658  14.297  0.9181 -0.9948  1.1738
 1825TIP3   OH229669   4.575   2.434  13.541  0.0619  0.3048  0.1172
 1825TIP3    H129670   4.506   2.447  13.606  0.4324  2.6421  0.0978
 1825TIP3    H229671   4.532   2.385  13.470 -1.7473  2.0435 -0.0808
 1826TIP3   OH229672   0.692   6.443  13.754 -0.5632 -0.2319  0.1788
 1826TIP3    H129673   0.730   6.524  13.719  0.4261 -0.5816  0.4270
 1826TIP3    H229674   0.606   6.437  13.711 -1.3190  1.7301  1.2659
 1827TIP3   OH229675   0.843   4.213  13.679  0.3837 -0.0216  0.3216
 1827TIP3    H129676   0.792   4.198  13.759 -1.1785 -2.1014 -0.9635
 1827TIP3    H229677   0.783   4.261  13.622  0.5216 -0.8171 -0.5175
 1828TIP3   OH229678   4.540   6.041  14.008 -0.0669  0.3504  0.2943
 1828TIP3    H129679   4.486   6.092  13.948  1.2784  0.6188 -0.7338
 1828TIP3    H229680   4.478   5.986  14.056 -1.0620 -1.6307 -2.9602
 1829TIP3   OH229681   5.644   7.588  12.902  0.0736 -0.2849  0.2366
 1829TIP3    H129682   5.580   7.526  12.936 -1.6171  1.0201 -0.4372
 1829TIP3    H229683   5.631   7.667  12.954  0.8972  0.1230 -0.1594
 1830TIP3   OH229684   7.488   5.858  14.257  0.8781  0.0977 -0.1616
 1830TIP3    H129685   7.486   5.764  14.275 -0.8869 -0.3416 -2.2909
 1830TIP3    H229686   7.513   5.864  14.165  0.4896  1.7065 -0.1809
 1831TIP3   OH229687   0.648   5.670  14.983  0.1009 -0.5732  0.0901
 1831TIP3    H129688   0.646   5.579  15.012  0.2788 -1.3563 -2.1995
 1831TIP3    H229689   0.563   5.706  15.010 -0.2540 -1.6143  0.4036
 1832TIP3   OH229690   4.195   8.377  13.795 -0.1267 -0.0650  0.2437
 1832TIP3    H129691   4.263   8.421  13.847 -1.8325  2.6897  0.3850
 1832TIP3    H229692   4.190   8.289  13.832  2.9235 -0.2134  0.5780
 1833TIP3   OH229693   6.825   8.066  13.715 -0.1838 -0.1612  0.3868
 1833TIP3    H129694   6.835   8.042  13.623  0.6243 -1.4138  0.7727
 1833TIP3    H229695   6.869   8.151  13.722 -0.7576  0.2203 -0.4840
 1834TIP3   OH229696   4.618   0.789  14.197  0.4804 -0.5993  0.5076
 1834TIP3    H129697   4.569   0.716  14.159  0.1813  0.2510 -0.8036
 1834TIP3    H229698   4.555   0.860  14.203  1.7359  0.9549 -2.4789
 1835TIP3   OH229699   2.373   5.213  14.167 -0.1823 -0.2834 -0.0212
 1835TIP3    H129700   2.439   5.270  14.127 -0.4324  0.2876  0.3751
 1835TIP3    H229701   2.306   5.273  14.199 -0.9151 -0.8597 -0.4459
 1836TIP3   OH229702   4.203   3.588  13.812 -0.1639  0.7728 -0.1344
 1836TIP3    H129703   4.109   3.592  13.829 -0.4485  1.6524 -1.6883
 1836TIP3    H229704   4.215   3.509  13.760  0.2110 -0.1387  1.2760
 1837TIP3   OH229705   2.036   2.225  14.218 -0.0032  0.0133 -0.0796
 1837TIP3    H129706   1.987   2.195  14.295  0.2579 -1.3719 -0.4377
 1837TIP3    H229707   2.064   2.314  14.242 -0.7146 -0.0400  1.0508
 1838TIP3   OH229708   5.209   0.858  14.075 -0.5062 -0.8832 -0.1111
 1838TIP3    H129709   5.253   0.942  14.066  0.6987 -1.6942 -2.4728
 1838TIP3    H229710   5.121   0.873  14.040 -0.9162 -0.1798  1.1854
 1839TIP3   OH229711   5.487   5.757  14.274 -0.3669 -0.4073 -0.6847
 1839TIP3    H129712   5.410   5.780  14.326 -0.3341  0.6977 -1.0951
 1839TIP3    H229713   5.544   5.710  14.335 -0.1415  1.2373  0.4470
 1840TIP3   OH229714   3.004   0.763  13.040 -0.2155  0.1423  0.3101
 1840TIP3    H129715   2.916   0.730  13.059 -0.5401  0.9751  0.2697
 1840TIP3    H229716   3.011   0.761  12.944 -0.9279  1.9021  0.1864
 1841TIP3   OH229717   6.621   3.734  14.338  0.4313 -0.4247 -0.0921
 1841TIP3    H129718   6.687   3.767  14.276 -0.9415  0.3357 -1.2225
 1841TIP3    H229719   6.562   3.682  14.284 -0.1712 -0.6840  0.7983
 1842TIP3   OH229720   6.385   2.151  14.064  0.0655  0.0073 -0.2929
 1842TIP3    H129721   6.337   2.077  14.027  1.2805 -1.3520  0.7488
 1842TIP3    H229722   6.452   2.171  13.998  1.0499 -1.2123  0.2888
 1843TIP3   OH229723   3.461   2.710  13.494  0.1053  0.3269 -0.3991
 1843TIP3    H129724   3.521   2.688  13.565  1.3963 -1.1674 -1.8745
 1843TIP3    H229725   3.515   2.709  13.415 -1.7062 -0.3486 -1.7097
 1844TIP3   OH229726   1.569   0.361  14.838 -0.3193  0.4188  0.0962
 1844TIP3    H129727   1.635   0.294  14.821 -0.4319  0.6187 -1.2165
 1844TIP3    H229728   1.496   0.314  14.879 -0.9035 -0.5067 -1.9138
 1845TIP3   OH229729   2.258   2.832  13.799 -0.1590 -0.5803 -0.0309
 1845TIP3    H129730   2.260   2.764  13.731  0.1572  0.1664 -0.7854
 1845TIP3    H229731   2.325   2.895  13.773  0.0781 -0.3530  1.0692
 1846TIP3   OH229732   5.049   6.711  14.529  0.5051 -0.3474  0.0267
 1846TIP3    H129733   5.138   6.688  14.504  0.6079  1.1919 -1.1492
 1846TIP3    H229734   5.052   6.718  14.625  1.5154 -0.7524  0.0395
 1847TIP3   OH229735   3.025   8.322  13.234  0.3952 -0.0238 -0.3155
 1847TIP3    H129736   2.977   8.338  13.153  1.2778  1.2767 -0.6149
 1847TIP3    H229737   3.097   8.265  13.208 -0.2016 -0.8794 -0.1270
 1848TIP3   OH229738   6.357   4.444  14.294 -0.3699 -0.3080 -0.2870
 1848TIP3    H129739   6.395   4.357  14.284  0.8457  0.1160  0.4393
 1848TIP3    H229740   6.310   4.459  14.212  0.4658 -1.1433 -0.9425
 1849TIP3   OH229741   4.736   3.340  13.204 -0.3025 -0.0852  0.0942
 1849TIP3    H129742   4.709   3.269  13.262 -0.0933 -1.1614 -1.0764
 1849TIP3    H229743   4.691   3.417  13.238 -2.3147 -1.2005  0.0870
 1850TIP3   OH229744   1.292   4.309  14.648  0.3563  0.0815 -0.4421
 1850TIP3    H129745   1.213   4.256  14.643  1.6533 -2.0125  0.2689
 1850TIP3    H229746   1.320   4.302  14.740  0.8967  1.5363 -0.4701
 1851TIP3   OH229747   7.176   6.868  13.805  0.0632 -0.2989 -0.2069
 1851TIP3    H129748   7.156   6.851  13.897  0.9691 -0.1871  0.0128
 1851TIP3    H229749   7.210   6.784  13.772  1.3110  0.1138 -0.0028
 1852TIP3   OH229750   0.402   2.572  12.794 -0.4235 -0.8005  0.2482
 1852TIP3    H129751   0.443   2.653  12.824  0.4436 -0.5656 -1.4449
 1852TIP3    H229752   0.475   2.512  12.780 -0.8213 -1.0362 -0.8831
 1853TIP3   OH229753   7.834   0.574  14.964  0.2511 -0.3885 -0.3386
 1853TIP3    H129754   7.895   0.630  14.916  1.0312 -0.9266 -0.0067
 1853TIP3    H229755   7.759   0.630  14.982 -0.7616 -0.5326 -3.4429
 1854TIP3   OH229756   6.375   7.597  13.410  0.2325  0.0522  0.2581
 1854TIP3    H129757   6.308   7.660  13.384  1.2399  1.8286  1.7432
 1854TIP3    H229758   6.447   7.610  13.349  0.1240 -0.2373  0.0671
 1855TIP3   OH229759   0.527   6.386  13.530 -0.2769 -0.1597  0.1399
 1855TIP3    H129760   0.485   6.326  13.468  1.0284 -1.5578  0.5323
 1855TIP3    H229761   0.561   6.457  13.476  0.3492 -1.0708 -0.7110
 1856TIP3   OH229762   7.704   5.541  13.671  0.5485  0.0840  0.0650
 1856TIP3    H129763   7.792   5.544  13.632  1.4294 -1.6551  1.7331
 1856TIP3    H229764   7.692   5.629  13.708  1.0517  0.7209 -1.2087
 1857TIP3   OH229765   0.176   7.036  13.560  0.0763  0.5249 -0.0756
 1857TIP3    H129766   0.085   7.064  13.553  0.4393  1.6182 -0.5631
 1857TIP3    H229767   0.226   7.107  13.522  1.0079 -0.9811 -1.8015
 1858TIP3   OH229768   7.653   0.092  14.906 -0.2540  0.1177  0.5425
 1858TIP3    H129769   7.583   0.158  14.897 -1.2599 -0.9282  0.4610
 1858TIP3    H229770   7.674   0.067  14.816 -0.3861 -0.1829  0.5928
 1859TIP3   OH229771   0.523   6.303  13.233 -0.3967 -0.0500  0.2237
 1859TIP3    H129772   0.612   6.279  13.259 -0.7863 -1.4354  0.3535
 1859TIP3    H229773   0.469   6.229  13.260 -1.4035  0.2077 -0.9677
 1860TIP3   OH229774   2.425   6.728  13.667  0.0694 -0.3261  0.5335
 1860TIP3    H129775   2.373   6.792  13.716 -1.7372 -1.1467 -0.2427
 1860TIP3    H229776   2.382   6.644  13.682  0.0081 -0.7536 -1.6638
 1861TIP3   OH229777   1.462   5.080  14.458 -0.7108  0.0790 -0.3420
 1861TIP3    H129778   1.497   4.994  14.436 -0.4172 -0.1339  0.8619
 1861TIP3    H229779   1.471   5.086  14.553 -1.0266  1.3125 -0.3675
 1862TIP3   OH229780   5.326   4.730  14.477  0.3601 -0.0530  0.2187
 1862TIP3    H129781   5.358   4.741  14.566 -0.5544 -0.9360  0.6866
 1862TIP3    H229782   5.302   4.637  14.471 -2.0798  0.5105 -0.0542
 1863TIP3   OH229783   2.668   3.787  14.365 -0.4043  1.1009 -0.2106
 1863TIP3    H129784   2.689   3.786  14.458 -1.3551 -0.7130  0.0152
 1863TIP3    H229785   2.608   3.861  14.355  0.6143  2.0493  0.3522
 1864TIP3   OH229786   1.831   7.479  13.926  0.5310  0.1661 -0.3846
 1864TIP3    H129787   1.880   7.528  13.991  0.6671  0.4392 -0.6878
 1864TIP3    H229788   1.887   7.479  13.848 -0.5787  1.8479 -1.2650
 1865TIP3   OH229789   8.357   1.091  13.906 -0.1214 -0.2924  0.2853
 1865TIP3    H129790   8.297   1.150  13.859 -0.2262 -0.5394  0.1084
 1865TIP3    H229791   8.429   1.076  13.844  0.2001  0.1189  0.5514
 1866TIP3   OH229792   3.349   4.336  12.620  0.9647  0.3010 -0.5720
 1866TIP3    H129793   3.343   4.247  12.654  1.2821  0.4742 -0.0481
 1866TIP3    H229794   3.442   4.349  12.603  0.6875 -0.2983 -2.9651
 1867TIP3   OH229795   7.446   2.836  14.169 -0.0125  0.2292 -0.1088
 1867TIP3    H129796   7.457   2.914  14.115  1.5072  0.6917  0.7901
 1867TIP3    H229797   7.374   2.788  14.129  0.3087  1.1228 -1.8319
 1868TIP3   OH229798   0.828   0.496  13.792 -0.2125  0.1875 -0.9212
 1868TIP3    H129799   0.836   0.513  13.885 -5.2416 -0.4267 -0.0625
 1868TIP3    H229800   0.850   0.403  13.782  0.9084  0.3958 -0.5273
 1869TIP3   OH229801   3.143   6.736  15.316 -0.3115 -0.2479 -0.0782
 1869TIP3    H129802   3.195   6.806  15.356  0.3519 -1.7366  1.8881
 1869TIP3    H229803   3.135   6.761  15.224  1.7989  1.2882  0.0667
 1870TIP3   OH229804   5.218   2.982  14.702 -0.6247  0.2698 -0.1179
 1870TIP3    H129805   5.295   2.926  14.696 -0.5417  0.4132 -0.4242
 1870TIP3    H229806   5.157   2.946  14.637 -0.4906  0.6566 -0.4634
 1871TIP3   OH229807   8.399   6.647  14.799 -0.1319 -0.2290  0.0508
 1871TIP3    H129808   8.313   6.606  14.806  0.1317 -0.5257  2.8024
 1871TIP3    H229809   8.461   6.574  14.801  0.2329  0.0793  1.5358
 1872TIP3   OH229810   4.221   1.896  14.324  0.3051  0.3609  0.0181
 1872TIP3    H129811   4.208   1.969  14.262  1.2635  0.8781  0.3968
 1872TIP3    H229812   4.288   1.929  14.385  0.0397 -0.4856  0.7777
 1873TIP3   OH229813   6.074   2.055  14.038 -0.4256 -0.7470 -0.1463
 1873TIP3    H129814   6.026   2.138  14.036  1.1084  0.2385  1.0353
 1873TIP3    H229815   6.059   2.017  13.952 -1.4486  0.6042 -0.6071
 1874TIP3   OH229816   6.331   8.345  14.790 -0.5153 -0.3538 -0.4879
 1874TIP3    H129817   6.417   8.308  14.770 -0.9698 -1.2683 -0.8421
 1874TIP3    H229818   6.325   8.341  14.885  0.4716  1.2470 -0.3203
 1875TIP3   OH229819   4.470   1.109  12.635 -0.5225  0.3238  0.0188
 1875TIP3    H129820   4.401   1.065  12.586 -0.5331  0.1950  0.1474
 1875TIP3    H229821   4.545   1.050  12.629  0.7251  1.9771 -3.0499
 1876TIP3   OH229822   5.685   4.696  14.667 -0.2365  0.1200 -0.1347
 1876TIP3    H129823   5.770   4.664  14.638 -1.0136 -1.5383 -0.6866
 1876TIP3    H229824   5.706   4.765  14.730  1.5293 -0.8508  0.4039
 1877TIP3   OH229825   0.689   0.040  14.240  0.1521  0.0633 -0.2075
 1877TIP3    H129826   0.772   0.087  14.242 -0.4468  1.1121  0.4214
 1877TIP3    H229827   0.669   0.031  14.147  1.2961 -0.8289 -0.4002
 1878TIP3   OH229828   6.015   6.251  14.316  0.2030  0.0397  0.2025
 1878TIP3    H129829   6.067   6.189  14.367 -0.1666 -0.6277 -0.2204
 1878TIP3    H229830   6.048   6.241  14.226 -1.4286 -1.2603 -0.2981
 1879TIP3   OH229831   3.846   4.941  13.765 -0.1783  0.5139 -0.5011
 1879TIP3    H129832   3.807   4.931  13.678  1.8335  0.6175 -1.4790
 1879TIP3    H229833   3.869   5.034  13.771  0.0313  0.4357 -0.0186
 1880TIP3   OH229834   4.166   3.259  15.020  0.6262  0.7116  0.4103
 1880TIP3    H129835   4.109   3.210  14.960  0.2109 -0.8975  2.0170
 1880TIP3    H229836   4.253   3.221  15.006  0.4778  0.1328  0.9774
 1881TIP3   OH229837   2.497   0.654  13.015 -0.0857 -0.0083 -0.0935
 1881TIP3    H129838   2.429   0.662  12.948 -2.0359  0.5491  1.8267
 1881TIP3    H229839   2.468   0.582  13.070  0.8177  0.3140  0.8457
 1882TIP3   OH229840   5.743   5.326  12.629  0.1504  0.6587 -0.2048
 1882TIP3    H129841   5.682   5.291  12.564  0.6511 -0.3903 -0.1474
 1882TIP3    H229842   5.796   5.250  12.654  1.2277  1.4602  0.0178
 1883TIP3   OH229843   8.209   6.181  14.822  0.3109 -0.1455 -0.2605
 1883TIP3    H129844   8.153   6.112  14.787  0.5511 -1.1385  1.2166
 1883TIP3    H229845   8.188   6.183  14.915  2.6156 -0.4587  0.3196
 1884TIP3   OH229846   4.428   1.211  14.891 -0.6240  0.3701  0.0550
 1884TIP3    H129847   4.481   1.238  14.816 -2.0543  0.7972 -0.8415
 1884TIP3    H229848   4.461   1.263  14.964  1.0582 -0.3417 -0.1544
 1885TIP3   OH229849   0.749   1.783  14.897 -0.1244 -0.3607 -0.1852
 1885TIP3    H129850   0.725   1.830  14.977  1.2470  1.0510 -0.5637
 1885TIP3    H229851   0.679   1.804  14.835  1.1847  2.5949 -0.8501
 1886TIP3   OH229852   7.534   4.056  14.067 -0.3767 -0.5147 -0.0052
 1886TIP3    H129853   7.504   3.990  14.130  0.8341 -0.1936  0.9403
 1886TIP3    H229854   7.489   4.136  14.092 -0.8472 -0.6772 -0.3303
 1887TIP3   OH229855   4.807   0.176  13.119  0.0502 -0.0272 -0.5013
 1887TIP3    H129856   4.829   0.213  13.033  1.3773 -0.6047 -0.4199
 1887TIP3    H229857   4.785   0.252  13.172 -0.6546  0.3508 -1.2963
 1888TIP3   OH229858   8.137   4.285  14.619  0.6860  0.2501  0.4068
 1888TIP3    H129859   8.160   4.359  14.674 -0.0443  0.3632  0.5737
 1888TIP3    H229860   8.181   4.210  14.660  2.1686  0.7104 -0.2781
 1889TIP3   OH229861   3.277   7.777  14.699 -0.6977  0.3037 -0.1764
 1889TIP3    H129862   3.344   7.754  14.764 -1.7518  0.2382  0.9207
 1889TIP3    H229863   3.210   7.710  14.710  0.2617 -1.3451 -3.2258
 1890TIP3   OH229864   4.685   5.344  14.629  0.0798 -0.3387  0.2539
 1890TIP3    H129865   4.627   5.373  14.699  1.8648 -0.1873  1.7646
 1890TIP3    H229866   4.686   5.248  14.637 -0.4165 -0.3790 -0.1611
 1891TIP3   OH229867   5.782   2.292  13.673 -0.3411  0.1226 -0.0147
 1891TIP3    H129868   5.687   2.293  13.684 -0.3108  0.0136  0.2705
 1891TIP3    H229869   5.795   2.265  13.583 -0.5649 -0.6553  0.1774
 1892TIP3   OH229870   8.389   2.415  13.541 -0.3923  0.5657 -0.1609
 1892TIP3    H129871   8.374   2.461  13.459  0.7951 -0.0587 -0.7573
 1892TIP3    H229872   8.368   2.324  13.522  2.3646 -0.0851 -0.6183
 1893TIP3   OH229873   3.407   3.360  14.424  0.3893 -0.0163  0.8065
 1893TIP3    H129874   3.362   3.406  14.494  1.1574  1.1150  0.5939
 1893TIP3    H229875   3.366   3.392  14.344  0.8569  0.2344  0.6623
 1894TIP3   OH229876   2.943   0.779  14.920  0.3219  0.0424 -0.0618
 1894TIP3    H129877   2.969   0.709  14.860  0.7482  0.2202 -0.0849
 1894TIP3    H229878   2.851   0.760  14.939  0.7768 -1.2767  0.9630
 1895TIP3   OH229879   6.781   1.909  14.607 -0.2645  0.1448  0.1014
 1895TIP3    H129880   6.765   1.848  14.679 -1.2876  1.5704  1.1133
 1895TIP3    H229881   6.872   1.937  14.619 -0.6050  0.8198  1.1918
 1896TIP3   OH229882   8.447   0.918  14.216  0.4670  0.1395  0.4278
 1896TIP3    H129883   8.501   0.928  14.138 -1.8295 -0.4362 -1.3618
 1896TIP3    H229884   8.469   0.832  14.251 -0.1319 -0.6301 -1.0221
 1897TIP3   OH229885   5.498   3.234  13.091  0.4178 -0.5710  0.0687
 1897TIP3    H129886   5.565   3.276  13.036 -0.8999  1.1604 -0.2812
 1897TIP3    H229887   5.487   3.293  13.165  0.2122 -1.5224  0.8128
 1898TIP3   OH229888   0.921   5.314  14.393  0.3317  0.2410 -0.6502
 1898TIP3    H129889   0.991   5.341  14.334  1.3160  1.9415  1.2075
 1898TIP3    H229890   0.912   5.220  14.377  1.3451  0.4329 -2.6432
 1899TIP3   OH229891   2.848   1.123  14.316 -0.1466  0.1377  0.4526
 1899TIP3    H129892   2.928   1.174  14.320  0.6485 -1.0900  0.7738
 1899TIP3    H229893   2.846   1.088  14.227 -0.1551 -0.0880  0.5400
 1900TIP3   OH229894   6.162   0.869  14.943  0.3346 -0.4625  0.1367
 1900TIP3    H129895   6.183   0.814  14.867 -0.3217 -1.3566  0.5821
 1900TIP3    H229896   6.112   0.811  15.000  0.7050  0.2440  1.1916
 1901TIP3   OH229897   0.812   6.964  13.850  0.4992 -0.0925  0.2295
 1901TIP3    H129898   0.830   6.890  13.907 -0.7346 -0.3107  0.3701
 1901TIP3    H229899   0.892   7.015  13.850  1.3710 -1.4219  0.1292
 1902TIP3   OH229900   2.335   6.327  13.229 -0.2124 -0.0053 -0.8852
 1902TIP3    H129901   2.359   6.255  13.287 -1.4602 -0.4460 -0.8812
 1902TIP3    H229902   2.416   6.350  13.183  0.8283  0.3959  1.0465
 1903TIP3   OH229903   5.788   6.442  14.003 -0.4210  0.1917  0.0877
 1903TIP3    H129904   5.788   6.529  14.044 -1.0308  0.8299 -1.1834
 1903TIP3    H229905   5.819   6.458  13.914 -1.7260 -0.6850 -0.5519
 1904TIP3   OH229906   4.493   5.298  13.847  0.3581 -0.4454  0.0164
 1904TIP3    H129907   4.533   5.246  13.777  1.5512 -1.6129  1.5131
 1904TIP3    H229908   4.554   5.371  13.859  0.0721 -0.1587 -0.2397
 1905TIP3   OH229909   1.679   3.485  14.208  0.7920  0.2648 -0.8232
 1905TIP3    H129910   1.634   3.429  14.144 -2.6953  2.0484 -0.1114
 1905TIP3    H229911   1.687   3.431  14.286 -0.4012 -0.0248 -0.8886
 1906TIP3   OH229912   8.024   0.095  13.038 -0.2283 -0.4448  0.7077
 1906TIP3    H129913   8.021   0.130  13.127  0.3151 -1.9099  1.3342
 1906TIP3    H229914   7.932   0.078  13.016 -0.3976  0.2768  0.8321
 1907TIP3   OH229915   6.994   4.469  13.030  0.0139  0.3196  0.2081
 1907TIP3    H129916   6.999   4.465  12.935 -1.1644  2.8046 -0.0399
 1907TIP3    H229917   6.995   4.563  13.050 -1.0450 -0.0935  2.5502
 1908TIP3   OH229918   6.833   4.114  13.933 -0.2391 -0.1490  0.6303
 1908TIP3    H129919   6.761   4.157  13.886 -0.2825  0.2296  1.0399
 1908TIP3    H229920   6.856   4.039  13.878 -0.9655 -0.2890  0.5127
 1909TIP3   OH229921   5.892   2.584  15.145 -0.7032  0.1616 -0.3841
 1909TIP3    H129922   5.846   2.541  15.072 -1.1579  1.0960 -0.6647
 1909TIP3    H229923   5.967   2.527  15.162 -2.3344 -1.8568  0.6198
 1910TIP3   OH229924   8.008   7.039  13.462 -0.0512  0.2459 -0.1880
 1910TIP3    H129925   7.919   7.074  13.458 -0.2583 -0.3267 -0.8885
 1910TIP3    H229926   8.064   7.115  13.444 -0.4762  0.3449 -1.2082
 1911TIP3   OH229927   0.763   0.341  14.582 -0.1527 -0.0331 -0.4520
 1911TIP3    H129928   0.745   0.417  14.527 -2.1056 -0.5805 -0.6474
 1911TIP3    H229929   0.829   0.291  14.534  0.1233  0.8300 -0.9849
 1912TIP3   OH229930   0.410   3.104  15.160 -0.0442  0.5339 -0.6466
 1912TIP3    H129931   0.409   3.021  15.112 -0.9414 -0.0194  0.2889
 1912TIP3    H229932   0.321   3.113  15.194  0.4358  1.1530  0.4897
 1913TIP3   OH229933   1.180   4.726  14.992 -0.3053 -0.2810  0.0281
 1913TIP3    H129934   1.134   4.679  14.922 -0.4598  1.5507 -1.1839
 1913TIP3    H229935   1.155   4.680  15.072 -1.7692 -1.2151 -0.9120
 1914TIP3   OH229936   1.015   8.229  14.359  0.1597 -0.0145 -0.0972
 1914TIP3    H129937   0.931   8.183  14.365  0.6333 -0.8909  0.0496
 1914TIP3    H229938   1.066   8.177  14.296  0.9545 -0.0968  0.6030
 1915TIP3   OH229939   6.582   6.314  13.473 -0.1932  0.0411  0.1432
 1915TIP3    H129940   6.616   6.253  13.408  0.4064  0.4634  0.0527
 1915TIP3    H229941   6.659   6.365  13.501 -0.1941 -0.9435  2.0810
 1916TIP3   OH229942   4.491   4.583  14.070  0.0909 -0.2714  0.3494
 1916TIP3    H129943   4.463   4.498  14.104  1.0290 -1.1470 -0.9500
 1916TIP3    H229944   4.468   4.580  13.977  0.4108  0.7689  0.2243
 1917TIP3   OH229945   7.700   1.768  12.958 -0.4103 -0.2609 -0.3738
 1917TIP3    H129946   7.781   1.738  12.918  0.1921  0.5687  0.1702
 1917TIP3    H229947   7.717   1.765  13.052 -1.4945 -1.3576 -0.1942
 1918TIP3   OH229948   6.511   0.250  14.139 -0.6168 -0.3570  0.2094
 1918TIP3    H129949   6.461   0.183  14.186 -0.0803 -1.3924 -0.6457
 1918TIP3    H229950   6.594   0.207  14.118  0.4397  1.1484  1.1299
 1919TIP3   OH229951   7.022   4.128  14.136  0.5415 -0.2175 -0.0626
 1919TIP3    H129952   7.074   4.208  14.142 -0.8097  0.6201  1.4178
 1919TIP3    H229953   6.971   4.139  14.055  2.5703 -1.0603 -1.5363
 1920TIP3   OH229954   2.679   1.472  14.815 -0.3045 -0.4768 -0.0927
 1920TIP3    H129955   2.726   1.527  14.877 -1.6751  0.6191  0.0164
 1920TIP3    H229956   2.599   1.446  14.861 -1.3476  0.3585 -1.3399
 1921TIP3   OH229957   7.554   5.262  14.644 -0.2184 -0.0498  0.1472
 1921TIP3    H129958   7.557   5.286  14.552  1.9949  0.3798  0.2677
 1921TIP3    H229959   7.593   5.337  14.689 -0.5114 -0.5965  1.3473
 1922TIP3   OH229960   2.456   3.858  14.085 -0.6509  0.0295  0.3078
 1922TIP3    H129961   2.524   3.921  14.108 -0.3658  0.7873 -2.2127
 1922TIP3    H229962   2.374   3.900  14.111 -0.3149  0.2856  0.9656
 1923TIP3   OH229963   4.586   4.863  13.752  0.0808 -0.0941 -0.3290
 1923TIP3    H129964   4.582   4.891  13.843  1.6279  0.8909 -0.5152
 1923TIP3    H229965   4.673   4.823  13.743  0.4117  0.8303 -1.6038
 1924TIP3   OH229966   0.639   4.472  14.067 -0.0188  0.2314  0.5099
 1924TIP3    H129967   0.678   4.551  14.104  3.0885 -1.5360  1.3538
 1924TIP3    H229968   0.576   4.443  14.134 -0.1898  1.2176  0.7950
 1925TIP3   OH229969   0.292   8.067  12.918 -0.0040  0.2171 -0.2548
 1925TIP3    H129970   0.374   8.083  12.965  0.0715  0.0314 -0.3218
 1925TIP3    H229971   0.259   7.985  12.954  0.0026  0.1254 -0.4544
 1926TIP3   OH229972   6.233   3.756  14.243  0.1704 -0.0204  0.0086
 1926TIP3    H129973   6.311   3.701  14.235  0.9090  1.0645 -0.4418
 1926TIP3    H229974   6.254   3.819  14.311  0.2132  1.1053 -1.0176
 1927TIP3   OH229975   6.298   6.540  14.785  0.0376  0.5687  0.4806
 1927TIP3    H129976   6.313   6.614  14.726  2.1439 -0.3294 -0.1994
 1927TIP3    H229977   6.313   6.463  14.731  4.5979 -0.3484  2.5183
 1928TIP3   OH229978   7.767   4.199  14.811  0.6923 -0.2036  0.0447
 1928TIP3    H129979   7.760   4.260  14.737  1.0624 -0.6915 -0.4065
 1928TIP3    H229980   7.677   4.181  14.836  0.6015  1.4380  0.9531
 1929TIP3   OH229981   2.845   1.770  13.709 -0.0028 -0.4788  0.1020
 1929TIP3    H129982   2.881   1.747  13.623 -0.5881 -0.5208 -0.1308
 1929TIP3    H229983   2.923   1.781  13.764  0.4347  0.6040 -0.6941
 1930TIP3   OH229984   0.085   2.057  14.517  0.2189 -0.0271  0.0100
 1930TIP3    H129985   0.081   1.968  14.551 -0.1320  0.1506  0.4449
 1930TIP3    H229986   0.158   2.098  14.563  0.1423  0.0244  0.0853
 1931TIP3   OH229987   2.229   2.846  14.981  0.7974 -0.1365  0.3369
 1931TIP3    H129988   2.176   2.920  15.010  2.2528  0.5850  1.3030
 1931TIP3    H229989   2.202   2.831  14.890 -2.6880 -1.3691  1.4278
 1932TIP3   OH229990   2.435   4.599  13.584  0.0330 -0.0617  0.6435
 1932TIP3    H129991   2.511   4.574  13.531  1.2231  1.9005  1.2885
 1932TIP3    H229992   2.426   4.693  13.569 -1.1344  0.0746  2.0195
 1933TIP3   OH229993   7.872   5.111  14.389 -0.3460  0.0614  0.8251
 1933TIP3    H129994   7.960   5.140  14.365  0.1290  0.1116  2.5330
 1933TIP3    H229995   7.864   5.025  14.347 -0.0929  0.6872 -0.5970
 1934TIP3   OH229996   1.158   0.225  14.035 -0.5596 -0.4006  0.1919
 1934TIP3    H129997   1.196   0.137  14.043 -3.1138 -1.4413  2.2993
 1934TIP3    H229998   1.223   0.275  13.986  1.5161 -3.1399 -0.0723
 1935TIP3   OH229999   7.851   3.011  12.982 -0.3136  0.4677 -0.2460
 1935TIP3    H130000   7.913   2.951  12.941 -0.1977  1.0979 -1.0099
 1935TIP3    H230001   7.882   3.098  12.958 -0.9223  0.8159  0.2046
 1936TIP3   OH230002   0.118   4.171  14.422 -0.1648 -0.1115  0.2203
 1936TIP3    H130003   0.162   4.118  14.355  0.3596  1.1128 -0.4455
 1936TIP3    H230004   0.033   4.130  14.433 -1.0028  0.6579 -2.5325
 1937TIP3   OH230005   7.212   4.931  13.293  0.5560  0.5957  0.0470
 1937TIP3    H130006   7.231   5.009  13.344  0.0701  1.1075 -0.5409
 1937TIP3    H230007   7.245   4.950  13.205  2.0094 -0.5437  0.2948
 1938TIP3   OH230008   4.734   3.574  13.998  0.7568 -0.2121  0.1404
 1938TIP3    H130009   4.681   3.653  13.992 -0.5962 -1.0755  0.1306
 1938TIP3    H230010   4.806   3.598  14.056  0.0153  0.8481  0.6688
 1939TIP3   OH230011   1.107   1.577  14.838 -0.2362  0.1906 -0.4306
 1939TIP3    H130012   1.077   1.538  14.920  0.2585  2.4431  0.9063
 1939TIP3    H230013   1.040   1.552  14.774 -1.9571  0.4071  1.1953
 1940TIP3   OH230014   7.349   4.061  14.916  0.1813 -0.2254  0.1504
 1940TIP3    H130015   7.343   4.143  14.966  0.4320 -1.2408  1.9338
 1940TIP3    H230016   7.443   4.046  14.906  0.1320 -0.1448 -0.4550
 1941TIP3   OH230017   6.969   5.463  14.712 -0.2614  0.3258 -0.2439
 1941TIP3    H130018   6.935   5.529  14.772 -1.1997 -1.1043  0.8566
 1941TIP3    H230019   6.991   5.512  14.632 -1.8664  1.7915  0.1663
 1942TIP3   OH230020   2.769   0.324  14.654  0.0380 -0.0352 -0.2286
 1942TIP3    H130021   2.835   0.351  14.590 -0.0531 -1.6237 -1.0402
 1942TIP3    H230022   2.686   0.353  14.617  0.1752  1.4944  0.5430
 1943TIP3   OH230023   3.314   4.845  14.366  0.5373  0.5534  0.4898
 1943TIP3    H130024   3.288   4.812  14.452  1.8895 -1.0335  0.3348
 1943TIP3    H230025   3.284   4.777  14.305  0.0088  1.4468 -0.2694
 1944TIP3   OH230026   4.529   6.094  14.567  0.5475  0.3883  0.5439
 1944TIP3    H130027   4.607   6.064  14.614  1.2468  1.0784 -0.1431
 1944TIP3    H230028   4.476   6.015  14.554  1.1840 -0.1081  0.9084
 1945TIP3   OH230029   4.191   4.396  13.850 -0.2206  0.0109 -0.4711
 1945TIP3    H130030   4.215   4.316  13.803  0.4238  1.0702 -2.0476
 1945TIP3    H230031   4.262   4.457  13.830 -2.0954  1.9145 -1.7836
 1946TIP3   OH230032   4.707   8.076  14.505 -0.0033 -0.9902  0.1698
 1946TIP3    H130033   4.739   8.132  14.575  0.4654 -1.9580  0.7543
 1946TIP3    H230034   4.777   8.078  14.439 -1.5116  2.0140 -1.5877
 1947TIP3   OH230035   6.626   8.364  13.766 -0.1394  0.2045  0.4443
 1947TIP3    H130036   6.625   8.316  13.849 -1.2024  0.5822  0.6618
 1947TIP3    H230037   6.716   8.396  13.759  0.8836 -2.4767 -0.1230
 1948TIP3   OH230038   2.632   4.043  14.161  0.0830 -0.0748  0.0360
 1948TIP3    H130039   2.568   4.107  14.191  0.3703 -0.1335  0.8201
 1948TIP3    H230040   2.660   4.074  14.075 -1.0760 -0.1139 -0.3653
 1949TIP3   OH230041   2.162   6.036  13.838 -0.3267 -1.0311 -0.4795
 1949TIP3    H130042   2.099   6.107  13.851 -1.5529 -2.3013  0.9325
 1949TIP3    H230043   2.113   5.971  13.787 -0.2615 -2.0917  0.7472
 1950TIP3   OH230044   1.173   6.144  14.899 -0.2561 -0.9525  0.4248
 1950TIP3    H130045   1.116   6.069  14.886  0.9456 -1.7245 -0.6103
 1950TIP3    H230046   1.229   6.120  14.973 -1.2297 -0.1950  1.4424
 1951TIP3   OH230047   8.274   6.588  15.081  0.0911  0.0504  0.0100
 1951TIP3    H130048   8.293   6.603  15.173  1.2742 -0.5561 -0.1184
 1951TIP3    H230049   8.333   6.518  15.055 -1.4966 -1.0887 -0.7472
 1952TIP3   OH230050   1.652   1.710  13.933 -0.2044  0.1426 -0.0152
 1952TIP3    H130051   1.681   1.622  13.957 -2.6058 -0.7837 -0.2388
 1952TIP3    H230052   1.605   1.742  14.010  1.4163  1.6646  0.4101
 1953TIP3   OH230053   4.456   2.301  13.296 -0.1304 -0.1856 -0.3693
 1953TIP3    H130054   4.396   2.352  13.242 -1.0396  0.9538  1.5856
 1953TIP3    H230055   4.423   2.211  13.289 -1.2058  0.1978 -0.4788
 1954TIP3   OH230056   2.240   0.197  14.171 -0.6007  0.2048  0.6703
 1954TIP3    H130057   2.205   0.238  14.092  1.2024 -1.5827 -1.1401
 1954TIP3    H230058   2.179   0.127  14.191  0.1069 -0.7794 -0.5134
 1955TIP3   OH230059   1.869   2.972  14.018  0.0600 -0.0850  0.2791
 1955TIP3    H130060   1.831   3.014  13.941  0.6454  1.5326  0.8348
 1955TIP3    H230061   1.963   2.990  14.012  0.2845 -1.0114  0.7386
 1956TIP3   OH230062   7.904   6.074  14.158 -0.5130  0.2613 -0.3326
 1956TIP3    H130063   7.998   6.056  14.165 -0.8809 -1.5843  0.5879
 1956TIP3    H230064   7.867   6.038  14.239 -2.1301  0.0767 -1.1141
 1957TIP3   OH230065   5.010   0.806  12.283 -0.2214 -0.6398  0.0466
 1957TIP3    H130066   4.989   0.811  12.189 -0.7699  2.1881  0.2600
 1957TIP3    H230067   4.926   0.789  12.325 -0.0611 -1.3246  0.1173
 1958TIP3   OH230068   6.279   1.563  14.182 -0.2499  0.3470  0.2397
 1958TIP3    H130069   6.352   1.593  14.237  0.6698 -2.1658  0.5143
 1958TIP3    H230070   6.305   1.476  14.154 -2.5623 -0.0532 -0.8392
 1959TIP3   OH230071   7.877   6.329  14.068  0.0297 -0.1118 -0.0761
 1959TIP3    H130072   7.896   6.254  14.125 -1.9051 -0.9007 -0.3794
 1959TIP3    H230073   7.807   6.376  14.112 -0.3693  0.1923 -1.0057
 1960TIP3   OH230074   6.888   1.325  14.293  0.4088 -0.2085  0.2732
 1960TIP3    H130075   6.967   1.282  14.327  0.2137 -1.5304 -0.8572
 1960TIP3    H230076   6.904   1.332  14.199 -1.0967 -1.1738 -0.0870
 1961TIP3   OH230077   0.752   4.988  13.649 -0.2619 -0.4241  0.7057
 1961TIP3    H130078   0.775   5.079  13.668  0.3841 -0.3447 -0.3944
 1961TIP3    H230079   0.701   4.992  13.568 -0.1835 -1.0481  0.6207
 1962TIP3   OH230080   4.533   4.501  13.456  0.1414 -0.0905 -0.1477
 1962TIP3    H130081   4.496   4.571  13.510  1.5140  0.7037 -0.1793
 1962TIP3    H230082   4.599   4.545  13.402  1.5441 -1.5028  0.3279
 1963TIP3   OH230083   8.010   4.750  14.403 -0.3916 -0.0432  0.2024
 1963TIP3    H130084   8.100   4.766  14.372  0.0417 -1.2924  0.7413
 1963TIP3    H230085   8.002   4.654  14.404 -1.1784  0.0072  1.6848
 1964TIP3   OH230086   1.511   6.809  14.958 -0.3482 -0.3369  0.4092
 1964TIP3    H130087   1.424   6.825  14.995 -0.3373  0.1532  0.2276
 1964TIP3    H230088   1.535   6.722  14.991  0.0766  0.4741  2.3434
 1965TIP3   OH230089   0.226   1.534  15.034  0.0441  0.5329 -0.4570
 1965TIP3    H130090   0.157   1.490  14.986 -0.5445  0.8351  0.0994
 1965TIP3    H230091   0.306   1.487  15.010 -0.3768  0.0548 -0.9449
 1966TIP3   OH230092   5.498   4.631  13.658  0.1549 -0.4053  0.1600
 1966TIP3    H130093   5.579   4.638  13.707  0.8428  0.4488 -1.0210
 1966TIP3    H230094   5.458   4.550  13.688  1.3354 -0.7289  0.9270
 1967TIP3   OH230095   1.556   2.770  14.777 -0.8977  0.7804 -0.3205
 1967TIP3    H130096   1.518   2.765  14.690 -0.7756  1.1176 -0.3948
 1967TIP3    H230097   1.491   2.730  14.834 -0.6552 -0.1329 -0.6628
 1968TIP3   OH230098   3.200   4.790  15.139  0.2135 -0.5879  0.0317
 1968TIP3    H130099   3.126   4.846  15.118  1.1118  0.0235 -1.7279
 1968TIP3    H230100   3.220   4.810  15.231 -0.7574  0.4410  0.0404
 1969TIP3   OH230101   3.868   6.770  15.470  0.2903  0.1044 -0.0441
 1969TIP3    H130102   3.943   6.718  15.501  0.0405  0.2350  0.7896
 1969TIP3    H230103   3.824   6.713  15.407  0.3825 -0.4541  0.3901
 1970TIP3   OH230104   1.400   2.016  15.055 -0.0923  0.0646 -0.2784
 1970TIP3    H130105   1.341   2.072  15.004  0.6877  1.1914  0.0134
 1970TIP3    H230106   1.345   1.945  15.086 -1.0002  0.3795 -1.1159
 1971TIP3   OH230107   6.320   0.821  12.628  0.2598  0.1619 -0.0605
 1971TIP3    H130108   6.289   0.838  12.539 -1.0890  2.6544  0.7877
 1971TIP3    H230109   6.414   0.807  12.619  0.2768  1.1674 -1.7817
 1972TIP3   OH230110   4.899   5.217  14.458  0.0933  0.2981  0.1171
 1972TIP3    H130111   4.923   5.136  14.502 -0.7953  0.9762  1.9683
 1972TIP3    H230112   4.814   5.241  14.497 -0.1319  1.5930 -1.0990
 1973TIP3   OH230113   7.321   0.991  13.971 -0.5238  0.8640 -0.4036
 1973TIP3    H130114   7.343   1.054  13.902 -1.0002 -0.6425 -2.0378
 1973TIP3    H230115   7.226   0.994  13.976 -0.5765  0.1062 -0.7241
 1974TIP3   OH230116   1.098   3.161  12.935 -0.1472  0.3312 -0.0597
 1974TIP3    H130117   1.147   3.220  12.878 -0.4627  1.5486  0.8741
 1974TIP3    H230118   1.158   3.088  12.953  1.4130  1.8286  1.1433
 1975TIP3   OH230119   2.539   6.991  14.150 -0.0738 -0.2802  0.3669
 1975TIP3    H130120   2.451   6.999  14.187 -0.5153 -1.8054 -0.2719
 1975TIP3    H230121   2.598   6.995  14.226 -0.7986 -0.8261  0.9721
 1976TIP3   OH230122   0.264   7.992  15.092  0.2117 -0.1248  0.4678
 1976TIP3    H130123   0.222   8.054  15.033  0.7304 -0.4209 -0.2341
 1976TIP3    H230124   0.351   7.977  15.053  1.0553  0.6093  1.9566
 1977TIP3   OH230125   5.541   4.429  13.256 -0.1957  0.5525  0.1853
 1977TIP3    H130126   5.551   4.360  13.321  0.9990  1.2436  0.7875
 1977TIP3    H230127   5.586   4.396  13.178 -0.0857  0.4379  0.2981
 1978TIP3   OH230128   7.437   5.103  13.215 -0.3695  0.0548  0.4848
 1978TIP3    H130129   7.450   5.186  13.171 -2.9620  0.0115 -0.5258
 1978TIP3    H230130   7.358   5.115  13.267 -0.8965 -1.7833  0.1964
 1979TIP3   OH230131   1.704   2.133  12.703 -0.3056 -0.5008 -0.2925
 1979TIP3    H130132   1.672   2.202  12.761 -0.3018  0.4826 -1.4155
 1979TIP3    H230133   1.673   2.158  12.616 -0.2316 -1.8820 -0.7456
 1980TIP3   OH230134   6.649   8.253  14.107  0.0739 -0.1196 -0.0159
 1980TIP3    H130135   6.560   8.220  14.119  0.5602 -1.3850  0.2362
 1980TIP3    H230136   6.697   8.180  14.068  1.0598  0.4794  0.0319
 1981TIP3   OH230137   2.507   3.432  14.750 -0.1459  0.3066  0.0968
 1981TIP3    H130138   2.488   3.392  14.665  0.9591 -0.1071  0.0346
 1981TIP3    H230139   2.555   3.512  14.729 -0.1279  0.3538  0.3168
 1982TIP3   OH230140   3.632   1.238  13.939  0.3371  0.1392 -0.0500
 1982TIP3    H130141   3.594   1.151  13.927 -1.2605  0.9387 -0.9953
 1982TIP3    H230142   3.647   1.245  14.033 -1.9357 -0.2115  0.3911
 1983TIP3   OH230143   2.028   2.839  13.461 -0.5939 -0.2013  0.2992
 1983TIP3    H130144   2.040   2.759  13.514 -0.6063  0.3281  1.1236
 1983TIP3    H230145   2.039   2.810  13.371 -1.5155 -1.3119  0.5277
 1984TIP3   OH230146   6.272   2.371  13.434  0.4345  0.2447 -0.1560
 1984TIP3    H130147   6.196   2.381  13.375 -0.3320 -1.8206  0.3853
 1984TIP3    H230148   6.234   2.338  13.516  1.7567  0.7497  0.6830
 1985TIP3   OH230149   2.624   7.136  14.666 -0.5203 -0.0755  0.2382
 1985TIP3    H130150   2.661   7.211  14.620  0.8204 -1.4066 -0.9576
 1985TIP3    H230151   2.683   7.122  14.740 -1.9822  1.3109  1.7327
 1986TIP3   OH230152   6.033   5.968  14.134  0.0345 -0.4804  0.0222
 1986TIP3    H130153   6.128   5.972  14.122 -0.1803 -1.3679 -2.7425
 1986TIP3    H230154   6.003   6.056  14.112  0.1254 -0.4580 -0.0146
 1987TIP3   OH230155   5.772   5.292  13.458 -0.0566 -0.0499 -0.1035
 1987TIP3    H130156   5.820   5.250  13.530  2.3779 -0.4292 -1.8126
 1987TIP3    H230157   5.794   5.385  13.466  0.0343 -0.0604 -0.2412
 1988TIP3   OH230158   0.165   2.453  15.077 -0.1993  0.6440  0.3193
 1988TIP3    H130159   0.083   2.486  15.041 -0.9918  0.6011  1.9953
 1988TIP3    H230160   0.233   2.491  15.022 -1.3154  1.1721 -0.7283
 1989TIP3   OH230161   1.716   3.093  14.521  0.4600 -0.7612  0.6465
 1989TIP3    H130162   1.771   3.164  14.489 -1.8687  0.9312  0.1554
 1989TIP3    H230163   1.688   3.047  14.442 -3.3815  1.9809  0.1468
 1990TIP3   OH230164   2.244   5.222  13.653  0.2785  0.6276 -0.0772
 1990TIP3    H130165   2.174   5.157  13.660 -1.3105  2.3422  0.8483
 1990TIP3    H230166   2.260   5.229  13.559 -0.7965  0.1959 -0.3166
 1991TIP3   OH230167   1.397   2.737  14.552  0.6717  0.1080  0.0934
 1991TIP3    H130168   1.306   2.756  14.532  0.6442  0.5831  0.6717
 1991TIP3    H230169   1.430   2.695  14.472  0.3377  1.2170 -0.6505
 1992TIP3   OH230170   1.423   5.339  12.932 -0.4963 -0.2612  0.0289
 1992TIP3    H130171   1.461   5.258  12.899  0.3132  0.3833 -0.6567
 1992TIP3    H230172   1.482   5.408  12.902 -0.8450  0.5387  1.1043
 1993TIP3   OH230173   0.816   1.676  14.649  0.0557  0.0055 -0.6745
 1993TIP3    H130174   0.828   1.719  14.734  1.9772 -0.7927 -0.4804
 1993TIP3    H230175   0.721   1.671  14.638 -0.2302  1.4962  0.7078
 1994TIP3   OH230176   8.370   7.690  12.984 -0.1785  0.1712 -0.1946
 1994TIP3    H130177   8.342   7.771  12.942  2.4283  0.4515 -1.5914
 1994TIP3    H230178   8.453   7.712  13.026 -0.5528 -1.2320  1.3800
 1995TIP3   OH230179   3.582   6.802  13.433 -0.2209 -0.2444  0.1545
 1995TIP3    H130180   3.533   6.884  13.438 -0.0045 -0.0958 -0.1562
 1995TIP3    H230181   3.626   6.796  13.518 -0.0219  0.1027  0.0810
 1996TIP3   OH230182   2.767   0.662  13.105 -0.5712 -0.3653 -0.0430
 1996TIP3    H130183   2.680   0.667  13.068 -0.3898  0.9904 -0.3359
 1996TIP3    H230184   2.765   0.584  13.161 -1.6150 -0.9737 -0.8931
 1997TIP3   OH230185   1.998   0.938  15.175  0.7096  0.1906 -0.4215
 1997TIP3    H130186   1.937   0.987  15.231  0.7181 -0.0747 -0.1792
 1997TIP3    H230187   1.950   0.858  15.152  0.9062  0.0555 -0.3586
 1998TIP3   OH230188   0.325   6.850  13.817  0.2303  0.0291  0.4858
 1998TIP3    H130189   0.388   6.906  13.862 -0.2228  0.0032  1.1784
 1998TIP3    H230190   0.312   6.776  13.877 -1.5453  0.7424  1.0419
 1999TIP3   OH230191   6.260   5.830  14.558  0.2798 -0.5748  0.3969
 1999TIP3    H130192   6.352   5.805  14.564  0.3876 -0.7773 -1.4766
 1999TIP3    H230193   6.215   5.772  14.620  1.2350 -1.5072  0.2481
 2000TIP3   OH230194   1.352   2.385  14.147 -0.0851  0.3394  0.0063
 2000TIP3    H130195   1.369   2.399  14.053 -0.1705  1.4550  0.1476
 2000TIP3    H230196   1.427   2.333  14.176 -0.7592 -1.2536 -0.9593
 2001TIP3   OH230197   1.993   4.767  13.691 -0.4742  0.1834 -0.1053
 2001TIP3    H130198   1.994   4.854  13.653  1.4773  0.5770  0.6922
 2001TIP3    H230199   1.909   4.761  13.736 -0.8440  1.4677 -0.5899
 2002TIP3   OH230200   5.529   5.693  13.546  0.7031  0.2271 -0.4275
 2002TIP3    H130201   5.512   5.611  13.593  1.0139 -0.4765 -1.4883
 2002TIP3    H230202   5.622   5.711  13.564 -0.0814  2.1209  2.4137
 2003TIP3   OH230203   6.139   1.130  13.927 -0.1222  0.5224 -0.0431
 2003TIP3    H130204   6.082   1.073  13.979  2.4064 -0.9860  1.2825
 2003TIP3    H230205   6.219   1.137  13.979  1.1522  2.0469 -2.0592
 2004TIP3   OH230206   3.607   2.698  14.776  0.5678 -0.0251  0.3764
 2004TIP3    H130207   3.572   2.619  14.818 -0.6008  0.6813  0.7746
 2004TIP3    H230208   3.573   2.770  14.829  1.2567  0.7746 -0.2461
 2005TIP3   OH230209   3.395   7.521  15.396  0.8081  0.0191 -0.0665
 2005TIP3    H130210   3.312   7.562  15.416  0.9283 -0.2917  1.1351
 2005TIP3    H230211   3.373   7.450  15.335  0.1448 -0.2722  0.5030
 2006TIP3   OH230212   1.595   1.357  14.070 -0.1128  0.7728 -0.2371
 2006TIP3    H130213   1.629   1.432  14.118 -1.8304  2.7086 -1.8889
 2006TIP3    H230214   1.546   1.307  14.136  1.0919  1.0203  0.8893
 2007TIP3   OH230215   0.196   1.730  13.510 -0.5287  0.1908  0.0862
 2007TIP3    H130216   0.236   1.739  13.597 -0.5925 -1.4684  0.3135
 2007TIP3    H230217   0.252   1.781  13.452  1.3123 -1.1598  0.5831
 2008TIP3   OH230218   8.267   6.274  14.258 -0.3735 -0.5217 -0.3278
 2008TIP3    H130219   8.270   6.180  14.240  1.2322 -0.4765 -0.4387
 2008TIP3    H230220   8.288   6.315  14.175 -1.1952 -0.0362 -0.3100
 2009TIP3   OH230221   0.930   4.795  13.767  0.4862  0.4391 -0.2471
 2009TIP3    H130222   0.862   4.856  13.738  0.5230  0.4414 -0.3267
 2009TIP3    H230223   1.010   4.828  13.727  0.4955  0.3016 -0.3402
 2010TIP3   OH230224   6.609   5.281  13.933  0.6363  0.1171 -0.0029
 2010TIP3    H130225   6.678   5.330  13.979  1.3212  0.0440 -0.9240
 2010TIP3    H230226   6.554   5.349  13.894  0.8632  0.1733 -0.2301
 2011TIP3   OH230227   2.018   5.370  13.710  0.2008  0.1248 -0.2544
 2011TIP3    H130228   2.102   5.329  13.734  0.6432  0.6247 -0.9135
 2011TIP3    H230229   1.956   5.338  13.776  1.4816  1.9600  2.0061
 2012TIP3   OH230230   0.741   4.330  13.197  0.3070  0.8586 -0.4551
 2012TIP3    H130231   0.668   4.268  13.208 -0.0342  1.1634 -0.9556
 2012TIP3    H230232   0.745   4.346  13.103  0.3752  1.6117 -0.3302
 2013TIP3   OH230233   6.010   1.080  14.397 -0.5196  0.0578 -0.1720
 2013TIP3    H130234   5.948   1.018  14.435  0.3141 -1.0646 -0.5784
 2013TIP3    H230235   6.040   1.132  14.471 -0.5301 -0.6587  0.3423
 2014TIP3   OH230236   1.013   7.331  14.082 -0.1786  0.6613 -0.0628
 2014TIP3    H130237   1.061   7.279  14.147  0.4342 -0.6072 -1.4643
 2014TIP3    H230238   1.060   7.414  14.078  1.3334 -0.1822 -0.6823
 2015TIP3   OH230239   4.172   3.781  13.579 -0.2077  0.0470  0.2342
 2015TIP3    H130240   4.212   3.749  13.661  1.8446 -0.4643 -0.9040
 2015TIP3    H230241   4.246   3.801  13.523 -1.5842  0.8274 -1.3612
 2016TIP3   OH230242   1.650   5.414  13.249 -0.0678 -0.5811  0.1258
 2016TIP3    H130243   1.689   5.397  13.163 -0.2617 -1.2649  0.1724
 2016TIP3    H230244   1.701   5.360  13.310 -2.1493 -2.8877 -0.0386
 2017TIP3   OH230245   3.483   0.604  14.552 -0.4810  0.2179 -0.0463
 2017TIP3    H130246   3.513   0.693  14.571 -1.1143  0.1420  1.4570
 2017TIP3    H230247   3.547   0.570  14.489  1.2902  0.8458  1.3241
 2018TIP3   OH230248   0.794   1.893  12.709 -0.4304 -0.1086  0.8074
 2018TIP3    H130249   0.875   1.869  12.754  0.2128  0.2951 -0.1054
 2018TIP3    H230250   0.801   1.987  12.694  0.4417 -0.5495 -2.1172
 2019TIP3   OH230251   3.074   3.883  14.807  0.0153  0.2275 -0.0027
 2019TIP3    H130252   3.145   3.947  14.807  0.0782  0.1565  0.2798
 2019TIP3    H230253   3.048   3.877  14.715 -0.5442  1.2732  0.0766
 2020TIP3   OH230254   6.497   4.756  14.355 -0.6006  0.4161 -0.2150
 2020TIP3    H130255   6.468   4.666  14.372 -3.2166  1.0341 -0.8452
 2020TIP3    H230256   6.592   4.751  14.348 -0.6336 -2.1815  0.3451
 2021TIP3   OH230257   3.740   4.659  13.328  0.4111  0.2790 -0.1398
 2021TIP3    H130258   3.668   4.599  13.347  2.1832 -1.5932  1.0121
 2021TIP3    H230259   3.819   4.605  13.332  1.9420  2.2660 -1.2376
 2022TIP3   OH230260   4.857   3.198  14.285  0.0595  0.3667 -0.4318
 2022TIP3    H130261   4.861   3.103  14.297  3.8405  0.5899  1.6145
 2022TIP3    H230262   4.853   3.211  14.191 -0.4617 -1.8101 -0.7516
 2023TIP3   OH230263   3.054   4.343  13.556  0.5737  0.4237  0.1473
 2023TIP3    H130264   2.988   4.400  13.515  0.6063  0.1586 -0.2849
 2023TIP3    H230265   3.085   4.393  13.631  1.2932  1.3938 -0.7601
 2024TIP3   OH230266   2.669   0.882  14.686  0.1054 -0.5067 -0.4302
 2024TIP3    H130267   2.758   0.870  14.652 -0.1268 -1.0782 -0.8476
 2024TIP3    H230268   2.624   0.931  14.617  0.4971  1.1174  0.4186
 2025TIP3   OH230269   4.633   3.428  14.290 -0.1701  0.2024 -0.2683
 2025TIP3    H130270   4.642   3.357  14.226 -0.5370 -2.1832  2.1296
 2025TIP3    H230271   4.538   3.439  14.300 -0.1817 -0.8225  1.1546
 2026TIP3   OH230272   5.077   5.982  13.806  0.2779  0.0227 -0.2579
 2026TIP3    H130273   4.981   5.988  13.810  0.4152  2.2111  0.7452
 2026TIP3    H230274   5.102   5.942  13.890  0.3449  1.6106  0.5077
 2027TIP3   OH230275   1.733   3.783  12.864 -0.5346 -0.1268  0.5537
 2027TIP3    H130276   1.785   3.705  12.846  1.8822  1.8533 -2.0947
 2027TIP3    H230277   1.747   3.800  12.957  0.7871 -1.5901  0.6699
 2028TIP3   OH230278   1.316   4.485  14.261  0.2826  0.3691 -0.1269
 2028TIP3    H130279   1.409   4.500  14.243  0.6762  0.4963  1.7835
 2028TIP3    H230280   1.309   4.492  14.356 -1.5564 -0.4173 -0.1705
 2029TIP3   OH230281   7.688   1.281  13.603 -0.0631  0.8357 -0.2425
 2029TIP3    H130282   7.627   1.342  13.561 -1.5065  0.3838  1.0760
 2029TIP3    H230283   7.700   1.316  13.691  0.0571 -0.0993  0.1289
 2030TIP3   OH230284   8.385   3.846  13.846 -0.0794 -0.1710 -0.4868
 2030TIP3    H130285   8.444   3.771  13.853 -0.0823 -0.0243  1.8765
 2030TIP3    H230286   8.410   3.903  13.918 -0.4986  1.8410 -1.8443
 2031TIP3   OH230287   4.486   4.758  13.299 -0.3167 -0.0083  0.0930
 2031TIP3    H130288   4.541   4.721  13.230  0.7157  1.1466  0.2522
 2031TIP3    H230289   4.399   4.765  13.259 -0.0109 -0.4821 -0.6767
 2032TIP3   OH230290   4.788   5.593  14.536 -0.1864  0.0768  0.0350
 2032TIP3    H130291   4.760   5.650  14.608  0.4261  0.3309  0.0803
 2032TIP3    H230292   4.759   5.506  14.562 -0.7000  0.2917  0.1967
 2033TIP3   OH230293   1.774   5.590  13.431 -0.6167 -1.1700  0.5400
 2033TIP3    H130294   1.810   5.518  13.381  0.4562 -0.0405 -0.3806
 2033TIP3    H230295   1.681   5.592  13.408 -0.5023 -1.7993  0.0185
 2034TIP3   OH230296   5.394   2.210  13.902  0.0028 -0.7497 -0.0189
 2034TIP3    H130297   5.360   2.126  13.871  0.8189 -0.6883 -1.1396
 2034TIP3    H230298   5.456   2.186  13.971  1.0407 -1.1630 -1.0642
 2035TIP3   OH230299   4.507   8.315  13.683  0.1523  0.5330 -0.7073
 2035TIP3    H130300   4.543   8.230  13.655 -0.6852  0.6137 -2.1571
 2035TIP3    H230301   4.582   8.374  13.684  0.8993 -0.3818  1.1322
 2036TIP3   OH230302   6.200   2.901  12.580  0.8977 -0.1345  0.2389
 2036TIP3    H130303   6.238   2.967  12.637  0.9116 -0.4953  0.6505
 2036TIP3    H230304   6.269   2.836  12.569  0.0558 -1.3887  1.9373
 2037TIP3   OH230305   6.620   3.218  13.663 -0.0258  0.7091 -0.4057
 2037TIP3    H130306   6.614   3.141  13.606  0.0157  1.2796 -1.1980
 2037TIP3    H230307   6.575   3.192  13.743  0.6794 -0.4174 -0.3416
 2038TIP3   OH230308   1.104   5.269  14.040  0.5360  0.2510  0.5829
 2038TIP3    H130309   1.170   5.275  13.971  3.9972  1.9664  3.6952
 2038TIP3    H230310   1.057   5.353  14.035  2.3316  1.3918  1.5574
 2039TIP3   OH230311   6.254   6.953  14.887 -0.2441 -0.1136 -0.4967
 2039TIP3    H130312   6.305   7.033  14.873  0.3788 -0.8923 -3.2647
 2039TIP3    H230313   6.168   6.973  14.852 -0.4805 -0.2808 -0.0264
 2040TIP3   OH230314   5.757   0.062  14.136  0.0799  0.4409 -0.7367
 2040TIP3    H130315   5.800   0.064  14.222  1.0937 -0.4526 -1.1975
 2040TIP3    H230316   5.664   0.070  14.156  0.1668 -1.2527  0.5865
 2041TIP3   OH230317   2.926   4.104  13.684 -0.2715 -0.4190 -0.3205
 2041TIP3    H130318   2.975   4.172  13.637 -1.1456  0.8873  0.5848
 2041TIP3    H230319   2.855   4.080  13.625 -0.0829 -0.4129 -0.5546
 2042TIP3   OH230320   8.354   3.530  14.906  0.5284 -0.2211  0.4710
 2042TIP3    H130321   8.323   3.550  14.818 -0.7089 -0.4032  0.8431
 2042TIP3    H230322   8.277   3.544  14.962  1.4911  0.6732  1.6315
 2043TIP3   OH230323   7.091   4.119  13.773 -0.1957  0.5257 -0.3197
 2043TIP3    H130324   7.023   4.052  13.779 -0.1020  0.1791 -2.4056
 2043TIP3    H230325   7.045   4.197  13.741  0.0140  0.9581  0.4033
 2044TIP3   OH230326   6.995   1.960  14.752  0.2406  0.6934 -0.1204
 2044TIP3    H130327   7.042   1.985  14.832 -1.5353  1.1141  0.8509
 2044TIP3    H230328   6.937   1.889  14.779 -0.4897  0.9374 -0.9979
 2045TIP3   OH230329   7.306   3.783  14.310 -0.3605  0.2823 -0.1940
 2045TIP3    H130330   7.400   3.802  14.308 -0.7244  2.3360 -0.7664
 2045TIP3    H230331   7.285   3.777  14.403  0.5700 -1.7647 -0.0705
 2046TIP3   OH230332   7.667   5.662  14.033  0.4979  0.0780 -0.1881
 2046TIP3    H130333   7.707   5.657  14.119 -1.5251 -1.0591  0.7544
 2046TIP3    H230334   7.682   5.752  14.004  0.3925  0.7534  1.7702
 2047TIP3   OH230335   3.830   3.296  14.663 -0.1073  0.1039 -0.4909
 2047TIP3    H130336   3.819   3.280  14.569 -1.5219 -1.1576 -0.1408
 2047TIP3    H230337   3.751   3.344  14.689  0.1545  0.2252  0.1009
 2048TIP3   OH230338   3.692   5.351  14.826  0.6926 -0.1895  0.6302
 2048TIP3    H130339   3.706   5.371  14.733 -0.0550 -0.1078  0.5286
 2048TIP3    H230340   3.658   5.432  14.863 -0.6776 -0.7130  0.5926
 2049TIP3   OH230341   6.597   2.481  14.227 -0.2486 -0.2863 -0.4985
 2049TIP3    H130342   6.630   2.571  14.233  0.2994 -0.5769  1.0721
 2049TIP3    H230343   6.506   2.492  14.200 -0.4359  0.7952  0.4692
 2050TIP3   OH230344   0.296   1.496  13.383  0.3973  0.1618 -0.1019
 2050TIP3    H130345   0.366   1.536  13.433 -0.3749  0.5351  0.7129
 2050TIP3    H230346   0.254   1.569  13.338 -1.1608  0.3801  1.5682
 2051TIP3   OH230347   3.711   6.187  14.774  0.5929  0.6737 -0.0932
 2051TIP3    H130348   3.769   6.262  14.763  1.4659 -0.0165 -0.3821
 2051TIP3    H230349   3.714   6.142  14.689  0.5386  0.0013  0.2534
 2052TIP3   OH230350   4.031   6.046  13.774 -0.9708 -0.8768 -0.2018
 2052TIP3    H130351   4.098   6.094  13.724 -2.3946  3.3291  1.4736
 2052TIP3    H230352   4.004   5.975  13.715  1.2347  0.4054 -3.0618
 2053TIP3   OH230353   3.999   2.532  13.227  0.1523 -0.3120  0.0456
 2053TIP3    H130354   4.024   2.449  13.268  0.5830  0.5384  1.6260
 2053TIP3    H230355   3.987   2.592  13.301 -0.0863  1.0520 -1.0547
 2054TIP3   OH230356   7.170   7.960  14.941 -0.0862  0.5632 -0.6017
 2054TIP3    H130357   7.228   7.980  15.014  0.6032 -0.1478 -0.9350
 2054TIP3    H230358   7.082   7.979  14.973  0.3318  1.7803 -0.1275
 2055TIP3   OH230359   1.945   8.137  14.826  0.3934  0.2991  0.3557
 2055TIP3    H130360   1.978   8.226  14.840  0.7474  0.8411 -3.2117
 2055TIP3    H230361   2.019   8.088  14.792 -0.6215 -0.4523 -0.8456
 2056TIP3   OH230362   6.651   2.579  13.064  0.1557  0.6865 -0.9831
 2056TIP3    H130363   6.625   2.669  13.047 -0.5531  0.9121  1.0426
 2056TIP3    H230364   6.570   2.528  13.056 -0.1408  0.7534  1.0724
 2057TIP3   OH230365   3.010   6.557  13.384  0.3698  0.1126 -0.0349
 2057TIP3    H130366   2.933   6.503  13.367 -1.9772  3.4544 -0.8892
 2057TIP3    H230367   3.003   6.582  13.477  0.6323  0.1643 -0.0254
 2058TIP3   OH230368   3.102   1.269  13.161 -0.0588 -0.1058 -0.2684
 2058TIP3    H130369   3.067   1.198  13.215  0.3940 -1.5500 -1.8162
 2058TIP3    H230370   3.196   1.253  13.157  0.0685  0.6479 -0.5634
 2059TIP3   OH230371   6.786   6.507  13.214  0.2567  0.2080 -0.0190
 2059TIP3    H130372   6.709   6.529  13.267  2.0077  1.8677  2.0733
 2059TIP3    H230373   6.765   6.539  13.126 -1.9939 -0.7807  0.1173
 2060TIP3   OH230374   5.659   1.829  12.691  0.3706 -0.2468  0.6484
 2060TIP3    H130375   5.606   1.755  12.723 -1.3183 -0.6669 -2.6998
 2060TIP3    H230376   5.729   1.788  12.641 -0.7954  0.3175 -1.5517
 2061TIP3   OH230377   2.064   1.159  14.535  0.1828 -0.0953  0.0166
 2061TIP3    H130378   2.080   1.253  14.536  0.4924 -0.1146  2.2323
 2061TIP3    H230379   2.021   1.141  14.619  3.0973 -2.3149  1.2265
 2062TIP3   OH230380   4.586   6.381  14.824  0.0677  0.2784 -0.0624
 2062TIP3    H130381   4.587   6.442  14.898  0.1212  1.5274 -1.0654
 2062TIP3    H230382   4.612   6.434  14.749 -1.0372 -0.7117 -1.1848
 2063TIP3   OH230383   6.641   5.911  14.228  0.1573  0.1066 -0.3831
 2063TIP3    H130384   6.587   5.834  14.209  0.3378  0.3025 -1.8194
 2063TIP3    H230385   6.714   5.877  14.280 -0.8644 -0.3081  0.8161
 2064TIP3   OH230386   0.436   0.078  13.642 -0.1691 -0.1914 -0.0012
 2064TIP3    H130387   0.476  -0.007  13.662  1.7093  0.5449 -0.4306
 2064TIP3    H230388   0.502   0.124  13.590 -2.0863  0.6419 -1.8400
 2065TIP3   OH230389   0.372   1.867  15.220 -0.3921 -0.0494 -0.1385
 2065TIP3    H130390   0.350   1.895  15.309 -2.0856  1.7552 -1.0313
 2065TIP3    H230391   0.394   1.948  15.174 -2.2284 -0.5275 -2.0307
 2066TIP3   OH230392   1.689   5.091  14.929  0.4167  0.5963 -0.1192
 2066TIP3    H130393   1.683   4.998  14.953 -1.8482  0.3954 -1.2103
 2066TIP3    H230394   1.782   5.111  14.936  1.4882 -2.5454 -2.6082
 2067TIP3   OH230395   6.374   7.342  13.920 -0.4382 -0.4084  0.5352
 2067TIP3    H130396   6.389   7.258  13.877  1.1790  0.0683  0.0820
 2067TIP3    H230397   6.347   7.401  13.850 -2.3233 -0.6929  0.9765
 2068TIP3   OH230398   3.587   6.590  14.985  0.1978 -0.0464 -0.2351
 2068TIP3    H130399   3.496   6.614  14.965 -0.3909 -0.6209  1.5131
 2068TIP3    H230400   3.590   6.587  15.081  1.5427 -1.9945 -0.2851
 2069TIP3   OH230401   3.490   3.859  13.098 -0.5581 -1.0304  0.4224
 2069TIP3    H130402   3.565   3.917  13.094  0.5789 -2.5067 -0.7211
 2069TIP3    H230403   3.486   3.831  13.190 -1.0074  0.6252  0.9446
 2070TIP3   OH230404   4.266   3.379  13.645  0.3545  0.2797  0.1542
 2070TIP3    H130405   4.273   3.424  13.561 -0.5236  1.2459  0.5857
 2070TIP3    H230406   4.332   3.310  13.640  0.9830  0.9305 -0.9446
 2071TIP3   OH230407   6.498   6.089  14.689  0.0628 -0.0838 -0.6276
 2071TIP3    H130408   6.412   6.105  14.729  0.3728 -0.5215  0.2302
 2071TIP3    H230409   6.559   6.141  14.742  0.5262 -0.9458 -0.2956
 2072TIP3   OH230410   3.977   7.025  13.838 -0.1804 -0.0859 -0.3227
 2072TIP3    H130411   3.893   7.069  13.840  0.3721  1.0272  1.7749
 2072TIP3    H230412   3.996   7.005  13.930  1.5877 -0.8172 -0.7959
 2073TIP3   OH230413   1.111   5.525  13.748  0.0254  0.4116 -0.2432
 2073TIP3    H130414   1.118   5.612  13.788 -1.9319 -0.4867  2.3182
 2073TIP3    H230415   1.182   5.475  13.788 -0.8866 -0.0232  0.8804
 2074TIP3   OH230416   0.467   1.062  14.058 -0.2064 -0.4287 -0.6626
 2074TIP3    H130417   0.472   1.158  14.061 -0.4632 -0.4227  1.0859
 2074TIP3    H230418   0.428   1.042  13.974  0.9020  0.9437 -1.5525
 2075TIP3   OH230419   2.042   4.195  13.257  0.2392 -0.1766  0.4029
 2075TIP3    H130420   1.974   4.213  13.193  0.6078  0.1292  0.0929
 2075TIP3    H230421   2.036   4.100  13.273  1.0070 -0.5051 -1.0830
 2076TIP3   OH230422   0.312   6.379  14.332 -0.1198 -0.1974  0.1397
 2076TIP3    H130423   0.362   6.429  14.397  0.0625  2.6893 -2.0079
 2076TIP3    H230424   0.221   6.402  14.350  0.0520  2.7566 -2.0151
 2077TIP3   OH230425   4.213   7.816  13.246 -0.6498 -0.7150 -0.0009
 2077TIP3    H130426   4.141   7.775  13.198 -0.8381 -1.1827  0.6649
 2077TIP3    H230427   4.198   7.910  13.237 -1.3078 -0.8067  0.0783
 2078TIP3   OH230428   3.229   6.629  14.755  0.5904  0.2222  0.0097
 2078TIP3    H130429   3.255   6.663  14.669  2.4552 -0.8069  0.1230
 2078TIP3    H230430   3.267   6.690  14.818  1.5156 -0.4919  0.1520
 2079TIP3   OH230431   1.369   5.775  13.589  0.7171  0.3186  0.1131
 2079TIP3    H130432   1.424   5.848  13.560  1.6323 -0.0722  0.8497
 2079TIP3    H230433   1.339   5.801  13.676 -0.5763  0.6836 -0.4073
 2080TIP3   OH230434   5.370   5.373  13.510 -0.4070 -0.2141  0.1895
 2080TIP3    H130435   5.441   5.387  13.572 -0.7016 -1.2279  0.7859
 2080TIP3    H230436   5.290   5.384  13.561 -0.6541 -1.0304  0.0039
 2081TIP3   OH230437   4.998   0.598  14.012  0.1963  0.5207 -0.5444
 2081TIP3    H130438   5.053   0.673  13.991 -0.0708  1.3057  1.3912
 2081TIP3    H230439   4.939   0.590  13.937  0.0614  2.4160 -0.6878
 2082TIP3   OH230440   7.896   5.777  14.560  0.2163  0.0790 -0.3880
 2082TIP3    H130441   7.985   5.746  14.581  0.0014  0.2489  0.8860
 2082TIP3    H230442   7.866   5.817  14.642 -1.0771 -0.0588 -0.7863
 2083TIP3   OH230443   2.486   6.538  14.244 -0.1854 -0.0250 -0.1831
 2083TIP3    H130444   2.561   6.596  14.239  0.6952 -1.1661 -0.6746
 2083TIP3    H230445   2.523   6.452  14.264 -1.3240 -0.6723 -0.7393
 2084TIP3   OH230446   6.635   8.104  13.471 -0.3479 -0.1236  0.4280
 2084TIP3    H130447   6.711   8.060  13.434 -1.4556 -0.2634 -1.8475
 2084TIP3    H230448   6.613   8.053  13.549  1.4016 -0.5063  0.7180
 2085TIP3   OH230449   5.231   4.183  14.721  0.6063 -0.7068 -0.2723
 2085TIP3    H130450   5.211   4.238  14.646 -1.7424 -1.4330 -0.2517
 2085TIP3    H230451   5.310   4.136  14.696  0.5680 -0.0178 -1.7749
 2086TIP3   OH230452   2.834   5.756  15.215 -0.1897  0.2304 -0.3774
 2086TIP3    H130453   2.844   5.768  15.120  2.0975  1.0752 -0.1122
 2086TIP3    H230454   2.743   5.730  15.227  0.2345 -3.2956 -3.1180
 2087TIP3   OH230455   0.799   4.812  14.972 -0.0022 -0.3508  0.0416
 2087TIP3    H130456   0.879   4.761  14.980  1.5061  2.0493  2.3189
 2087TIP3    H230457   0.821   4.882  14.910 -0.6023 -0.1583  0.0407
 2088TIP3   OH230458   2.523   2.876  14.543 -0.9072  0.1348  0.1804
 2088TIP3    H130459   2.490   2.788  14.558  3.1798 -1.4713  1.2606
 2088TIP3    H230460   2.516   2.919  14.629  0.4929 -0.5530  0.6758
 2089TIP3   OH230461   7.277   1.168  14.570 -0.5278 -0.6180 -0.4865
 2089TIP3    H130462   7.267   1.081  14.532 -1.8828 -1.0474  0.7606
 2089TIP3    H230463   7.189   1.206  14.568  0.1708  1.0956 -1.7631
 2090TIP3   OH230464   0.254   0.245  13.538 -0.1357 -0.0650  0.4788
 2090TIP3    H130465   0.183   0.245  13.603 -1.1974  1.0634 -0.6162
 2090TIP3    H230466   0.297   0.161  13.550 -0.8777 -0.2757  2.0168
 2091TIP3   OH230467   5.046   2.011  14.010  0.3027  0.3007 -0.0467
 2091TIP3    H130468   5.073   2.076  14.074  0.4609 -1.2843  1.5921
 2091TIP3    H230469   5.115   2.013  13.943  0.0531  2.0854 -0.2891
 2092TIP3   OH230470   5.936   5.083  14.372  0.1923 -0.1227  0.3494
 2092TIP3    H130471   5.980   5.022  14.314  0.5217  1.4397 -1.1441
 2092TIP3    H230472   5.971   5.064  14.459 -0.5937 -2.7728  0.1587
 2093TIP3   OH230473   6.759   4.370  13.500 -0.1751  0.1877 -0.5855
 2093TIP3    H130474   6.743   4.369  13.406 -0.9494  0.8840 -0.4732
 2093TIP3    H230475   6.686   4.420  13.537 -0.5942 -1.1746  0.5288
 2094TIP3   OH230476   2.078   4.103  12.367 -0.9622  0.0047 -0.2232
 2094TIP3    H130477   2.155   4.143  12.327 -1.4222  0.6137 -0.5299
 2094TIP3    H230478   2.005   4.131  12.310 -1.7200  1.3336  1.3152
 2095TIP3   OH230479   7.954   4.912  13.062  0.0819 -0.1526 -0.2137
 2095TIP3    H130480   7.862   4.922  13.084  0.3527 -0.2587  1.0171
 2095TIP3    H230481   7.972   4.983  13.000 -1.3003 -1.3411 -2.0754
 2096TIP3   OH230482   7.313   0.794  12.814  0.6746 -0.1276 -0.5559
 2096TIP3    H130483   7.248   0.824  12.878  0.7393 -0.8036 -0.1589
 2096TIP3    H230484   7.335   0.872  12.764 -0.1887  0.1784 -0.4698
 2097TIP3   OH230485   2.996   0.062  14.610  0.2239  0.0027 -0.6614
 2097TIP3    H130486   3.059   0.110  14.557  1.9309 -1.6961 -0.2745
 2097TIP3    H230487   3.043  -0.015  14.641 -1.6572 -0.6871  0.7450
 2098TIP3   OH230488   3.468   8.017  13.429 -0.3453  0.2102  0.1435
 2098TIP3    H130489   3.474   8.021  13.524  0.8272  0.1927  0.0828
 2098TIP3    H230490   3.559   8.013  13.399 -0.7289 -1.4896 -0.9093
 2099TIP3   OH230491   1.408   0.751  14.625  0.0454 -0.2660 -0.2071
 2099TIP3    H130492   1.370   0.822  14.678  0.7523 -0.6222  0.8139
 2099TIP3    H230493   1.497   0.780  14.607 -0.0402 -0.3670 -0.8150
 2100TIP3   OH230494   8.171   7.930  14.973 -0.0914  0.2437 -0.5208
 2100TIP3    H130495   8.168   7.917  14.878 -0.7741 -0.1698 -0.4533
 2100TIP3    H230496   8.214   7.852  15.007  0.8552  0.7451 -0.5425
 2101TIP3   OH230497   5.279   6.747  14.877 -0.0552  0.4707  0.0624
 2101TIP3    H130498   5.281   6.842  14.870 -2.1475  0.4687 -1.5114
 2101TIP3    H230499   5.188   6.723  14.861  0.7259 -1.9003 -1.4400
 2102TIP3   OH230500   3.030   1.285  13.483  0.4332  0.1149 -0.2283
 2102TIP3    H130501   2.937   1.273  13.462  0.7956  1.3188 -2.9198
 2102TIP3    H230502   3.051   1.211  13.540 -1.6228 -1.5172 -1.4310
 2103TIP3   OH230503   8.043   8.108  13.367  0.3015 -0.4242  0.0934
 2103TIP3    H130504   7.987   8.058  13.427 -1.6130  0.6539 -0.7178
 2103TIP3    H230505   8.030   8.199  13.392  0.6898 -0.0640 -0.9506
 2104TIP3   OH230506   6.614   1.355  15.006 -0.5449 -0.4297  0.6154
 2104TIP3    H130507   6.537   1.314  14.967 -1.0633  0.2450  0.9160
 2104TIP3    H230508   6.689   1.310  14.966 -1.0777 -0.4474 -0.3718
 2105TIP3   OH230509   1.854   8.288  14.139 -0.2217 -0.2640  0.0860
 2105TIP3    H130510   1.854   8.197  14.166 -1.0015 -0.1232  0.5785
 2105TIP3    H230511   1.838   8.285  14.044  0.1548 -0.6452  0.0317
 2106TIP3   OH230512   5.029   6.685  13.700 -0.0934  0.2406 -0.1170
 2106TIP3    H130513   5.026   6.695  13.796 -0.6539  0.9080 -0.1956
 2106TIP3    H230514   5.120   6.700  13.677 -0.5505  3.9175 -0.0565
 2107TIP3   OH230515   4.057   6.938  15.219 -0.0208 -0.2696  0.0167
 2107TIP3    H130516   3.981   6.879  15.207 -1.1672  1.2079 -0.2916
 2107TIP3    H230517   4.112   6.921  15.142 -1.1118  0.1356 -0.8883
 2108TIP3   OH230518   5.439   1.457  13.269 -0.4277  0.2665 -0.0610
 2108TIP3    H130519   5.483   1.515  13.332  0.5196  0.0527 -0.5009
 2108TIP3    H230520   5.384   1.401  13.324 -0.9816  1.2495  0.4107
 2109TIP3   OH230521   0.822   3.464  12.849  0.1938  0.0585 -0.0829
 2109TIP3    H130522   0.885   3.537  12.850  0.9826 -0.5940 -0.7661
 2109TIP3    H230523   0.745   3.500  12.805  1.6219 -0.3014 -3.1501
 2110TIP3   OH230524   2.560   7.101  15.089 -0.3853  0.0486 -0.0891
 2110TIP3    H130525   2.596   7.013  15.083 -1.2786 -0.3028 -0.3425
 2110TIP3    H230526   2.526   7.106  15.179 -1.4031 -0.2939 -0.4404
 2111TIP3   OH230527   2.290   5.186  14.737 -0.0089 -0.0058 -0.2429
 2111TIP3    H130528   2.338   5.185  14.820 -0.3772  1.0923 -0.0038
 2111TIP3    H230529   2.263   5.094  14.724 -1.0194 -0.0079  1.4980
 2112TIP3   OH230530   3.189   8.210  14.054  0.1416  0.3433 -0.1802
 2112TIP3    H130531   3.151   8.160  14.126  1.6248 -0.4860  0.0496
 2112TIP3    H230532   3.260   8.261  14.094  0.5836  0.3437 -0.9371
 2113TIP3   OH230533   0.618   3.604  12.584  0.4941  0.1885 -0.2542
 2113TIP3    H130534   0.689   3.582  12.524  0.9455  0.5205  0.1451
 2113TIP3    H230535   0.578   3.521  12.606  1.9110 -0.2239  0.9255
 2114TIP3   OH230536   7.447   6.612  14.676  0.7095  0.8698  0.2235
 2114TIP3    H130537   7.383   6.684  14.675  1.7079  1.8015  1.1825
 2114TIP3    H230538   7.504   6.632  14.750  3.3478  1.1730 -1.7566
 2115TIP3   OH230539   0.178   6.272  13.673 -0.8639  0.1980 -0.1524
 2115TIP3    H130540   0.141   6.336  13.612  0.3390 -1.4503 -2.8090
 2115TIP3    H230541   0.106   6.212  13.692 -0.5948 -0.9632 -2.4464
 2116TIP3   OH230542   5.469   2.573  14.907 -0.0444  0.5093 -0.0385
 2116TIP3    H130543   5.436   2.657  14.940 -1.3220  0.6844 -1.6002
 2116TIP3    H230544   5.394   2.534  14.861  0.6663 -1.2753  0.2406
 2117TIP3   OH230545   7.773   0.586  14.621  0.0803  0.0580  0.1397
 2117TIP3    H130546   7.783   0.510  14.565 -0.2579 -1.5197  2.1128
 2117TIP3    H230547   7.679   0.591  14.639  0.4178 -1.2620  2.7909
 2118TIP3   OH230548   5.304   3.219  14.838  0.2595  0.1042 -0.1006
 2118TIP3    H130549   5.280   3.162  14.765  0.6785  2.2892 -2.0977
 2118TIP3    H230550   5.399   3.229  14.830  0.3214  0.2737  0.8203
 2119TIP3   OH230551   4.796   8.343  13.756  0.2780 -0.6057 -0.2485
 2119TIP3    H130552   4.756   8.269  13.803  1.7794 -0.7313  0.8913
 2119TIP3    H230553   4.781   8.418  13.814 -1.5063  0.0965 -1.5374
 2120TIP3   OH230554   6.127   6.572  13.191  0.3687 -0.6066 -0.9085
 2120TIP3    H130555   6.153   6.663  13.180 -1.4874  0.1754  0.5320
 2120TIP3    H230556   6.085   6.569  13.277  1.9891 -3.2425 -0.0877
 2121TIP3   OH230557   0.693   8.310  13.958 -0.0038  0.8361 -0.3800
 2121TIP3    H130558   0.699   8.405  13.943 -0.1666  0.7076 -1.3144
 2121TIP3    H230559   0.600   8.291  13.947  0.0997  0.4923 -0.6497
 2122TIP3   OH230560   2.908   2.452  14.909  0.8630  0.1724  0.0847
 2122TIP3    H130561   2.962   2.530  14.913  1.9314 -0.5304 -0.1079
 2122TIP3    H230562   2.879   2.439  14.999  2.8291 -0.6316  0.6664
 2123TIP3   OH230563   3.317   0.280  13.188 -0.3840  0.2963  0.1375
 2123TIP3    H130564   3.339   0.190  13.165  2.4864  1.0468 -0.5227
 2123TIP3    H230565   3.298   0.278  13.282 -4.5283 -1.5668 -0.5465
 2124TIP3   OH230566   0.672   4.508  13.781 -0.0523  0.4916  0.0832
 2124TIP3    H130567   0.697   4.475  13.867  2.8156 -1.2469 -1.2566
 2124TIP3    H230568   0.583   4.477  13.768  0.6333 -2.1598  1.1325
 2125TIP3   OH230569   0.697   2.608  13.791  0.0149  0.6927 -0.4177
 2125TIP3    H130570   0.775   2.567  13.753 -0.0263  0.3195 -0.1060
 2125TIP3    H230571   0.626   2.584  13.733 -0.0209  0.2597 -0.1959
 2126TIP3   OH230572   0.914   4.997  14.809  0.2067  0.4669 -0.3425
 2126TIP3    H130573   0.836   5.039  14.773 -0.4197 -1.2610 -1.0887
 2126TIP3    H230574   0.972   4.986  14.734  0.3914  0.0780 -0.1467
 2127TIP3   OH230575   1.870   7.748  14.082 -0.2720 -0.1684 -0.0656
 2127TIP3    H130576   1.892   7.684  14.150  1.4916  0.8204  0.3495
 2127TIP3    H230577   1.781   7.777  14.105  0.1680 -0.0633  1.6757
 2128TIP3   OH230578   2.389   4.404  13.008  0.7264 -0.0149 -0.0431
 2128TIP3    H130579   2.367   4.497  12.999 -0.3815 -0.4541 -2.7027
 2128TIP3    H230580   2.438   4.383  12.929  0.0149 -1.9470 -0.0157
 2129TIP3   OH230581   1.430   5.278  14.212 -0.0712 -0.7811  0.3542
 2129TIP3    H130582   1.482   5.249  14.286  1.2854  0.7374  0.0738
 2129TIP3    H230583   1.475   5.242  14.135  0.1434 -0.1078  0.1516
 2130TIP3   OH230584   6.412   8.190  13.693  0.2628  0.6128 -0.3988
 2130TIP3    H130585   6.471   8.245  13.745  0.2048 -0.9409  1.4018
 2130TIP3    H230586   6.466   8.116  13.666 -0.7048 -0.6077  0.8933
 2131TIP3   OH230587   0.111   1.348  13.518 -0.2782 -0.1590 -0.1591
 2131TIP3    H130588   0.082   1.401  13.591 -0.0822 -0.2318 -0.0277
 2131TIP3    H230589   0.150   1.410  13.456 -1.2576  0.0240 -0.6201
 2132TIP3   OH230590   6.585   0.937  12.836 -0.1041  0.4727  0.6776
 2132TIP3    H130591   6.523   0.916  12.906 -0.3869 -0.6939  0.1042
 2132TIP3    H230592   6.592   0.856  12.785  0.5527  1.1155 -0.2920
 2133TIP3   OH230593   0.040   6.378  14.403 -0.3603  0.3103  0.7446
 2133TIP3    H130594   0.011   6.469  14.412  0.2742  0.3266  3.3741
 2133TIP3    H230595  -0.030   6.336  14.353 -0.7235  2.1820 -0.4267
 2134TIP3   OH230596   7.525   6.313  13.972 -0.1742  0.1571 -0.5489
 2134TIP3    H130597   7.604   6.344  14.017  0.9361 -1.7376 -1.0668
 2134TIP3    H230598   7.457   6.374  13.999  1.2855  1.3860  0.5723
 2135TIP3   OH230599   8.389   6.736  13.323  0.5729  0.2167 -0.3377
 2135TIP3    H130600   8.344   6.669  13.273  0.2125  0.8626 -0.8954
 2135TIP3    H230601   8.336   6.815  13.312  2.0629  1.1353 -1.4159
 2136TIP3   OH230602   2.654   2.034  13.535 -0.1986 -0.1955  0.7150
 2136TIP3    H130603   2.639   2.000  13.623 -0.4528  1.5815  1.3915
 2136TIP3    H230604   2.713   2.108  13.547 -0.8046  0.5248 -0.5087
 2137TIP3   OH230605   4.757   7.672  14.297  0.4495 -0.1580 -0.0956
 2137TIP3    H130606   4.683   7.723  14.330  0.2971 -0.7720  0.5432
 2137TIP3    H230607   4.721   7.586  14.279  0.5877  0.0892 -1.6991
 2138TIP3   OH230608   7.098   2.552  13.183 -0.3131  0.3499  0.8271
 2138TIP3    H130609   7.010   2.586  13.201 -0.9387 -0.1047 -1.1182
 2138TIP3    H230610   7.084   2.482  13.119  1.3813 -0.5014  1.3334
 2139TIP3   OH230611   2.824   4.744  15.074  0.6255  0.4282  0.0065
 2139TIP3    H130612   2.905   4.787  15.101 -0.0367  1.1942  0.8464
 2139TIP3    H230613   2.851   4.680  15.008  1.8139  1.1676 -0.2455
 2140TIP3   OH230614   2.206   5.203  13.007 -0.3189 -0.3425  0.4717
 2140TIP3    H130615   2.114   5.186  12.985 -0.3334 -0.0124  0.2798
 2140TIP3    H230616   2.255   5.162  12.936 -0.3789  1.1251 -0.4625
 2141TIP3   OH230617   3.606   2.310  14.680 -0.0763  0.1572  0.1837
 2141TIP3    H130618   3.579   2.361  14.604 -0.4200 -0.0206  0.1810
 2141TIP3    H230619   3.700   2.296  14.668 -0.2562 -0.4762 -0.5779
 2142TIP3   OH230620   4.765   4.323  14.878 -0.1659  0.3656  0.1643
 2142TIP3    H130621   4.775   4.255  14.945 -0.8792  0.1904  0.0967
 2142TIP3    H230622   4.735   4.275  14.801 -1.4808  0.8750  0.3508
 2143TIP3   OH230623   3.692   1.433  13.758 -0.7587 -0.1230 -0.5273
 2143TIP3    H130624   3.685   1.365  13.825 -0.1351  0.0383 -0.2890
 2143TIP3    H230625   3.781   1.424  13.723 -0.8941  0.1413 -0.9585
 2144TIP3   OH230626   6.090   7.228  13.044 -0.7920  0.3380  0.4999
 2144TIP3    H130627   6.011   7.265  13.005 -1.5318 -0.6559  1.0228
 2144TIP3    H230628   6.065   7.206  13.134  0.8797  2.6289  1.6357
 2145TIP3   OH230629   0.420   1.879  14.009  0.4673 -0.4647  0.2736
 2145TIP3    H130630   0.416   1.973  13.990 -4.1104 -0.2710  1.1766
 2145TIP3    H230631   0.455   1.875  14.098  2.9956  0.0757 -0.6125
 2146TIP3   OH230632   8.396   1.778  13.810 -0.3251 -0.4375  0.0921
 2146TIP3    H130633   8.343   1.795  13.732  0.2956  1.4778  0.0356
 2146TIP3    H230634   8.459   1.850  13.812 -1.2477  0.4251  3.1361
 2147TIP3   OH230635   2.275   7.995  13.819  0.3770  0.4030  0.2329
 2147TIP3    H130636   2.268   8.048  13.739  0.7855  0.3819  0.1784
 2147TIP3    H230637   2.201   7.934  13.814  0.5436  0.2330 -0.2593
 2148TIP3   OH230638   0.970   0.467  14.232  0.1261 -0.0093  0.2289
 2148TIP3    H130639   1.028   0.411  14.284 -0.5995 -0.1468  0.9092
 2148TIP3    H230640   1.030   0.518  14.177  0.7998 -1.7678 -0.7632
 2149TIP3   OH230641   0.157   3.035  15.229 -0.3173  0.0097 -0.5430
 2149TIP3    H130642   0.133   2.946  15.203 -2.5905 -0.5959  2.9632
 2149TIP3    H230643   0.078   3.087  15.211 -0.3145  0.4954  0.7452
 2150TIP3   OH230644   4.207   1.084  13.875  0.1670  0.1045  0.4333
 2150TIP3    H130645   4.195   1.100  13.968  0.2543  3.0752  0.0271
 2150TIP3    H230646   4.302   1.077  13.864  0.5600  3.9613  0.1405
 2151TIP3   OH230647   4.060   2.010  13.798  0.1516 -0.1574  0.3661
 2151TIP3    H130648   4.067   1.947  13.870  0.9865 -1.3491 -0.6874
 2151TIP3    H230649   4.140   1.995  13.746 -0.5340  0.4876 -0.9243
 2152TIP3   OH230650   2.249   5.294  13.390 -0.1335  0.3506  0.0824
 2152TIP3    H130651   2.209   5.380  13.403 -1.3149  0.0289 -1.1430
 2152TIP3    H230652   2.301   5.303  13.310  0.3422  0.1222  0.3622
 2153TIP3   OH230653   6.678   6.218  14.485  0.4294  0.2227  0.0889
 2153TIP3    H130654   6.699   6.171  14.404 -0.2079  0.3145 -0.1394
 2153TIP3    H230655   6.583   6.206  14.495  0.5569 -0.0717  1.0019
 2154TIP3   OH230656   3.486   1.820  13.565 -0.1529 -1.1689  0.3165
 2154TIP3    H130657   3.400   1.819  13.608  0.2445 -0.4488  1.1534
 2154TIP3    H230658   3.529   1.898  13.599  0.6760 -1.2839 -0.4299
 2155TIP3   OH230659   5.979   5.432  13.068 -0.0453 -0.1369 -0.4459
 2155TIP3    H130660   5.891   5.398  13.052 -0.0493 -0.1416 -0.4158
 2155TIP3    H230661   6.034   5.388  13.004 -0.1221  0.1293 -0.6967
 2156TIP3   OH230662   4.984   3.967  14.863 -0.1437 -0.2246  0.3531
 2156TIP3    H130663   4.980   4.002  14.775 -1.1655  0.8237  0.7924
 2156TIP3    H230664   5.075   3.938  14.874  0.4340  1.2194 -0.4317
 2157TIP3   OH230665   1.074   5.851  14.127  0.1421  0.1747 -0.3737
 2157TIP3    H130666   1.009   5.872  14.193  0.6552 -0.3158  0.3007
 2157TIP3    H230667   1.131   5.927  14.123 -0.5849  0.7047 -1.1338
 2158TIP3   OH230668   2.724   7.363  14.527 -0.3304  0.1496 -0.1952
 2158TIP3    H130669   2.818   7.371  14.545 -0.2662  1.7194 -1.0693
 2158TIP3    H230670   2.718   7.356  14.432 -1.0477 -1.2272 -0.0704
 2159TIP3   OH230671   6.945   3.359  14.349 -0.2735 -0.5348  0.2627
 2159TIP3    H130672   6.877   3.406  14.300 -0.3594 -1.5845 -0.6516
 2159TIP3    H230673   6.916   3.268  14.349  0.1835 -0.6941  1.5212
 2160TIP3   OH230674   5.171   0.606  13.649 -0.1971 -0.3038  0.7223
 2160TIP3    H130675   5.120   0.664  13.706 -0.9733  0.3191 -0.5599
 2160TIP3    H230676   5.166   0.647  13.562  0.4225 -1.5566  0.0660
 2161TIP3   OH230677   2.161   5.375  14.293  0.4035 -0.3369 -0.0125
 2161TIP3    H130678   2.135   5.329  14.373  2.1807  0.7031  1.2451
 2161TIP3    H230679   2.117   5.459  14.299  0.4010 -0.3254 -0.2087
 2162TIP3   OH230680   3.008   5.714  13.929  0.0604  0.0536 -0.1256
 2162TIP3    H130681   2.983   5.640  13.874  3.1673 -0.4643 -1.0108
 2162TIP3    H230682   3.077   5.759  13.880 -0.8599  2.8890  0.9390
 2163TIP3   OH230683   2.557   3.897  14.896 -0.1090 -0.0341  0.0130
 2163TIP3    H130684   2.637   3.936  14.861 -0.6836  1.3014  0.1306
 2163TIP3    H230685   2.566   3.906  14.991  0.1847 -1.1034  0.1006
 2164TIP3   OH230686   6.410   6.557  13.204 -0.1951  0.1110  0.2949
 2164TIP3    H130687   6.315   6.544  13.206 -0.6661  2.8260  0.7494
 2164TIP3    H230688   6.429   6.580  13.113  0.2036 -1.2356  0.0188
 2165TIP3   OH230689   7.802   1.531  15.131  0.1564 -0.1303  0.8011
 2165TIP3    H130690   7.785   1.448  15.086 -0.0442 -1.0805  2.5455
 2165TIP3    H230691   7.897   1.534  15.141  0.1506 -0.2471  0.8982
 2166TIP3   OH230692   3.626   0.872  14.281 -0.2086  0.0209 -0.1238
 2166TIP3    H130693   3.591   0.884  14.370 -1.7734 -1.7403 -0.4475
 2166TIP3    H230694   3.721   0.871  14.293 -0.3962 -0.6674  1.6151
 2167TIP3   OH230695   2.525   2.469  14.344 -0.0316 -0.6037  0.1536
 2167TIP3    H130696   2.607   2.494  14.387 -0.4695 -0.5761  0.9908
 2167TIP3    H230697   2.549   2.459  14.252  0.6795  0.4929  0.1938
 2168TIP3   OH230698   5.346   0.424  12.906 -0.1949 -0.6035  0.0513
 2168TIP3    H130699   5.401   0.438  12.829  0.4003  0.0916  0.5904
 2168TIP3    H230700   5.276   0.489  12.897 -1.6902 -2.2863 -1.2720
 2169TIP3   OH230701   1.408   4.702  13.560  0.2587 -0.0796  0.1700
 2169TIP3    H130702   1.379   4.731  13.473 -0.8420 -1.7225 -0.0681
 2169TIP3    H230703   1.452   4.619  13.543  0.4869 -0.1651  1.1300
 2170TIP3   OH230704   2.176   3.115  14.689 -0.1686  0.3241  0.1873
 2170TIP3    H130705   2.118   3.131  14.763 -0.5866 -0.1415 -0.0370
 2170TIP3    H230706   2.120   3.076  14.622  0.1617  0.9375 -0.4592
 2171TIP3   OH230707   0.904   3.688  13.582 -0.0211  0.0414  0.3094
 2171TIP3    H130708   0.942   3.702  13.496 -0.9462  1.7253  0.1298
 2171TIP3    H230709   0.869   3.774  13.607 -2.0515 -0.9926  1.2301
 2172TIP3   OH230710   6.171   5.975  13.184 -0.3140  0.2799  0.7520
 2172TIP3    H130711   6.156   6.069  13.195  0.5159  0.4072  0.8986
 2172TIP3    H230712   6.223   5.950  13.260 -0.3959 -0.2691  0.6311
 2173TIP3   OH230713   1.417   3.591  14.564 -0.2785 -0.1128  0.8893
 2173TIP3    H130714   1.460   3.506  14.563 -0.8447 -0.4445 -1.8812
 2173TIP3    H230715   1.486   3.654  14.546 -0.3771 -0.3348 -0.3360
 2174TIP3   OH230716   6.853   2.820  13.408 -0.1962  0.3213  0.4030
 2174TIP3    H130717   6.860   2.766  13.329 -1.0397 -1.0652  1.2404
 2174TIP3    H230718   6.766   2.800  13.443  0.2001  0.8469  1.7306
 2175TIP3   OH230719   4.836   3.177  14.957 -0.0359 -0.3655  0.5614
 2175TIP3    H130720   4.905   3.111  14.944  0.2684  0.1399 -0.4620
 2175TIP3    H230721   4.764   3.147  14.901 -0.1258 -0.1543  0.5661
 2176TIP3   OH230722   8.066   4.970  13.482 -0.6058 -0.7386 -0.3337
 2176TIP3    H130723   7.991   5.020  13.514  0.6577  1.4129 -0.5649
 2176TIP3    H230724   8.081   4.904  13.550 -0.4786  1.1485  1.5837
 2177TIP3   OH230725   4.127   2.026  14.591 -0.2723  0.1013 -0.2516
 2177TIP3    H130726   4.197   1.974  14.632  0.6252  0.7604 -0.9036
 2177TIP3    H230727   4.046   1.983  14.618  0.4447 -2.1426 -1.4255
 2178TIP3   OH230728   2.976   3.079  13.857 -0.0720  0.2322  0.0061
 2178TIP3    H130729   3.011   3.140  13.923 -0.4180  1.2869 -0.7671
 2178TIP3    H230730   3.051   3.061  13.800  0.0245 -0.0726  0.2220
 2179TIP3   OH230731   0.597   1.085  13.475 -0.5636  0.4648  0.0965
 2179TIP3    H130732   0.545   1.163  13.458 -2.4543 -0.8236 -0.4154
 2179TIP3    H230733   0.579   1.027  13.401  0.2754 -0.6934  0.7562
 2180TIP3   OH230734   1.904   8.145  15.107 -0.7189 -0.2969 -0.2725
 2180TIP3    H130735   1.900   8.240  15.095  0.1350 -0.2161  0.0195
 2180TIP3    H230736   1.912   8.109  15.019  0.5499  0.0069 -0.3032
 2181TIP3   OH230737   4.979   0.647  14.645 -0.2286 -0.7397 -0.0793
 2181TIP3    H130738   5.074   0.649  14.657 -0.2856  0.0886  0.3201
 2181TIP3    H230739   4.966   0.608  14.559  0.4316 -1.6754  0.2299
 2182TIP3   OH230740   7.169   8.425  13.102 -0.3535 -0.1021 -0.0978
 2182TIP3    H130741   7.118   8.504  13.088  0.2441  0.2788 -0.1473
 2182TIP3    H230742   7.142   8.394  13.189  2.0313  2.1900  1.5990
 2183TIP3   OH230743   4.395   1.489  14.183 -0.1201  0.1365 -0.0407
 2183TIP3    H130744   4.396   1.393  14.189 -0.6682  0.1938  1.1671
 2183TIP3    H230745   4.485   1.515  14.199 -0.2240 -0.1235  1.0671
 2184TIP3   OH230746   3.974   5.194  13.851 -0.5187 -0.1633 -0.2183
 2184TIP3    H130747   4.064   5.220  13.836 -0.6652  0.0629 -0.7332
 2184TIP3    H230748   3.948   5.241  13.931  0.3785 -1.6534  1.0052
 2185TIP3   OH230749   6.675   6.278  14.807 -0.0671  0.2222  0.2482
 2185TIP3    H130750   6.764   6.278  14.771 -0.1390 -0.4947  0.0500
 2185TIP3    H230751   6.661   6.367  14.838  1.1097  0.0783  1.2597
 2186TIP3   OH230752   1.671   6.369  14.501  0.3004  0.2996 -0.6974
 2186TIP3    H130753   1.761   6.374  14.468  0.7721 -1.4856  0.1860
 2186TIP3    H230754   1.617   6.357  14.423  1.0703 -0.7868 -1.0893
 2187TIP3   OH230755   6.079   7.486  13.748 -0.3370  0.2133 -0.1487
 2187TIP3    H130756   6.113   7.544  13.680  1.3492 -0.1114  0.3806
 2187TIP3    H230757   6.056   7.406  13.702 -0.2869  0.4021 -0.5038
 2188TIP3   OH230758   4.666   3.993  13.534 -0.3361  0.6940 -0.5889
 2188TIP3    H130759   4.590   4.005  13.592  0.3127  1.9611  0.0346
 2188TIP3    H230760   4.738   4.036  13.580  1.0565 -1.4283 -0.6282
 2189TIP3   OH230761   4.271   2.814  14.539  0.0779 -0.8629 -0.4188
 2189TIP3    H130762   4.182   2.801  14.505 -1.1105 -0.0829  2.0623
 2189TIP3    H230763   4.328   2.803  14.464 -2.0030 -2.8408 -1.8378
 2190TIP3   OH230764   2.408   5.355  14.546 -0.2109  0.0534  0.6875
 2190TIP3    H130765   2.452   5.313  14.472 -0.8285 -0.6792  0.7167
 2190TIP3    H230766   2.365   5.283  14.592 -3.4767  0.8751 -0.7302
 2191TIP3   OH230767   4.464   5.193  14.825 -0.2381 -0.2418 -0.3882
 2191TIP3    H130768   4.407   5.133  14.777 -2.6872  2.2002 -0.7925
 2191TIP3    H230769   4.446   5.174  14.918 -1.1006 -0.0802 -0.5137
 2192TIP3   OH230770   6.846   2.522  13.504  1.1200  0.3035 -0.4235
 2192TIP3    H130771   6.763   2.563  13.526  0.7063 -0.7225 -0.0339
 2192TIP3    H230772   6.840   2.504  13.410  0.6504 -0.2986 -0.2870
 2193TIP3   OH230773   3.746   1.944  13.906 -0.2503 -0.1143  0.2947
 2193TIP3    H130774   3.811   1.897  13.958  1.9480  1.2991 -1.0462
 2193TIP3    H230775   3.693   1.875  13.865  0.2059 -1.2921  1.6156
 2194TIP3   OH230776   5.281   4.472  14.882 -0.3577  0.2202 -0.4025
 2194TIP3    H130777   5.217   4.511  14.822  0.4933  1.5443 -0.4960
 2194TIP3    H230778   5.356   4.452  14.826  0.0445  0.4779  0.0439
 2195TIP3   OH230779   0.289   5.778  13.934  0.0968  0.0998  0.6318
 2195TIP3    H130780   0.346   5.853  13.945 -0.1949  0.3639  0.3770
 2195TIP3    H230781   0.219   5.809  13.876 -0.7638  0.0387  1.6188
 2196TIP3   OH230782   0.649   5.415  14.130 -0.7968  0.6331  0.1026
 2196TIP3    H130783   0.673   5.492  14.182  0.4669  0.4501 -0.1819
 2196TIP3    H230784   0.601   5.451  14.055 -0.5117  1.1196  0.1454
 2197TIP3   OH230785   3.943   5.883  14.532 -0.6876 -0.8960 -0.0636
 2197TIP3    H130786   3.973   5.796  14.557  0.7162 -1.0537 -2.0508
 2197TIP3    H230787   3.979   5.941  14.599  0.2264 -1.6185  0.0944
 2198TIP3   OH230788   7.171   5.793  13.832  0.2403 -0.4346  0.2608
 2198TIP3    H130789   7.247   5.750  13.873  1.4735  0.0683 -1.4289
 2198TIP3    H230790   7.209   5.859  13.775 -1.5339  0.4646  0.0795
 2199TIP3   OH230791   4.000   6.937  14.112  0.5365  0.2481 -0.4979
 2199TIP3    H130792   3.980   6.855  14.156 -1.6577  1.3046  0.5825
 2199TIP3    H230793   4.043   6.991  14.178 -1.0359  1.1381 -0.1466
 2200TIP3   OH230794   7.906   5.037  15.215  0.5629  1.0412  0.0621
 2200TIP3    H130795   7.817   5.016  15.244  0.8634  1.9724  1.7502
 2200TIP3    H230796   7.929   4.965  15.155 -1.3971  0.9264 -0.6102
 2201TIP3   OH230797   0.840   2.305  13.715  0.2380 -0.6176  0.1077
 2201TIP3    H130798   0.756   2.261  13.725 -0.5944 -0.0303 -3.0214
 2201TIP3    H230799   0.903   2.233  13.704 -0.0640 -1.0391  1.0031
 2202TIP3   OH230800   6.429   2.157  14.346 -0.4105 -0.6098  0.4237
 2202TIP3    H130801   6.498   2.092  14.362 -0.0566 -0.3091  0.1643
 2202TIP3    H230802   6.417   2.156  14.251  0.2569  0.3405  0.3079
 2203TIP3   OH230803   0.946   6.342  13.822  0.3911  0.8316 -0.1676
 2203TIP3    H130804   0.967   6.375  13.909 -1.9159 -0.9546  1.2017
 2203TIP3    H230805   0.873   6.397  13.792 -0.3327  0.0243  0.0676
 2204TIP3   OH230806   7.403   6.135  14.116  0.0581 -0.0155 -0.1097
 2204TIP3    H130807   7.473   6.180  14.068  1.8989 -1.8284  0.7346
 2204TIP3    H230808   7.391   6.187  14.196  1.6360 -0.5537  0.5058
 2205TIP3   OH230809   2.248   6.059  14.137  0.2800  1.0752  0.2668
 2205TIP3    H130810   2.231   6.009  14.217 -0.1913 -0.4220 -0.7285
 2205TIP3    H230811   2.209   6.007  14.067  3.1558  0.8837 -1.3379
 2206TIP3   OH230812   5.811   3.533  14.177  0.7151  0.8961 -0.5331
 2206TIP3    H130813   5.805   3.456  14.120  3.5202 -1.1988  1.7145
 2206TIP3    H230814   5.857   3.598  14.124  0.3753  0.2033 -1.7144
 2207TIP3   OH230815   6.133   3.237  13.963 -0.4564 -0.6136  0.3829
 2207TIP3    H130816   6.059   3.177  13.972 -0.7870 -0.2324  0.2290
 2207TIP3    H230817   6.101   3.307  13.907  0.7765 -1.6522 -1.7479
 2208TIP3   OH230818   2.208   5.406  13.930 -0.9129 -0.6343  0.1107
 2208TIP3    H130819   2.222   5.430  14.022 -1.8771 -1.8021  0.5900
 2208TIP3    H230820   2.287   5.437  13.885 -0.2336 -0.4124  1.3900
 2209TIP3   OH230821   4.188   1.053  14.868  0.3023 -0.6250  0.6569
 2209TIP3    H130822   4.119   1.093  14.921 -0.0852 -0.0481 -0.2455
 2209TIP3    H230823   4.252   1.122  14.853 -0.3786 -0.2743 -0.9233
 2210TIP3   OH230824   4.215   3.765  12.881  0.0571  0.4123  0.5893
 2210TIP3    H130825   4.284   3.721  12.832 -0.3994  0.4750 -0.1243
 2210TIP3    H230826   4.152   3.696  12.902 -0.7546  0.7294 -0.6976
 2211TIP3   OH230827   3.480   4.529  14.639 -0.4295  0.3728  0.6228
 2211TIP3    H130828   3.430   4.464  14.690  1.2521 -0.1139  1.7563
 2211TIP3    H230829   3.455   4.613  14.678 -1.3515  0.2771  0.2738
 2212TIP3   OH230830   5.464   0.660  13.800  0.2304 -0.3720 -0.3082
 2212TIP3    H130831   5.403   0.733  13.791 -0.1194 -0.0834  3.0483
 2212TIP3    H230832   5.417   0.595  13.852  2.2783 -0.6232  1.3960
 2213TIP3   OH230833   2.485   4.066  13.822  0.4676  0.0722  0.3109
 2213TIP3    H130834   2.473   4.151  13.865 -1.0890  0.6428 -1.1405
 2213TIP3    H230835   2.397   4.042  13.793  0.7057 -2.4887  1.4342
 2214TIP3   OH230836   2.353   7.378  13.723  0.1900  0.2314 -0.2585
 2214TIP3    H130837   2.362   7.322  13.646  0.6631 -1.0221  0.6646
 2214TIP3    H230838   2.350   7.317  13.797 -1.4287  1.3382  0.6559
 2215TIP3   OH230839   5.715   5.550  15.026  0.2979 -0.2702 -0.7290
 2215TIP3    H130840   5.643   5.589  14.977  0.0597 -1.0547 -1.0236
 2215TIP3    H230841   5.760   5.624  15.066 -0.8903  0.2177 -0.2342
 2216TIP3   OH230842   1.776   2.905  13.049 -0.1594  0.3946  0.0053
 2216TIP3    H130843   1.829   2.826  13.043  0.8221  0.9544  1.0500
 2216TIP3    H230844   1.785   2.934  13.140 -0.7491  1.5486 -0.2799
 2217TIP3   OH230845   1.800   2.887  14.964 -0.1119 -0.2717  0.3195
 2217TIP3    H130846   1.705   2.886  14.976 -0.3826 -1.8865 -1.4452
 2217TIP3    H230847   1.832   2.950  15.029 -2.1405 -1.3980  2.6066
 2218TIP3   OH230848   3.671   6.413  13.535  0.1609  0.5012  0.2948
 2218TIP3    H130849   3.639   6.467  13.462  0.3566  0.2389  0.0138
 2218TIP3    H230850   3.663   6.323  13.504 -0.6945  0.3337  0.9814
 2219TIP3   OH230851   7.612   8.016  14.251 -0.0462 -0.7841  0.2641
 2219TIP3    H130852   7.540   7.979  14.200 -0.1396 -0.5727  0.2448
 2219TIP3    H230853   7.598   8.110  14.248  0.0114 -0.7643  0.5872
 2220TIP3   OH230854   3.675   4.322  13.146  0.0120  0.3843 -0.1689
 2220TIP3    H130855   3.602   4.347  13.202  0.1869  0.9825 -0.1980
 2220TIP3    H230856   3.717   4.250  13.192  1.4639  2.2545  1.6211
 2221TIP3   OH230857   0.957   3.041  14.520  0.1470  0.3363 -0.2297
 2221TIP3    H130858   0.875   3.009  14.557  1.3780 -0.7061  1.8576
 2221TIP3    H230859   1.009   2.961  14.507  2.0084  1.1374  1.7171
 2222TIP3   OH230860   7.018   0.376  14.025 -0.0930 -0.5934 -0.3092
 2222TIP3    H130861   6.980   0.376  13.938 -0.4554 -0.3467 -0.1500
 2222TIP3    H230862   7.104   0.335  14.014  0.6517  1.0876 -1.1214
 2223TIP3   OH230863   4.480   4.410  14.454 -0.4789 -0.6170  0.1915
 2223TIP3    H130864   4.394   4.371  14.438 -1.2360  0.7342  0.8488
 2223TIP3    H230865   4.464   4.481  14.516  0.9992  0.1292 -0.2215
 2224TIP3   OH230866   7.980   0.131  14.883  0.0419  0.2954 -0.1181
 2224TIP3    H130867   7.953   0.183  14.959 -1.9788 -0.0563 -0.5361
 2224TIP3    H230868   8.058   0.175  14.850 -0.8996  2.3665  0.2674
 2225TIP3   OH230869   2.771   4.024  13.208 -0.5880 -0.0721  0.5742
 2225TIP3    H130870   2.730   4.079  13.141 -0.5597 -1.8961 -1.0321
 2225TIP3    H230871   2.816   3.956  13.158 -0.4213 -1.4164  2.4618
 2226TIP3   OH230872   8.358   1.433  14.298 -0.2859  0.1818 -0.1266
 2226TIP3    H130873   8.284   1.458  14.243 -0.7174  0.1853  0.4409
 2226TIP3    H230874   8.420   1.506  14.291 -0.0714 -0.0825 -1.0590
 2227TIP3   OH230875   5.639   5.804  14.044  0.9260 -0.0641  0.2847
 2227TIP3    H130876   5.564   5.836  13.995  0.4355 -1.1440  0.3093
 2227TIP3    H230877   5.602   5.776  14.128  1.3779 -0.4350  0.3625
 2228TIP3   OH230878   1.221   2.727  14.944  0.2295 -0.1913 -0.1153
 2228TIP3    H130879   1.197   2.690  14.859 -2.6286  2.4900 -0.6981
 2228TIP3    H230880   1.186   2.665  15.008 -1.9093  0.0094 -1.0033
 2229TIP3   OH230881   2.648   3.667  14.759 -0.0377  0.3250  0.2774
 2229TIP3    H130882   2.597   3.726  14.816 -2.0670  0.6316 -1.6875
 2229TIP3    H230883   2.685   3.725  14.693  0.9649 -0.2112  0.3595
 2230TIP3   OH230884   6.831   2.450  13.232 -0.4413  0.1356 -0.3856
 2230TIP3    H130885   6.785   2.381  13.280 -0.4214  0.0625 -0.4703
 2230TIP3    H230886   6.773   2.470  13.158 -0.5889  0.4235 -0.1919
 2231TIP3   OH230887   4.467   1.947  14.456  0.2415 -0.2208 -0.3616
 2231TIP3    H130888   4.509   1.964  14.372  1.3456 -0.3639  0.1542
 2231TIP3    H230889   4.528   1.979  14.521 -0.5288 -0.2718  0.4042
 2232TIP3   OH230890   6.949   7.793  14.404  0.2600  0.4920  0.9485
 2232TIP3    H130891   6.984   7.732  14.339  2.1409  0.1444  2.1900
 2232TIP3    H230892   6.890   7.740  14.458 -1.5577  0.8546 -0.5834
 2233TIP3   OH230893   7.262   3.491  14.655 -0.2847  0.0634  0.4217
 2233TIP3    H130894   7.188   3.434  14.675 -0.2059 -0.0538  0.3796
 2233TIP3    H230895   7.330   3.466  14.717  0.9859 -2.2681 -1.7480
 2234TIP3   OH230896   2.921   7.261  13.891  0.0937 -0.4226  0.1384
 2234TIP3    H130897   2.908   7.281  13.798  1.5987  2.0023  0.3563
 2234TIP3    H230898   2.920   7.347  13.934  2.5933 -1.1745  1.9171
 2235TIP3   OH230899   4.719   1.822  13.030 -0.0073 -0.1022  0.3976
 2235TIP3    H130900   4.790   1.883  13.049  0.3276  0.2753 -1.8143
 2235TIP3    H230901   4.639   1.870  13.053  0.3654  0.1054  1.2824
 2236TIP3   OH230902   6.381   0.034  13.383  0.1546 -0.2865  0.5757
 2236TIP3    H130903   6.305  -0.010  13.420 -0.1634 -0.8749 -0.7585
 2236TIP3    H230904   6.396  -0.008  13.299  2.3882 -0.6595  1.0807
 2237TIP3   OH230905   7.439   4.704  13.378 -0.3939  0.3909 -0.2287
 2237TIP3    H130906   7.395   4.625  13.348  1.6645 -0.3534 -1.5053
 2237TIP3    H230907   7.471   4.683  13.466  0.6823 -0.4663 -0.7997
 2238TIP3   OH230908   0.695   7.955  13.254  0.2968  0.1480  0.3309
 2238TIP3    H130909   0.730   8.041  13.276  0.8351 -0.1040  0.4754
 2238TIP3    H230910   0.662   7.921  13.337  0.3931  0.0784  0.3414
 2239TIP3   OH230911   6.798   7.064  13.997 -0.4911  0.4246  0.5155
 2239TIP3    H130912   6.746   7.126  13.947  1.1066 -0.8414 -3.0217
 2239TIP3    H230913   6.860   7.119  14.045 -1.5513  1.6838  0.4948
 2240TIP3   OH230914   7.164   5.318  14.508  0.4121  0.0304 -0.2022
 2240TIP3    H130915   7.216   5.392  14.540  0.1122 -0.7274  2.2503
 2240TIP3    H230916   7.200   5.242  14.554 -1.4309 -0.8355 -0.1105
 2241TIP3   OH230917   5.032   6.076  14.967 -0.2536  0.4335  0.1077
 2241TIP3    H130918   4.977   6.092  14.890  0.4201 -0.1843 -0.5264
 2241TIP3    H230919   4.973   6.085  15.042 -1.1382  0.1052 -0.5384
 2242TIP3   OH230920   5.745   2.493  14.912  0.2372 -0.2981 -0.5417
 2242TIP3    H130921   5.793   2.477  14.830 -0.4850 -1.6290 -0.7263
 2242TIP3    H230922   5.662   2.533  14.883  0.0502 -0.6165 -0.4412
 2243TIP3   OH230923   6.463   0.257  14.597  0.3756  0.1505 -0.1479
 2243TIP3    H130924   6.535   0.225  14.650 -0.3672 -0.7124  0.3687
 2243TIP3    H230925   6.504   0.316  14.533  2.1876 -3.4905 -2.6639
 2244TIP3   OH230926   5.728   0.452  14.370 -0.1255 -0.6526 -0.0558
 2244TIP3    H130927   5.682   0.513  14.313 -1.6654 -0.2576  1.5145
 2244TIP3    H230928   5.813   0.439  14.328 -0.6724  0.6629 -1.6832
 2245TIP3   OH230929   6.929   6.371  15.076  0.1337  0.3326  0.0702
 2245TIP3    H130930   6.853   6.381  15.133  1.7686  1.7802  2.1432
 2245TIP3    H230931   6.942   6.277  15.070 -2.3386 -0.0315 -1.1874
 2246TIP3   OH230932   0.935   3.192  14.307 -0.0956 -0.3321 -0.0002
 2246TIP3    H130933   0.943   3.123  14.373  2.3463  0.2566  0.4043
 2246TIP3    H230934   0.879   3.258  14.349 -3.9135 -2.6190 -1.0233
 2247TIP3   OH230935   7.399   4.349  14.805 -0.1841  0.7653 -0.9600
 2247TIP3    H130936   7.330   4.318  14.863  0.1459  1.2676 -0.2782
 2247TIP3    H230937   7.405   4.443  14.823  1.5646  0.5221 -0.0258
 2248TIP3   OH230938   3.621   2.424  13.906  0.0115  0.4575 -0.0854
 2248TIP3    H130939   3.681   2.353  13.881 -1.7358 -0.8529 -0.7877
 2248TIP3    H230940   3.639   2.494  13.843 -0.1468 -0.4673 -1.2052
 2249TIP3   OH230941   2.747   1.200  13.440  0.0123 -0.4090  0.1368
 2249TIP3    H130942   2.743   1.113  13.400 -3.7714  0.0424 -0.8634
 2249TIP3    H230943   2.664   1.241  13.417  0.2234  2.2677  3.3412
 2250TIP3   OH230944   6.773   4.689  12.541 -0.0093 -0.3443 -0.2064
 2250TIP3    H130945   6.788   4.614  12.482 -3.1230 -0.2160 -1.4104
 2250TIP3    H230946   6.716   4.654  12.609  0.2743  0.4407  0.4427
 2251TIP3   OH230947   1.584   4.475  14.223 -0.4924  0.0413 -0.7836
 2251TIP3    H130948   1.585   4.448  14.315  0.5750 -2.0259 -1.3168
 2251TIP3    H230949   1.664   4.527  14.213 -0.3265 -0.1820 -0.6431
 2252TIP3   OH230950   5.413   5.469  14.796  0.2051 -0.6668  0.4456
 2252TIP3    H130951   5.418   5.479  14.701 -1.6668  0.4453  0.4156
 2252TIP3    H230952   5.422   5.559  14.829 -3.4229 -0.3478  1.0057
 2253TIP3   OH230953   2.228   3.009  13.544  0.1021  0.2458  0.0461
 2253TIP3    H130954   2.296   2.945  13.562  0.3514  1.2431  3.2135
 2253TIP3    H230955   2.146   2.960  13.546  0.4798 -0.4294 -0.6326
 2254TIP3   OH230956   1.885   1.894  13.891  0.0897  0.2390  0.0582
 2254TIP3    H130957   1.825   1.823  13.911 -0.9316  1.1854  0.4421
 2254TIP3    H230958   1.868   1.916  13.800  0.2217  0.1722  0.0170
 2255TIP3   OH230959   3.774   7.564  14.594  0.9309 -0.0073  0.1768
 2255TIP3    H130960   3.854   7.609  14.569  0.8630 -0.5442 -1.1198
 2255TIP3    H230961   3.704   7.626  14.573  0.8806 -0.4189 -0.9161
 2256TIP3   OH230962   0.688   8.209  14.359  0.1891 -0.0487  0.0433
 2256TIP3    H130963   0.605   8.182  14.319 -0.5089 -0.0892  1.4516
 2256TIP3    H230964   0.696   8.301  14.337  0.1366 -0.2075 -0.6897
 2257TIP3   OH230965   1.372   0.570  14.369  0.3060 -0.2454 -0.1946
 2257TIP3    H130966   1.464   0.588  14.350 -0.1652  0.1659 -2.4966
 2257TIP3    H230967   1.354   0.618  14.449  1.7512  0.8867 -0.4972
 2258TIP3   OH230968   1.790   1.865  13.226  0.0160  0.1584  0.3431
 2258TIP3    H130969   1.732   1.795  13.254  0.1919  0.2220  0.8780
 2258TIP3    H230970   1.815   1.910  13.307  1.0447 -0.0506  0.1550
 2259TIP3   OH230971   0.339   4.898  13.939 -0.7031 -0.5478  0.1465
 2259TIP3    H130972   0.422   4.854  13.923  0.4984  1.9090 -0.9452
 2259TIP3    H230973   0.336   4.911  14.034  0.6398  0.1448  0.1089
 2260TIP3   OH230974   7.547   4.348  13.248  0.3041  0.5960  0.2206
 2260TIP3    H130975   7.486   4.411  13.286 -0.3966 -0.6918  1.3118
 2260TIP3    H230976   7.560   4.379  13.158 -2.9140  0.2936 -0.4694
 2261TIP3   OH230977   2.601   2.606  13.591  0.0395 -0.4558 -0.6333
 2261TIP3    H130978   2.688   2.645  13.575 -0.6531  0.8597 -1.3902
 2261TIP3    H230979   2.620   2.520  13.628  1.6804  0.6447  1.3131
 2262TIP3   OH230980   3.079   1.509  13.666  0.3126  0.9086 -0.5598
 2262TIP3    H130981   3.064   1.441  13.600  0.1743 -0.3323  0.7023
 2262TIP3    H230982   2.993   1.547  13.682  0.5014  1.8887 -1.7743
 2263TIP3   OH230983   7.551   1.424  14.416 -0.2310  0.1526  0.0910
 2263TIP3    H130984   7.479   1.457  14.470 -0.5508  0.6775 -0.6398
 2263TIP3    H230985   7.543   1.472  14.333  1.0899  0.3861  0.0687
 2264TIP3   OH230986   0.010   0.628  14.826  0.2874 -0.0104  0.6039
 2264TIP3    H130987  -0.042   0.581  14.892 -0.3655 -0.8537 -0.4860
 2264TIP3    H230988   0.018   0.566  14.753 -1.2696  1.7927 -1.2248
 2265TIP3   OH230989   4.083   6.176  14.172  0.3057 -0.1008  0.4313
 2265TIP3    H130990   4.045   6.107  14.225 -2.0594  0.9376  0.2263
 2265TIP3    H230991   4.009   6.210  14.120  1.7941  1.2244 -0.9501
 2266TIP3   OH230992   4.018   0.862  14.078  0.0255 -0.0282  0.3209
 2266TIP3    H130993   4.058   0.948  14.091  1.3804 -0.5988  0.1275
 2266TIP3    H230994   3.941   0.879  14.023  1.2256  0.8634 -1.1493
 2267TIP3   OH230995   5.255   3.774  14.798  0.0635  0.2291  0.0018
 2267TIP3    H130996   5.340   3.732  14.786 -0.8618 -1.9340  0.6187
 2267TIP3    H230997   5.205   3.751  14.719  0.5439  2.9556 -1.2059
 2268TIP3   OH230998   1.477   2.241  13.402  0.3727  0.2311  0.2304
 2268TIP3    H130999   1.426   2.162  13.387  0.4801  0.4792 -1.7380
 2268TIP3    H231000   1.411   2.309  13.418  0.1663  0.1635 -0.3039
 2269TIP3   OH231001   3.291   3.237  14.022  0.1207  0.6799 -0.2077
 2269TIP3    H131002   3.248   3.158  14.055 -0.5610  1.5020  0.9052
 2269TIP3    H231003   3.341   3.206  13.946  1.4374 -1.2240  1.3170
 2270TIP3   OH231004   1.769   7.429  14.469  0.1639 -0.0244 -0.4229
 2270TIP3    H131005   1.690   7.386  14.500  0.2835 -0.0684 -0.1749
 2270TIP3    H231006   1.750   7.522  14.476 -1.3765  0.1234 -4.0857
 2271TIP3   OH231007   6.190   2.353  14.060  0.0269 -0.1757  0.6474
 2271TIP3    H131008   6.244   2.274  14.068  1.0553  0.6303  2.4242
 2271TIP3    H231009   6.113   2.325  14.011 -0.2984 -2.6550  2.3546
 2272TIP3   OH231010   3.633   4.997  13.953  0.2797 -0.2174  0.3073
 2272TIP3    H131011   3.653   4.918  14.004  0.6416 -0.2800  0.0711
 2272TIP3    H231012   3.687   4.989  13.875 -0.6066 -0.3393 -0.2974
 2273TIP3   OH231013   7.536   1.169  12.943 -0.4329 -0.0933  0.4090
 2273TIP3    H131014   7.520   1.263  12.951 -0.5700 -0.0048 -0.8142
 2273TIP3    H231015   7.459   1.135  12.899  0.7806 -0.3368 -1.6241
 2274TIP3   OH231016   4.000   5.937  14.281 -0.7210  0.3453 -0.7612
 2274TIP3    H131017   3.981   5.897  14.366 -0.5964 -0.1337 -0.9576
 2274TIP3    H231018   3.970   5.872  14.217 -0.7527  0.6771 -1.0825
 2275TIP3   OH231019   5.391   7.089  14.530 -0.4916  0.2980 -0.0587
 2275TIP3    H131020   5.439   7.051  14.603  1.0330  1.3996 -0.4469
 2275TIP3    H231021   5.384   7.018  14.466  0.6138  0.0986  0.0186
 2276TIP3   OH231022   8.266   4.765  13.996 -0.2003  0.1686 -0.3298
 2276TIP3    H131023   8.247   4.718  13.915  1.2938 -3.3004  1.1687
 2276TIP3    H231024   8.362   4.771  13.999 -0.2319  0.2789  1.1591
 2277TIP3   OH231025   8.210   0.173  13.776  0.3423 -0.2510  0.1079
 2277TIP3    H131026   8.243   0.170  13.865  3.4596 -1.0734 -0.9340
 2277TIP3    H231027   8.289   0.181  13.721 -1.3773 -0.3898 -2.5999
 2278TIP3   OH231028   5.242   0.678  14.698  0.1357 -0.2523  0.1309
 2278TIP3    H131029   5.221   0.772  14.697 -0.0366 -0.2909  0.0459
 2278TIP3    H231030   5.326   0.672  14.653  1.4988  0.1768  2.4613
 2279TIP3   OH231031   6.236   7.907  15.208 -0.2106  0.5929  0.3124
 2279TIP3    H131032   6.303   7.852  15.168 -1.2239 -2.4089  2.3954
 2279TIP3    H231033   6.153   7.872  15.174 -0.9132  2.8551 -0.5695
 2280TIP3   OH231034   1.687   5.248  14.563  0.1213 -0.3371 -0.2789
 2280TIP3    H131035   1.723   5.265  14.650 -3.0965  0.5652  1.0251
 2280TIP3    H231036   1.618   5.314  14.552 -2.1704 -2.7956 -1.8554
 2281TIP3   OH231037   8.095   3.337  13.647  0.0294  0.0524 -0.6509
 2281TIP3    H131038   8.149   3.416  13.651 -1.4455  1.0662  0.8041
 2281TIP3    H231039   8.108   3.295  13.733 -0.7766 -0.1684 -0.6318
 2282TIP3   OH231040   5.318   1.509  14.860  0.3587  0.1026 -0.2117
 2282TIP3    H131041   5.400   1.558  14.851 -0.1014  0.7174 -1.2707
 2282TIP3    H231042   5.317   1.451  14.784  0.2036 -0.4981  0.2463
 2283TIP3   OH231043   3.559   0.047  14.531  0.0302 -0.6449  0.2295
 2283TIP3    H131044   3.538   0.135  14.563 -0.4709 -0.5993 -0.2246
 2283TIP3    H231045   3.655   0.042  14.538  0.2421  0.5402 -1.2667
 2284TIP3   OH231046   8.379   4.186  14.865  0.1953 -0.3662 -0.1193
 2284TIP3    H131047   8.295   4.217  14.899 -0.5695 -2.1316 -0.2621
 2284TIP3    H231048   8.365   4.093  14.850  2.1838 -0.6932 -0.2040
 2285TIP3   OH231049   1.514   5.447  14.560 -0.1969 -0.2792  0.0485
 2285TIP3    H131050   1.543   5.503  14.632 -0.5820 -0.6355  0.4855
 2285TIP3    H231051   1.437   5.491  14.524 -0.3938 -0.4347  0.2778
 2286TIP3   OH231052   4.613   8.189  14.143 -0.4635  0.2174  0.1770
 2286TIP3    H131053   4.526   8.227  14.153 -0.5026 -0.0535  0.9470
 2286TIP3    H231054   4.607   8.103  14.185 -0.0640 -0.1682 -0.5356
 2287TIP3   OH231055   5.913   0.441  14.141  0.2756  0.7752  0.3429
 2287TIP3    H131056   5.888   0.411  14.054  0.7570 -1.4325  0.9253
 2287TIP3    H231057   5.956   0.526  14.126  2.2218 -0.4955 -1.8201
 2288TIP3   OH231058   3.359   7.798  13.036 -0.1289  0.5493  0.3799
 2288TIP3    H131059   3.352   7.836  12.949 -0.0985  1.1292  0.6220
 2288TIP3    H231060   3.449   7.766  13.041 -0.2840  0.0456  0.0178
 2289TIP3   OH231061   4.717   2.378  13.229  0.2423 -0.4663 -0.0862
 2289TIP3    H131062   4.775   2.336  13.293 -0.9475 -1.8515  0.1064
 2289TIP3    H231063   4.629   2.356  13.258 -0.3588  0.2137 -1.3317
 2290TIP3   OH231064   0.776   1.462  13.836 -0.8007  0.7118 -0.3154
 2290TIP3    H131065   0.840   1.496  13.899 -0.3852 -1.6191  0.6394
 2290TIP3    H231066   0.720   1.537  13.815  0.3552  2.0661  1.2120
 2291TIP3   OH231067   6.331   5.538  14.902 -0.2536 -0.6968 -0.2317
 2291TIP3    H131068   6.380   5.508  14.825 -0.6051 -1.5081 -0.1528
 2291TIP3    H231069   6.254   5.581  14.866  0.4482  0.4926 -0.3559
 2292TIP3   OH231070   6.507   6.868  14.332  0.4294 -0.4154 -0.2002
 2292TIP3    H131071   6.430   6.885  14.386 -0.1156  0.8540 -1.3154
 2292TIP3    H231072   6.544   6.787  14.367 -0.3601 -0.0648  1.5160
 2293TIP3   OH231073   3.015   1.086  13.685 -0.4256  0.0596 -0.0533
 2293TIP3    H131074   3.005   1.153  13.753 -0.3386  2.3387 -2.1566
 2293TIP3    H231075   2.942   1.025  13.701 -0.2828  0.3814  2.1649
 2294TIP3   OH231076   0.759   4.584  14.716  0.0267 -0.0941 -0.3044
 2294TIP3    H131077   0.784   4.536  14.637 -1.2021  0.2753 -0.9352
 2294TIP3    H231078   0.698   4.650  14.685 -1.0955 -0.4515  1.0802
 2295TIP3   OH231079   1.532   5.095  12.855  0.0738 -0.0656 -0.0544
 2295TIP3    H131080   1.586   5.057  12.924 -2.5291 -0.7387  1.7380
 2295TIP3    H231081   1.515   5.022  12.795  0.5703 -0.0093 -0.2714
 2296TIP3   OH231082   5.881   8.253  13.384 -0.6394  0.4721  0.5169
 2296TIP3    H131083   5.958   8.201  13.362 -1.4849 -0.4896 -0.2881
 2296TIP3    H231084   5.831   8.197  13.443 -0.7771  1.0452  0.9446
 2297TIP3   OH231085   5.574   0.724  12.959  0.6283  0.1877 -0.0655
 2297TIP3    H131086   5.613   0.718  12.872 -0.8602  1.9194 -0.9278
 2297TIP3    H231087   5.548   0.816  12.967 -0.6409 -0.2663  1.5846
 2298TIP3   OH231088   4.490   4.823  14.193 -0.0296  0.3938  0.0057
 2298TIP3    H131089   4.461   4.884  14.125 -1.3751  0.8942  0.9939
 2298TIP3    H231090   4.493   4.738  14.150 -0.5110  0.7610 -0.7648
 2299TIP3   OH231091   2.310   6.430  13.679  0.3725  0.3772  0.0375
 2299TIP3    H131092   2.381   6.412  13.741  0.8460  0.7249 -0.3984
 2299TIP3    H231093   2.318   6.361  13.613  0.2284  0.3496  0.0489
 2300TIP3   OH231094   6.342   3.122  14.725  0.3498  0.0655 -0.1152
 2300TIP3    H131095   6.279   3.193  14.736  1.5090  1.0447  0.3882
 2300TIP3    H231096   6.332   3.094  14.634 -0.0179  0.9683 -0.3577
 2301TIP3   OH231097   6.572   1.712  14.539 -0.1240  0.4989  0.2292
 2301TIP3    H131098   6.625   1.665  14.474  0.2941  1.8489 -0.4620
 2301TIP3    H231099   6.612   1.799  14.543 -0.6864  0.7184  1.6731
 2302TIP3   OH231100   3.626   4.611  14.865 -0.0648 -0.0191  0.1771
 2302TIP3    H131101   3.580   4.566  14.936  1.1068 -1.1793  0.2503
 2302TIP3    H231102   3.701   4.554  14.846  0.0049  0.5935 -1.5518
 2303TIP3   OH231103   4.548   0.573  13.498 -0.2755  1.0141  0.3094
 2303TIP3    H131104   4.514   0.484  13.488  5.3805 -1.5975  0.5131
 2303TIP3    H231105   4.560   0.604  13.408 -1.1477  1.0977  0.2167
 2304TIP3   OH231106   1.768   1.036  14.449  0.3124 -0.4294  0.1745
 2304TIP3    H131107   1.722   1.086  14.381 -0.7952 -0.7709  0.6441
 2304TIP3    H231108   1.806   1.102  14.506 -1.4815 -0.0660  1.0204
 2305TIP3   OH231109   7.043   7.137  13.558 -0.3140  0.6823 -0.4577
 2305TIP3    H131110   7.137   7.127  13.540 -0.2447 -0.1454  0.2853
 2305TIP3    H231111   7.039   7.183  13.641 -0.4915 -1.4071  0.7540
 2306TIP3   OH231112   5.369   1.059  14.290 -0.2581 -0.0374  0.3743
 2306TIP3    H131113   5.357   1.077  14.197 -0.1826 -1.9946 -0.0542
 2306TIP3    H231114   5.280   1.051  14.325 -0.2893 -0.5817  0.1816
 2307TIP3   OH231115   1.265   4.143  14.335 -0.5591 -0.2638  0.2495
 2307TIP3    H131116   1.302   4.212  14.389 -2.3117  0.4835  0.5659
 2307TIP3    H231117   1.230   4.188  14.258  0.6812 -1.1563 -0.8821
 2308TIP3   OH231118   6.280   1.663  13.551  0.4239 -0.8144 -0.1722
 2308TIP3    H131119   6.359   1.620  13.585  1.5714 -1.6137 -3.5031
 2308TIP3    H231120   6.253   1.609  13.477 -1.4482  1.1719 -1.0486
 2309TIP3   OH231121   0.112   6.404  14.802  0.2869 -0.3475  0.5527
 2309TIP3    H131122   0.205   6.381  14.795  0.4791  0.3149  0.8507
 2309TIP3    H231123   0.067   6.339  14.749  0.9389 -0.5704  0.2645
 2310TIP3   OH231124   7.770   1.708  13.906  0.4229 -0.3162  0.5581
 2310TIP3    H131125   7.857   1.701  13.869  0.2773 -1.1110  0.3483
 2310TIP3    H231126   7.733   1.787  13.867  0.7881 -0.3709  0.1012
 2311TIP3   OH231127   3.880   3.714  13.260  0.0796  0.4489  0.6680
 2311TIP3    H131128   3.892   3.663  13.180  1.1838 -1.2766  1.8723
 2311TIP3    H231129   3.891   3.805  13.232 -1.3513  0.0542 -1.4307
 2312TIP3   OH231130   1.811   1.222  14.681  0.4820  0.7684  0.3081
 2312TIP3    H131131   1.750   1.252  14.749  0.7158 -0.0021  0.8712
 2312TIP3    H231132   1.796   1.282  14.608 -0.5818  0.9187  0.6245
 2313TIP3   OH231133   3.749   5.467  15.209  0.0617 -0.2543 -0.4281
 2313TIP3    H131134   3.673   5.409  15.213 -0.1669  0.1090  2.4168
 2313TIP3    H231135   3.718   5.549  15.246  2.1685 -0.6051  2.4819
 2314TIP3   OH231136   7.835   0.303  13.164  0.0080 -0.1072  0.2448
 2314TIP3    H131137   7.800   0.235  13.107 -2.8689  0.2051  1.5040
 2314TIP3    H231138   7.814   0.274  13.252  0.8609  1.3089  0.9577
 2315TIP3   OH231139   2.713   2.335  12.915 -0.5895 -0.5655  0.2693
 2315TIP3    H131140   2.665   2.263  12.957  0.1722 -1.5185 -0.4405
 2315TIP3    H231141   2.791   2.346  12.968 -1.5455  0.9955  1.4307
 2316TIP3   OH231142   3.673   6.998  14.108  0.1303 -0.7852 -0.1199
 2316TIP3    H131143   3.749   7.001  14.166  1.0368  0.7843 -1.3303
 2316TIP3    H231144   3.655   7.090  14.087 -0.8147 -1.2549 -1.5005
 2317TIP3   OH231145   7.466   3.473  13.864 -0.0185  0.1687  0.0658
 2317TIP3    H131146   7.454   3.476  13.769  0.6830 -1.3361 -0.1057
 2317TIP3    H231147   7.543   3.527  13.881 -0.6429  1.1313 -0.1044
 2318TIP3   OH231148   2.459   3.577  12.711 -0.3701 -0.0363 -0.3417
 2318TIP3    H131149   2.433   3.491  12.679  0.2994 -0.6185  0.6293
 2318TIP3    H231150   2.388   3.635  12.683 -1.0737 -0.9849 -0.5818
 2319TIP3   OH231151   3.201   6.987  14.798  0.1078 -0.0334  0.2714
 2319TIP3    H131152   3.279   6.932  14.796  1.9920  2.4322  0.4965
 2319TIP3    H231153   3.153   6.963  14.718  2.2218 -0.1865 -1.0386
 2320TIP3   OH231154   0.701   4.217  14.670 -0.1164  0.4838 -0.6137
 2320TIP3    H131155   0.612   4.224  14.704 -0.5835 -1.3396 -1.3316
 2320TIP3    H231156   0.701   4.271  14.591  0.1723  2.4952  0.7093
 2321TIP3   OH231157   0.686   6.451  13.083 -0.2637  0.2955 -0.6627
 2321TIP3    H131158   0.759   6.401  13.047  0.1397  1.2950 -1.2787
 2321TIP3    H231159   0.625   6.385  13.117  0.5854 -0.5706 -0.7968
 2322TIP3   OH231160   0.390   3.828  13.168  0.2750 -0.6605 -0.4189
 2322TIP3    H131161   0.458   3.844  13.103 -0.7779 -0.5742 -1.5458
 2322TIP3    H231162   0.335   3.906  13.165  0.3459 -0.5460  0.7756
 2323TIP3   OH231163   7.263   4.180  12.727 -0.4323  0.5751  0.2817
 2323TIP3    H131164   7.198   4.237  12.686 -3.7926 -2.0797  1.3592
 2323TIP3    H231165   7.291   4.121  12.656 -1.1279  0.2089  0.2963
 2324TIP3   OH231166   0.660   6.090  15.127 -0.0479  0.5719 -0.1109
 2324TIP3    H131167   0.614   6.055  15.051 -1.0701 -0.4869  0.9403
 2324TIP3    H231168   0.590   6.122  15.185  0.3649 -1.8942  1.9378
 2325TIP3   OH231169   5.640   0.792  14.172 -0.1496 -0.1121  0.5591
 2325TIP3    H131170   5.668   0.745  14.093  0.1160 -0.2070  0.7078
 2325TIP3    H231171   5.647   0.885  14.148 -0.4008 -0.1444  0.3574
 2326TIP3   OH231172   3.769   7.494  14.217  0.1136 -0.6198  0.4520
 2326TIP3    H131173   3.858   7.459  14.224 -0.3627 -1.8358  0.5923
 2326TIP3    H231174   3.713   7.427  14.256 -0.9277 -0.1214 -0.1421
 2327TIP3   OH231175   7.982   1.866  14.906 -0.2233 -0.5192 -0.0381
 2327TIP3    H131176   8.069   1.878  14.867 -0.4198  2.1928  0.1572
 2327TIP3    H231177   7.998   1.816  14.985  0.8925 -1.6555 -0.9374
 2328TIP3   OH231178   3.090   3.611  14.851  0.3609 -0.1570  0.2227
 2328TIP3    H131179   3.083   3.706  14.847  1.1324 -0.1479 -1.7676
 2328TIP3    H231180   3.000   3.579  14.842  0.1258  0.3582  0.6887
 2329TIP3   OH231181   5.889   4.977   9.264  0.4405 -0.0667  0.3778
 2329TIP3    H131182   5.869   4.991   9.357  1.9636 -0.0781  0.7343
 2329TIP3    H231183   5.920   4.887   9.259  0.6660  0.0340 -0.0875
 2330TIP3   OH231184   5.966   0.926  14.011 -0.3342 -0.4090  0.1925
 2330TIP3    H131185   5.911   0.896  13.939 -2.0261  0.5033  1.0543
 2330TIP3    H231186   6.009   0.847  14.043 -0.6671 -1.0507 -0.8888
 2331TIP3   OH231187   3.903   7.156  15.103  0.3807 -0.3386 -0.7041
 2331TIP3    H131188   3.985   7.108  15.119 -0.6281 -1.4965  1.4629
 2331TIP3    H231189   3.895   7.216  15.177 -0.4945  0.1087 -1.1463
 2332TIP3   OH231190   6.583   3.700  14.999 -0.0623 -0.2275 -0.3300
 2332TIP3    H131191   6.604   3.624  15.053 -0.7684  0.3134  0.7416
 2332TIP3    H231192   6.666   3.725  14.959  0.4489 -0.7185  0.4108
 2333TIP3   OH231193   2.638   6.931  13.880  0.3990  0.8812 -0.3519
 2333TIP3    H131194   2.580   6.974  13.943  0.1082  1.9098 -1.2997
 2333TIP3    H231195   2.583   6.912  13.805  0.6138 -0.8352 -0.1243
 2334TIP3   OH231196   3.580   4.110  13.981  0.0824 -0.4891 -0.3023
 2334TIP3    H131197   3.580   4.132  14.074  0.2953 -1.8769  0.0531
 2334TIP3    H231198   3.601   4.192  13.937 -0.6003  0.3182  0.8328
 2335TIP3   OH231199   5.395   5.289  14.209 -0.2765 -0.0252  0.4830
 2335TIP3    H131200   5.345   5.253  14.136 -1.7586  0.2984  1.2854
 2335TIP3    H231201   5.418   5.213  14.262 -2.8544 -0.0080  1.8378
 2336TIP3   OH231202   4.476   3.575  15.242 -0.4605  0.0584  0.3642
 2336TIP3    H131203   4.555   3.547  15.197  0.3901  0.3988  1.5819
 2336TIP3    H231204   4.418   3.606  15.172  1.3322  1.8512 -0.4284
 2337TIP3   OH231205   1.776   6.456  15.320 -0.1226 -0.2008  1.0181
 2337TIP3    H131206   1.866   6.473  15.294 -0.0639  1.4853  2.1965
 2337TIP3    H231207   1.726   6.530  15.287 -0.7098 -0.0497  2.1769
 2338TIP3   OH231208   7.300   8.402  14.138 -0.3844 -0.4831  0.0602
 2338TIP3    H131209   7.221   8.349  14.131 -0.3851 -0.3687 -0.8232
 2338TIP3    H231210   7.281   8.466  14.207 -1.9820  1.1045 -1.7464
 2339TIP3   OH231211   1.140   6.117  13.887 -0.2754 -0.0055 -0.3229
 2339TIP3    H131212   1.135   6.118  13.982  0.8431  0.9616 -0.2616
 2339TIP3    H231213   1.118   6.206  13.860  3.6352  1.0646 -0.6553
 2340TIP3   OH231214   4.511   2.981  13.534 -0.1225 -0.4367  0.2235
 2340TIP3    H131215   4.533   2.962  13.443 -0.9899 -2.1216  0.3187
 2340TIP3    H231216   4.480   3.071  13.533 -0.4971 -0.5527 -1.2313
 2341TIP3   OH231217   6.025   3.433  15.087 -0.1541  0.2279  0.3792
 2341TIP3    H131218   6.001   3.459  15.176 -0.3243 -2.0669  1.0786
 2341TIP3    H231219   5.977   3.493  15.030 -1.5706  0.5414  1.8289
 2342TIP3   OH231220   2.199   7.286  15.292 -0.0142 -0.1529 -0.1519
 2342TIP3    H131221   2.173   7.260  15.380  1.8007 -0.5439  0.2929
 2342TIP3    H231222   2.217   7.204  15.247  0.0662  0.0899 -0.5712
 2343TIP3   OH231223   2.624   6.881  14.893  0.0055 -0.6909 -0.4231
 2343TIP3    H131224   2.701   6.937  14.883  0.5460 -1.5275 -1.0365
 2343TIP3    H231225   2.583   6.880  14.807 -0.6592 -0.3262 -0.1242
 2344TIP3   OH231226   7.657   3.795  13.274  0.1610  0.3150  0.2349
 2344TIP3    H131227   7.745   3.811  13.240 -0.2387  0.8508 -0.5788
 2344TIP3    H231228   7.606   3.767  13.198 -0.7995  1.7259  0.3147
 2345TIP3   OH231229   6.008   7.009  13.995 -0.1242  0.5124 -0.4755
 2345TIP3    H131230   5.978   7.100  13.998 -0.2565  0.5597 -2.2043
 2345TIP3    H231231   6.078   7.009  13.930 -0.2730 -0.6719 -0.6621
 2346TIP3   OH231232   4.332   5.878  14.604 -0.5733 -0.2874  0.1022
 2346TIP3    H131233   4.317   5.821  14.528 -1.0253 -1.3897  0.9885
 2346TIP3    H231234   4.366   5.819  14.671  0.2377  0.7534  0.6284
 2347TIP3   OH231235   7.757   1.260  15.043 -0.7748 -0.4601 -0.0019
 2347TIP3    H131236   7.799   1.244  14.958 -1.0477  0.5822 -0.3468
 2347TIP3    H231237   7.813   1.214  15.106  0.6901  0.5628 -0.4935
 2348TIP3   OH231238   1.146   2.528  14.268  0.4132 -0.3628  0.3750
 2348TIP3    H131239   1.102   2.495  14.347  1.6509  0.8050  1.6017
 2348TIP3    H231240   1.202   2.456  14.240 -1.6980 -1.6368 -0.8346
 2349TIP3   OH231241   7.838   1.693  13.465  0.5194  0.2471 -0.4098
 2349TIP3    H131242   7.884   1.622  13.420  1.4437  1.1064 -0.8624
 2349TIP3    H231243   7.907   1.745  13.504 -0.2265  0.1508  1.0861
 2350TIP3   OH231244   0.142   5.917  13.740 -0.0630 -0.3365 -0.1656
 2350TIP3    H131245   0.092   5.899  13.660  3.8417 -2.1319 -2.5043
 2350TIP3    H231246   0.212   5.977  13.711  0.9358 -0.2854  2.1489
 2351TIP3   OH231247   6.275   2.091  14.626 -0.0065  0.1262 -0.2537
 2351TIP3    H131248   6.248   2.134  14.708 -0.6924 -0.4484 -0.1659
 2351TIP3    H231249   6.367   2.068  14.640 -0.1008  0.0934  0.3279
 2352TIP3   OH231250   0.403   7.199  13.749  0.0152 -0.1358  0.3216
 2352TIP3    H131251   0.360   7.141  13.685 -0.1308 -0.0360  0.3288
 2352TIP3    H231252   0.473   7.241  13.699 -0.3280  0.2210  0.1237
 2353TIP3   OH231253   2.789   0.620  14.142 -0.1252  0.5684 -0.0206
 2353TIP3    H131254   2.740   0.572  14.076  0.9813 -3.1151  1.6063
 2353TIP3    H231255   2.733   0.618  14.220 -0.1302  2.2353  0.0642
 2354TIP3   OH231256   5.214   6.958  13.023 -0.6823 -0.5631 -0.4940
 2354TIP3    H131257   5.153   7.019  13.064  1.4114  0.1822  1.7519
 2354TIP3    H231258   5.301   6.996  13.040  0.5063 -2.4527 -2.0029
 2355TIP3   OH231259   6.914   2.181  13.941  0.3642 -0.0104 -0.1959
 2355TIP3    H131260   6.865   2.234  14.004  0.2365  0.3362 -0.5828
 2355TIP3    H231261   6.886   2.214  13.855 -0.1029 -1.0423 -0.4575
 2356TIP3   OH231262   7.994   0.881  13.635 -0.6393 -0.6048 -0.0574
 2356TIP3    H131263   8.011   0.915  13.548 -1.3914  1.3624  0.5185
 2356TIP3    H231264   8.075   0.897  13.683 -0.6904 -0.4343 -0.0277
 2357TIP3   OH231265   4.766   8.348  13.492 -0.1671 -0.7331  0.2762
 2357TIP3    H131266   4.712   8.424  13.472  0.3647 -0.7282 -1.2560
 2357TIP3    H231267   4.776   8.350  13.587 -3.2787 -1.0391  0.6953
 2358TIP3   OH231268   7.874   0.909  13.883  0.3457  0.0258  0.1774
 2358TIP3    H131269   7.915   0.888  13.799  0.2209  2.3359 -0.5414
 2358TIP3    H231270   7.889   1.003  13.894 -0.6326  0.0002  2.2053
 2359TIP3   OH231271   3.786   3.950  14.257  0.3953  0.1302 -0.3346
 2359TIP3    H131272   3.708   3.903  14.227 -0.3897  0.0860  1.6433
 2359TIP3    H231273   3.758   3.995  14.337  1.6269  2.4392 -1.0833
 2360TIP3   OH231274   6.198   7.169  14.250 -0.0750 -0.7126 -0.0243
 2360TIP3    H131275   6.173   7.186  14.341  0.7874 -1.2384  0.3255
 2360TIP3    H231276   6.186   7.253  14.205 -2.5213 -0.9324  0.0706
 2361TIP3   OH231277   4.849   5.266  14.178  0.1984 -0.0600 -0.0811
 2361TIP3    H131278   4.831   5.173  14.161  1.0932 -0.2917  0.1641
 2361TIP3    H231279   4.878   5.267  14.269 -0.4461  0.5615  0.1232
 2362TIP3   OH231280   5.188   2.080  13.002 -0.3443  0.0899  0.6917
 2362TIP3    H131281   5.133   2.087  12.924  0.9785  1.9437 -0.1526
 2362TIP3    H231282   5.132   2.108  13.074 -0.7536  1.1892 -0.0325
 2363TIP3   OH231283   7.269   2.387  13.519 -0.4032  0.1295 -0.0028
 2363TIP3    H131284   7.235   2.475  13.504  1.8120  1.3789  1.6622
 2363TIP3    H231285   7.344   2.380  13.459  0.8803  0.3355  1.5304
 2364TIP3   OH231286   2.824   4.335  14.077 -0.0287  0.1804  0.1282
 2364TIP3    H131287   2.770   4.284  14.018  2.9271  0.6300 -3.2821
 2364TIP3    H231288   2.871   4.271  14.130 -0.0585 -0.4268 -0.5759
 2365TIP3   OH231289   0.298   7.225  13.432 -0.3476  0.5987  0.4851
 2365TIP3    H131290   0.367   7.196  13.373 -1.6385 -0.1652 -0.7064
 2365TIP3    H231291   0.298   7.320  13.424  0.5250  0.6065  0.4694
 2366TIP3   OH231292   5.085   3.023  14.419 -0.0509  0.4761  0.7865
 2366TIP3    H131293   5.005   2.970  14.426 -0.2180  0.4764 -0.6830
 2366TIP3    H231294   5.054   3.108  14.389  0.3786  0.9052  1.5597
 2367TIP3   OH231295   7.916   4.253  14.211 -0.4223  0.0166 -0.0463
 2367TIP3    H131296   7.979   4.316  14.245  0.0458 -0.3429 -0.2397
 2367TIP3    H231297   7.927   4.176  14.266  0.6373 -0.7251 -1.2546
 2368TIP3   OH231298   0.790   1.151  14.170 -0.1228  0.0967  0.9490
 2368TIP3    H131299   0.727   1.223  14.165  1.3877  1.4189  0.0679
 2368TIP3    H231300   0.866   1.189  14.214  1.2256 -0.5130 -0.7202
 2369TIP3   OH231301   4.610   0.733  12.919  0.2936  0.4273  0.4288
 2369TIP3    H131302   4.572   0.647  12.935 -0.1646  0.6052  0.3265
 2369TIP3    H231303   4.695   0.715  12.879 -0.7160  0.0272 -1.6600
 2370TIP3   OH231304   3.404   7.014  13.461 -0.8622  0.1040  0.5258
 2370TIP3    H131305   3.386   7.108  13.459  1.0154  0.4811  0.3036
 2370TIP3    H231306   3.393   6.986  13.370  2.1346  0.8726 -0.1695
 2371TIP3   OH231307   6.784   5.682  13.247  0.0844  0.6452 -0.4226
 2371TIP3    H131308   6.851   5.614  13.255 -0.4467  0.1529 -0.0862
 2371TIP3    H231309   6.833   5.760  13.220  0.9566  0.5688  0.8167
 2372TIP3   OH231310   5.938   1.283  13.342 -0.0514 -0.2644 -0.4815
 2372TIP3    H131311   5.887   1.239  13.275  0.1896 -1.2026 -0.0653
 2372TIP3    H231312   5.990   1.213  13.383  0.3172  0.3980  0.2165
 2373TIP3   OH231313   1.079   5.016  15.039 -0.6408  0.4255 -0.0979
 2373TIP3    H131314   1.009   4.991  14.978 -1.8814 -1.3745  1.9132
 2373TIP3    H231315   1.131   4.936  15.049  0.6008  1.2063 -0.0869
 2374TIP3   OH231316   3.348   7.672  14.403 -0.2982  0.3295 -0.0202
 2374TIP3    H131317   3.418   7.710  14.455  1.4368 -1.5971 -0.8077
 2374TIP3    H231318   3.386   7.659  14.316 -1.4704 -1.1596 -0.3595
 2375TIP3   OH231319   5.991   5.647  14.433  0.2269  0.9270  0.2962
 2375TIP3    H131320   6.062   5.599  14.391 -0.5015 -0.5962  0.7316
 2375TIP3    H231321   5.915   5.590  14.424 -0.4638  1.5844  1.6474
 2376TIP3   OH231322   6.025   2.581  13.231  0.2982  0.3230  0.4169
 2376TIP3    H131323   6.054   2.669  13.207 -1.0562  0.9642  0.9755
 2376TIP3    H231324   5.972   2.552  13.157  0.1303  0.2986  0.5444
 2377TIP3   OH231325   7.867   7.693  14.470 -0.0016 -0.6230  0.1267
 2377TIP3    H131326   7.831   7.774  14.506 -0.2553 -0.2154 -1.0095
 2377TIP3    H231327   7.951   7.718  14.432 -0.1908 -0.8392 -0.4445
 2378TIP3   OH231328   0.235   6.897  14.410  0.2431  0.5315 -0.7525
 2378TIP3    H131329   0.280   6.978  14.384 -2.7690  2.2443 -1.0927
 2378TIP3    H231330   0.164   6.926  14.466 -0.3924 -2.0255 -0.0950
 2379TIP3   OH231331   1.251   2.544  14.717  0.1019  0.0406  0.5681
 2379TIP3    H131332   1.220   2.465  14.674 -1.6642  1.6038 -1.2534
 2379TIP3    H231333   1.271   2.604  14.645  2.3373  0.9572  1.8631
 2380TIP3   OH231334   0.232   4.320  14.046  0.1358 -0.7397  0.3830
 2380TIP3    H131335   0.255   4.250  13.984  0.2913 -0.4434  0.1037
 2380TIP3    H231336   0.157   4.285  14.094 -0.3536 -0.7422 -0.3685
 2381TIP3   OH231337   7.194   8.385  14.908  0.3999 -0.1494  0.0481
 2381TIP3    H131338   7.118   8.345  14.866  0.8840  0.5713 -1.5653
 2381TIP3    H231339   7.209   8.465  14.858  0.4267  1.2631  2.1901
 2382TIP3   OH231340   3.906   4.673  15.013 -0.1887  0.3037 -0.4542
 2382TIP3    H131341   3.869   4.590  14.984  0.6138 -0.3746  0.4346
 2382TIP3    H231342   3.952   4.653  15.094  0.2546  1.5616 -0.3647
 2383TIP3   OH231343   4.927   6.293  14.342  0.6445 -0.4615  0.1228
 2383TIP3    H131344   4.941   6.371  14.289  1.6976 -1.6348 -1.4434
 2383TIP3    H231345   4.964   6.222  14.289  0.4751 -1.9020  1.8485
 2384TIP3   OH231346   6.006   1.906  13.788 -0.3575 -0.1686 -0.2240
 2384TIP3    H131347   6.061   1.869  13.719 -0.8387 -1.9085  0.2700
 2384TIP3    H231348   5.966   1.830  13.830 -1.1777  0.9248  1.0602
 2385TIP3   OH231349   5.032   6.417  13.898 -0.1667 -0.0180  0.2521
 2385TIP3    H131350   5.010   6.502  13.936 -2.1777  0.3401 -1.5289
 2385TIP3    H231351   4.986   6.353  13.953  0.4378  0.0938  0.9147
 2386TIP3   OH231352   7.172   3.323  13.740 -0.0471  0.4799  0.0181
 2386TIP3    H131353   7.179   3.354  13.830  0.0369 -1.3356  0.6699
 2386TIP3    H231354   7.082   3.343  13.715 -0.2472  0.4750  0.7207
 2387TIP3   OH231355   4.337   0.769  14.486  0.5062 -0.1562  0.2877
 2387TIP3    H131356   4.409   0.798  14.541  2.6704 -4.2280 -0.0333
 2387TIP3    H231357   4.280   0.719  14.545  0.0067 -0.1792 -0.2027
 2388TIP3   OH231358   0.198   2.687  15.256  0.1241 -0.1464 -0.0888
 2388TIP3    H131359   0.117   2.736  15.240  0.5272  0.7368  0.4768
 2388TIP3    H231360   0.186   2.604  15.210 -0.6788  0.3865 -0.8714
 2389TIP3   OH231361   8.372   3.430  14.397 -0.5366  0.8266 -0.7146
 2389TIP3    H131362   8.381   3.518  14.360  0.3070  0.9761 -0.1772
 2389TIP3    H231363   8.446   3.422  14.457 -0.2062 -0.5064 -1.2596
 2390TIP3   OH231364   6.380   1.308  13.535  0.6463 -0.1867 -0.1742
 2390TIP3    H131365   6.348   1.232  13.583  0.1901  0.5847  0.7750
 2390TIP3    H231366   6.412   1.368  13.603  1.3545  0.3154 -0.9287
 2391TIP3   OH231367   2.736   5.427  13.834 -0.4146  0.3645 -0.3613
 2391TIP3    H131368   2.829   5.409  13.818 -0.4963  0.9548 -1.6979
 2391TIP3    H231369   2.698   5.434  13.746 -1.3345  2.0613  0.1139
 2392TIP3   OH231370   7.404   8.268  13.910 -0.2481 -0.3947 -0.3074
 2392TIP3    H131371   7.392   8.359  13.937 -2.4799 -0.9577  0.8624
 2392TIP3    H231372   7.423   8.272  13.816 -2.4625  1.2007 -0.7477
 2393TIP3   OH231373   4.646   0.060  14.164  0.7024  0.5640 -0.3053
 2393TIP3    H131374   4.636  -0.020  14.215  0.7254  0.4597 -0.4610
 2393TIP3    H231375   4.646   0.130  14.228  2.1744  0.3427 -0.0135
 2394TIP3   OH231376   7.309   6.477  14.022 -0.5847 -0.0525  0.5096
 2394TIP3    H131377   7.320   6.571  14.006 -1.4264 -0.1571 -0.7835
 2394TIP3    H231378   7.236   6.471  14.084 -0.2947  0.1486  0.8777
 2395TIP3   OH231379   1.447   3.952  13.136  0.2456 -0.2168 -0.4943
 2395TIP3    H131380   1.383   3.904  13.188  0.6214  0.9124  1.0661
 2395TIP3    H231381   1.408   3.956  13.048 -2.5018  1.5433  0.6668
 2396TIP3   OH231382   7.712   4.519  13.830 -0.3416 -0.4201 -0.1229
 2396TIP3    H131383   7.709   4.467  13.910 -2.6713  0.2792  0.3212
 2396TIP3    H231384   7.698   4.456  13.760 -1.1938 -0.6770  0.2643
 2397TIP3   OH231385   7.712   2.793  15.061 -0.1242  0.0404  0.5182
 2397TIP3    H131386   7.672   2.735  15.126 -0.1790 -0.8376 -0.2719
 2397TIP3    H231387   7.806   2.786  15.078  0.0622 -2.1257 -1.0014
 2398TIP3   OH231388   6.180   8.440  13.794 -0.1970  0.4987  0.5333
 2398TIP3    H131389   6.242   8.513  13.796  0.0177  0.3104  0.7933
 2398TIP3    H231390   6.161   8.422  13.886  1.1971 -0.9888  0.5961
 2399TIP3   OH231391   8.321   6.046  14.547 -0.0433 -0.3573  0.0873
 2399TIP3    H131392   8.230   6.072  14.530  0.4128  1.4750  0.2304
 2399TIP3    H231393   8.333   5.965  14.497 -1.1205  0.5185 -1.6961
 2400TIP3   OH231394   7.895   7.409  14.545 -0.2227  0.0235 -0.0268
 2400TIP3    H131395   7.867   7.380  14.632 -0.4731  1.4509  0.4018
 2400TIP3    H231396   7.872   7.502  14.542 -0.6236 -0.0935 -1.7993
 2401TIP3   OH231397   3.856   4.529  14.002 -0.0504 -0.2480  0.1218
 2401TIP3    H131398   3.826   4.606  14.051 -0.3577  0.1755 -0.7116
 2401TIP3    H231399   3.907   4.565  13.929 -0.9421 -0.7876 -0.7872
 2402TIP3   OH231400   7.247   1.977  14.627 -0.2935  0.1029 -0.2189
 2402TIP3    H131401   7.257   2.071  14.642  1.5000 -0.0822 -0.0818
 2402TIP3    H231402   7.154   1.960  14.642 -0.9247  2.0778 -1.5544
 2403TIP3   OH231403   6.048   1.064  13.502  0.0766  0.3704  0.4784
 2403TIP3    H131404   6.063   1.141  13.557 -2.0297  2.1630 -1.3007
 2403TIP3    H231405   6.108   1.075  13.428 -0.0116  0.1048  0.3654
 2404TIP3   OH231406   3.471   3.589  15.072  0.4508 -0.2615  0.1273
 2404TIP3    H131407   3.404   3.627  15.016 -1.7683 -2.1892  1.2827
 2404TIP3    H231408   3.493   3.505  15.031  0.4726 -0.6622  0.9269
 2405TIP3   OH231409   6.961   2.455  14.024  0.5624  0.3757  0.0218
 2405TIP3    H131410   7.004   2.417  13.947 -1.5435 -0.1717 -0.9486
 2405TIP3    H231411   6.914   2.531  13.991  1.3966  1.4704  1.2196
 2406TIP3   OH231412   7.775   4.959  13.828 -0.3007 -0.2063  0.0131
 2406TIP3    H131413   7.805   5.017  13.898  2.9970  0.8673 -2.0690
 2406TIP3    H231414   7.690   4.994  13.802  0.2503  1.8521  0.8202
 2407TIP3   OH231415   3.827   2.983  12.880 -0.4189  0.0494 -0.0701
 2407TIP3    H131416   3.900   2.931  12.913 -1.0572 -0.7152  0.1697
 2407TIP3    H231417   3.769   2.920  12.837 -0.8425  0.6699 -0.4398
 2408TIP3   OH231418   6.152   6.403  13.625  0.5880 -0.2939  0.0521
 2408TIP3    H131419   6.128   6.380  13.535 -1.2391  0.5718  0.2855
 2408TIP3    H231420   6.243   6.435  13.617  0.1910  0.5588 -1.6464
 2409TIP3   OH231421   6.712   1.620  12.629 -0.1722  0.0957 -0.1290
 2409TIP3    H131422   6.721   1.702  12.582  0.2914  1.0482  1.5285
 2409TIP3    H231423   6.619   1.615  12.652 -0.3081 -0.1449 -0.6950
 2410TIP3   OH231424   5.055   6.901  14.132  0.1540 -0.4640 -1.0487
 2410TIP3    H131425   5.006   6.982  14.141  0.3522 -0.4956  0.5213
 2410TIP3    H231426   5.028   6.847  14.207 -1.1940 -2.5408 -2.8893
 2411TIP3   OH231427   1.342   7.660  13.789 -0.1298  0.2399  0.0824
 2411TIP3    H131428   1.366   7.728  13.726 -0.2439  1.3452  1.2133
 2411TIP3    H231429   1.424   7.634  13.830  0.0745 -1.1162 -1.0983
 2412TIP3   OH231430   3.213   2.785  12.850  0.4788 -0.1358 -0.3512
 2412TIP3    H131431   3.177   2.699  12.870 -2.6306  1.1719  0.4642
 2412TIP3    H231432   3.169   2.811  12.769  2.3353  0.2146 -1.2945
 2413TIP3   OH231433   2.747   3.871  14.603  0.1626 -0.3122  0.0399
 2413TIP3    H131434   2.839   3.850  14.589  0.4439 -0.0627  1.3956
 2413TIP3    H231435   2.748   3.943  14.666 -0.8603  2.3139 -2.6806
 2414TIP3   OH231436   2.052   5.077  14.291  0.5554  0.3732  0.3491
 2414TIP3    H131437   2.047   4.994  14.339  0.3554 -0.3849 -0.9515
 2414TIP3    H231438   2.078   5.141  14.358 -4.0103  0.3127  2.6220
 2415TIP3   OH231439   0.172   2.265  14.703 -0.0750 -0.0328 -0.2872
 2415TIP3    H131440   0.141   2.350  14.673  1.4284  2.4691  4.2988
 2415TIP3    H231441   0.266   2.277  14.716  0.0793 -2.1694  1.1006
 2416TIP3   OH231442   8.139   2.910  13.145 -0.1440  0.4355  0.3782
 2416TIP3    H131443   8.221   2.897  13.193  0.3924 -1.7827 -1.0129
 2416TIP3    H231444   8.163   2.966  13.071 -0.1917  0.9044  0.7148
 2417TIP3   OH231445   7.749   0.081  13.007 -0.5789  0.0270  0.6190
 2417TIP3    H131446   7.757  -0.012  12.987  0.6404  0.1285  0.5359
 2417TIP3    H231447   7.655   0.099  13.003 -0.7154 -0.8728 -0.8362
 2418TIP3   OH231448   0.386   0.492  14.543  0.7069 -0.2785 -0.1776
 2418TIP3    H131449   0.377   0.573  14.594  0.5384 -0.9782  0.9309
 2418TIP3    H231450   0.387   0.521  14.451 -2.1153  0.7752  0.0308
 2419TIP3   OH231451   6.050   3.089  13.373 -0.1401  0.0521  0.1107
 2419TIP3    H131452   5.995   3.020  13.410 -0.3358  0.0666 -0.1535
 2419TIP3    H231453   6.138   3.052  13.372 -0.0008  0.3151  1.2902
 2420TIP3   OH231454   4.412   0.898  14.917 -0.4405  0.2880 -0.4707
 2420TIP3    H131455   4.337   0.954  14.899 -0.5391  0.1349 -0.5284
 2420TIP3    H231456   4.415   0.891  15.012 -2.5006 -2.4307 -0.5069
 2421TIP3   OH231457   3.935   3.631  14.789 -0.0647 -0.9056 -0.3504
 2421TIP3    H131458   3.909   3.541  14.811 -0.0323 -1.0980 -1.0665
 2421TIP3    H231459   3.900   3.645  14.701 -1.1873  0.2518  0.2583
 2422TIP3   OH231460   0.986   3.930  14.804 -0.8497  0.3526 -0.2516
 2422TIP3    H131461   1.029   3.875  14.739  1.1070  1.8799 -0.3231
 2422TIP3    H231462   0.895   3.900  14.803 -0.0934 -2.1922 -0.9522
 2423TIP3   OH231463   8.063   1.459  14.890  0.1732  0.0778  0.6219
 2423TIP3    H131464   8.142   1.406  14.901  0.6010  0.8816  1.7363
 2423TIP3    H231465   7.996   1.398  14.861  1.4089 -0.4667 -1.2703
 2424TIP3   OH231466   4.739   8.411  12.802 -0.0708 -0.1421  0.6735
 2424TIP3    H131467   4.680   8.338  12.782  1.2558 -0.8133 -1.0873
 2424TIP3    H231468   4.806   8.374  12.858  0.7282 -0.3802 -0.4028
 2425TIP3   OH231469   6.632   1.768  13.120  0.3929 -0.2309 -0.0257
 2425TIP3    H131470   6.692   1.769  13.045  1.3958  1.9999  0.7250
 2425TIP3    H231471   6.688   1.744  13.195 -0.6050 -2.4783  0.0869
 2426TIP3   OH231472   0.994   0.935  13.711 -0.4899  0.7127  0.3071
 2426TIP3    H131473   0.957   0.861  13.663 -0.9081  0.7533  0.5552
 2426TIP3    H231474   0.967   0.921  13.802  0.3851  0.5795  0.5518
 2427TIP3   OH231475   2.585   6.278  14.320  0.0525 -0.9598  0.6345
 2427TIP3    H131476   2.657   6.322  14.367  1.2828 -1.8126 -0.3685
 2427TIP3    H231477   2.509   6.290  14.377  0.1049  2.9963  0.1719
 2428TIP3   OH231478   0.727   4.252  14.378 -0.1036  0.4742  0.1872
 2428TIP3    H131479   0.810   4.298  14.366  0.0525 -0.2764 -2.1800
 2428TIP3    H231480   0.662   4.307  14.333 -0.3184 -0.4437 -0.6489
 2429TIP3   OH231481   1.563   6.543  15.050  0.3312  0.4185 -0.0211
 2429TIP3    H131482   1.650   6.505  15.037  0.8246  1.9590 -1.5249
 2429TIP3    H231483   1.509   6.468  15.078  1.5839 -1.0792 -1.3868
 2430TIP3   OH231484   7.522   3.967  13.670  0.4585 -1.0084  0.0708
 2430TIP3    H131485   7.578   3.961  13.747 -1.5796  1.5079  1.9219
 2430TIP3    H231486   7.439   3.928  13.698 -0.7380  1.1197 -0.2956
 2431TIP3   OH231487   6.130   2.190  13.620 -1.4294  0.1750  0.0808
 2431TIP3    H131488   6.065   2.188  13.690 -2.2235 -1.2836 -0.6514
 2431TIP3    H231489   6.165   2.101  13.618  1.2683  1.0962  1.0241
 2432TIP3   OH231490   3.476   1.045  13.280  0.2470  0.0627 -0.2296
 2432TIP3    H131491   3.448   1.113  13.218  0.5059  0.1015 -0.3068
 2432TIP3    H231492   3.397   1.023  13.328  0.1446  0.3764 -0.2474
 2433TIP3   OH231493   4.271   4.746  15.010  0.0544 -0.4009 -0.2510
 2433TIP3    H131494   4.233   4.711  14.929 -0.7477  1.0779 -0.5545
 2433TIP3    H231495   4.227   4.831  15.022 -0.5362 -0.9784  2.2271
 2434TIP3   OH231496   5.289   3.800  13.345  0.2278  0.1800  0.2173
 2434TIP3    H131497   5.324   3.888  13.330 -1.3192  0.6520 -0.9195
 2434TIP3    H231498   5.199   3.805  13.314  0.0691 -1.7781  0.2530
 2435TIP3   OH231499   5.818   2.341  12.876  0.0639 -0.3038 -0.2256
 2435TIP3    H131500   5.823   2.322  12.783 -1.8300  1.0026 -0.6599
 2435TIP3    H231501   5.759   2.274  12.911  0.4526 -0.5507 -0.0360
 2436TIP3   OH231502   4.236   4.563  13.430 -0.2228 -0.1920  0.2893
 2436TIP3    H131503   4.307   4.540  13.370  0.6687 -0.6380  1.4739
 2436TIP3    H231504   4.239   4.495  13.497 -2.3644 -0.7224 -0.1137
 2437TIP3   OH231505   4.684   2.690  13.501 -0.3221 -0.1115 -0.0926
 2437TIP3    H131506   4.680   2.733  13.416  0.1274  0.6947  0.2884
 2437TIP3    H231507   4.648   2.603  13.485 -1.8655  0.6097 -0.7333
 2438TIP3   OH231508   2.389   3.340  14.135  0.4180 -0.0538 -0.0231
 2438TIP3    H131509   2.301   3.358  14.167  1.0253 -1.7254  2.9767
 2438TIP3    H231510   2.426   3.426  14.117 -1.7746  0.6873 -1.3634
 2439TIP3   OH231511   2.192   4.713  13.875 -0.3265 -0.1689  0.3385
 2439TIP3    H131512   2.129   4.723  13.804  0.6717  0.5758 -0.4846
 2439TIP3    H231513   2.261   4.777  13.855 -0.8232  1.3064  2.8930
 2440TIP3   OH231514   6.508   4.367  13.905  0.5193  0.1830 -0.1796
 2440TIP3    H131515   6.516   4.304  13.833  0.4825  0.8819 -0.8043
 2440TIP3    H231516   6.594   4.365  13.949  1.9552  2.5197 -2.5808
 2441TIP3   OH231517   5.885   7.457  12.917  0.5054  0.0957 -0.5965
 2441TIP3    H131518   5.875   7.399  12.992 -0.4930 -1.3252 -1.7714
 2441TIP3    H231519   5.804   7.508  12.914  0.5155  0.1032 -0.7486
 2442TIP3   OH231520   5.448   7.251  14.911  0.3321 -0.0147 -0.0291
 2442TIP3    H131521   5.474   7.165  14.878 -0.6866 -0.0532 -0.7423
 2442TIP3    H231522   5.353   7.247  14.916  0.1944  1.4252 -1.0701
 2443TIP3   OH231523   4.314   0.188  14.715  0.1448  0.4205  0.5383
 2443TIP3    H131524   4.296   0.246  14.640  1.9853 -0.9369 -1.0438
 2443TIP3    H231525   4.392   0.225  14.756  0.4616 -0.1140  0.4183
 2444TIP3   OH231526   6.213   5.476  14.556 -0.6507 -0.7663  0.0380
 2444TIP3    H131527   6.284   5.474  14.620 -1.4428  1.5718  1.0870
 2444TIP3    H231528   6.137   5.506  14.606 -1.2575  1.3268 -1.9977
 2445TIP3   OH231529   7.957   2.317  14.018  0.3444  0.3483  0.1524
 2445TIP3    H131530   7.974   2.245  14.079  1.9621  0.8962  0.3761
 2445TIP3    H231531   7.905   2.379  14.069 -1.5087 -0.8272 -0.1882
 2446TIP3   OH231532   5.424   5.431  14.520 -0.0384  0.2887  0.4117
 2446TIP3    H131533   5.343   5.437  14.470  0.5856 -1.2612 -0.8485
 2446TIP3    H231534   5.420   5.346  14.563  0.2947  0.8115  1.5235
 2447TIP3   OH231535   4.055   5.652  14.508  0.2820 -0.1945 -0.4441
 2447TIP3    H131536   4.138   5.663  14.463  0.2091 -0.7829 -0.7247
 2447TIP3    H231537   4.032   5.560  14.496 -0.8306  0.1452 -1.1151
 2448TIP3   OH231538   0.858   1.212  13.730 -0.8340 -0.4768  0.3260
 2448TIP3    H131539   0.834   1.298  13.765 -2.6184 -0.2180 -1.3315
 2448TIP3    H231540   0.823   1.149  13.792 -3.5753 -0.0275 -0.6216
 2449TIP3   OH231541   1.611   4.450  15.304  0.6078  0.7787  0.3103
 2449TIP3    H131542   1.648   4.402  15.378  0.0449  0.2071  0.2277
 2449TIP3    H231543   1.684   4.502  15.270  0.8119  1.2661  1.4359
 2450TIP3   OH231544   7.179   6.967  14.220 -0.0994 -0.2820  0.0198
 2450TIP3    H131545   7.269   6.964  14.186  0.2982 -2.4818  1.1158
 2450TIP3    H231546   7.130   6.906  14.166 -0.0048 -1.9895  1.7561
 2451TIP3   OH231547   3.097   4.756  13.342  0.2709  0.0314 -0.0823
 2451TIP3    H131548   3.015   4.758  13.292  1.5085  1.1770 -2.1764
 2451TIP3    H231549   3.142   4.677  13.312 -0.0439 -0.6059  1.0789
 2452TIP3   OH231550   1.145   4.521  14.566  0.6240  0.0170 -0.3311
 2452TIP3    H131551   1.211   4.590  14.580  0.1551  0.7166 -1.3878
 2452TIP3    H231552   1.196   4.441  14.558  1.3405  0.4956 -0.7717
 2453TIP3   OH231553   2.032   8.126  13.583 -0.1336 -0.0155 -0.0085
 2453TIP3    H131554   2.095   8.138  13.512 -0.6501 -0.8608 -0.6412
 2453TIP3    H231555   1.954   8.090  13.539 -1.0432  0.9467  0.7497
 2454TIP3   OH231556   8.038   7.780  14.698 -0.2944  0.1197 -0.2303
 2454TIP3    H131557   7.942   7.776  14.702 -0.2980  0.7704  2.4883
 2454TIP3    H231558   8.057   7.869  14.669 -0.5886  0.8177  1.5850
 2455TIP3   OH231559   6.307   5.746  14.270  0.1641  0.1234 -0.0848
 2455TIP3    H131560   6.313   5.654  14.246  1.7241 -0.0380  0.8025
 2455TIP3    H231561   6.276   5.746  14.361 -0.5451  0.5129 -0.3160
 2456TIP3   OH231562   5.833   7.174  14.598  0.1300  0.2526  0.1763
 2456TIP3    H131563   5.820   7.145  14.508 -1.2316 -2.3809  1.1043
 2456TIP3    H231564   5.749   7.213  14.623  0.1465  0.0437  0.5756
 2457TIP3   OH231565   7.963   2.374  15.344  0.0199 -0.5680  0.1756
 2457TIP3    H131566   7.909   2.420  15.280  0.3302 -1.2373 -0.5829
 2457TIP3    H231567   7.964   2.432  15.420  0.1214  0.5197 -0.6292
 2458TIP3   OH231568   4.265   1.486  13.813  0.0219 -0.1971 -0.1450
 2458TIP3    H131569   4.197   1.457  13.874  0.1986  0.2075  0.2537
 2458TIP3    H231570   4.320   1.409  13.800 -0.7927 -0.6732 -0.8678
 2459TIP3   OH231571   5.627   1.286  14.196  0.1045  0.1986  0.1824
 2459TIP3    H131572   5.679   1.263  14.273  3.3526  0.3459 -1.7766
 2459TIP3    H231573   5.621   1.204  14.146  0.7583  0.7439 -0.8328
 2460TIP3   OH231574   1.986   2.034  12.959  0.7570 -0.0164  0.1061
 2460TIP3    H131575   1.958   2.097  13.026 -0.3647 -0.8242  0.4345
 2460TIP3    H231576   2.013   1.957  13.009 -2.3731 -1.5477 -0.3313
 2461TIP3   OH231577   4.431   1.280  13.721 -0.0292 -0.0376 -0.2021
 2461TIP3    H131578   4.434   1.211  13.655  0.2509  0.9480 -1.2566
 2461TIP3    H231579   4.495   1.345  13.691  2.6255 -1.0228  2.7650
 2462TIP3   OH231580   6.269   8.069  14.598  0.2159  0.3943 -0.3005
 2462TIP3    H131581   6.210   8.076  14.674  0.8185 -0.0248  0.2160
 2462TIP3    H231582   6.250   8.147  14.546 -1.9243 -0.4936 -0.9665
 2463TIP3   OH231583   4.430   0.819  13.790  0.0443  0.1804 -0.0277
 2463TIP3    H131584   4.463   0.909  13.796  1.8423 -0.4746  0.6616
 2463TIP3    H231585   4.509   0.765  13.786 -1.0013 -1.3612 -0.9181
 2464TIP3   OH231586   2.719   1.100  13.707  0.7498 -0.1289 -0.2010
 2464TIP3    H131587   2.770   1.150  13.771  0.2587  0.2053 -0.0724
 2464TIP3    H231588   2.733   1.146  13.624 -0.7933  1.0373  0.1578
 2465TIP3   OH231589   2.629   2.766  14.317  0.2072 -0.5599  0.1072
 2465TIP3    H131590   2.571   2.817  14.373 -1.0425 -2.1953  0.3677
 2465TIP3    H231591   2.671   2.703  14.375 -0.4497 -1.7058 -0.6259
 2466TIP3   OH231592   7.718   5.184  14.032 -0.1630 -0.0535 -0.5683
 2466TIP3    H131593   7.771   5.222  14.102 -0.7413  0.7727 -0.5636
 2466TIP3    H231594   7.648   5.248  14.017  0.6173  0.3742 -2.7250
 2467TIP3   OH231595   0.559   5.387  13.398 -0.1468  0.3856 -0.6766
 2467TIP3    H131596   0.557   5.445  13.322  0.0732  0.8400 -0.3409
 2467TIP3    H231597   0.620   5.429  13.459 -0.3334  0.0385 -0.2414
 2468TIP3   OH231598   8.323   7.199  13.587  0.4053 -0.0193  0.3754
 2468TIP3    H131599   8.238   7.235  13.561 -0.2914 -0.9415  1.2888
 2468TIP3    H231600   8.384   7.272  13.578 -0.0891  0.1672 -2.1346
 2469TIP3   OH231601   0.376   5.538  14.741  0.0365 -0.5878  0.1275
 2469TIP3    H131602   0.301   5.576  14.696 -0.8306  0.6305  2.4194
 2469TIP3    H231603   0.448   5.600  14.724 -0.4693  0.2574  0.9439
 2470TIP3   OH231604   2.961   6.760  14.797  0.1757  0.0617 -0.3125
 2470TIP3    H131605   3.029   6.694  14.781 -0.0009  0.0389 -0.9898
 2470TIP3    H231606   2.958   6.812  14.716 -0.9461 -0.2304 -0.4750
 2471TIP3   OH231607   0.369   7.046  12.896  0.2354 -0.5396 -1.2868
 2471TIP3    H131608   0.366   7.137  12.926 -0.5333 -0.5812 -1.1977
 2471TIP3    H231609   0.279   7.028  12.869  0.4904 -1.1299 -1.7496
 2472TIP3   OH231610   2.480   4.543  14.130  0.7096 -0.0046 -0.2670
 2472TIP3    H131611   2.546   4.573  14.193  0.0734  2.5055 -0.6649
 2472TIP3    H231612   2.513   4.573  14.045 -0.1410 -0.1860 -0.6759
 2473TIP3   OH231613   7.843   5.088  13.561 -0.2237 -0.4301 -0.6877
 2473TIP3    H131614   7.810   5.177  13.545  0.2427 -0.5287 -2.3336
 2473TIP3    H231615   7.786   5.054  13.630  2.7450  2.9070  3.9674
 2474TIP3   OH231616   5.724   2.003  12.905  0.2760  0.0863  0.1989
 2474TIP3    H131617   5.698   1.940  12.838 -0.0413  0.3734  0.0464
 2474TIP3    H231618   5.688   1.968  12.987  2.0948 -1.1513  0.5268
 2475TIP3   OH231619   4.936   4.193  13.410 -0.2407  0.6223 -1.1551
 2475TIP3    H131620   4.861   4.175  13.353 -0.3991  0.1989 -0.8197
 2475TIP3    H231621   4.967   4.107  13.438 -1.2316  0.8382  0.7806
 2476TIP3   OH231622   0.891   7.964  13.043  0.0055  0.2310  0.1628
 2476TIP3    H131623   0.848   7.943  12.960 -0.3289  1.4883 -0.0062
 2476TIP3    H231624   0.885   7.883  13.095  0.8408 -0.7971 -1.2760
 2477TIP3   OH231625   7.425   3.938  13.367 -0.6254 -0.0228 -0.3874
 2477TIP3    H131626   7.448   3.945  13.459 -0.2066 -1.1403 -0.3968
 2477TIP3    H231627   7.501   3.899  13.326 -0.8476  0.3732 -1.2022
 2478TIP3   OH231628   7.161   7.656  13.753 -0.1959  0.1167 -0.5970
 2478TIP3    H131629   7.068   7.678  13.757 -0.3942 -0.8587  0.9823
 2478TIP3    H231630   7.206   7.738  13.775 -0.7356  0.2938 -0.1254
 2479TIP3   OH231631   8.193   6.046  14.093 -0.0824 -0.1702  0.4253
 2479TIP3    H131632   8.278   6.039  14.051 -0.7631 -1.2622 -0.8433
 2479TIP3    H231633   8.181   5.963  14.139 -0.0147  0.4052  1.5160
 2480TIP3   OH231634   0.960   5.383  13.080  0.7461 -0.7282  0.0098
 2480TIP3    H131635   1.021   5.433  13.025 -0.5396  0.6602 -0.2194
 2480TIP3    H231636   0.987   5.292  13.067  0.5787 -0.4859 -2.9060
 2481TIP3   OH231637   3.258   1.991  13.987  0.6188  0.3333  0.3662
 2481TIP3    H131638   3.199   2.063  14.009  1.1179  0.6281  0.7681
 2481TIP3    H231639   3.339   2.035  13.961 -0.0009  0.0351 -2.3908
 2482TIP3   OH231640   6.503   5.152  14.598 -0.0464 -0.0374  0.3354
 2482TIP3    H131641   6.595   5.166  14.573 -0.0128  0.8964  0.9531
 2482TIP3    H231642   6.466   5.104  14.523  0.9252 -0.4009  0.0601
 2483TIP3   OH231643   2.998   5.191  14.921  0.5912 -0.1414 -0.1878
 2483TIP3    H131644   2.920   5.228  14.961  0.7759 -0.2647  0.3055
 2483TIP3    H231645   2.975   5.176  14.830  0.8864  2.2474 -0.7032
 2484TIP3   OH231646   1.568   7.230  13.170  0.1194 -0.0406  0.0003
 2484TIP3    H131647   1.555   7.325  13.172  3.3051  0.5884 -1.3589
 2484TIP3    H231648   1.515   7.200  13.096  0.0172  0.9186 -0.3346
 2485TIP3   OH231649   8.385   3.848  14.521 -0.1537 -0.0935 -0.7087
 2485TIP3    H131650   8.455   3.804  14.473 -0.2750 -0.1471 -0.8382
 2485TIP3    H231651   8.369   3.928  14.471  0.1595  0.1649 -0.3990
 2486TIP3   OH231652   0.825   7.113  14.794 -0.1480  0.1560 -0.3015
 2486TIP3    H131653   0.796   7.163  14.870 -0.7678 -0.2921 -0.2277
 2486TIP3    H231654   0.817   7.022  14.821 -0.5769 -0.0160 -0.9656
 2487TIP3   OH231655   1.833   6.117  13.274  0.3966 -0.1116  0.2522
 2487TIP3    H131656   1.926   6.139  13.283  1.1017 -1.5996 -2.2363
 2487TIP3    H231657   1.797   6.185  13.217  0.6942 -1.0286 -1.0785
 2488TIP3   OH231658   4.315   6.506  13.876  0.0459 -0.0000  0.0766
 2488TIP3    H131659   4.261   6.443  13.922 -0.1851  0.0754 -0.0918
 2488TIP3    H231660   4.286   6.501  13.785  2.6166 -2.4955 -0.7583
 2489TIP3   OH231661   1.822   2.065  13.464  0.3834 -0.3942 -0.0956
 2489TIP3    H131662   1.792   2.151  13.434  1.9363  0.7344  1.3420
 2489TIP3    H231663   1.775   2.051  13.546  0.1332 -0.9210 -0.3300
 2490TIP3   OH231664   5.190   5.079  13.692  0.0208 -0.2581  0.0439
 2490TIP3    H131665   5.241   5.004  13.662 -2.4172 -0.7412 -3.5391
 2490TIP3    H231666   5.101   5.044  13.703 -1.1778  2.0151 -1.7364
 2491TIP3   OH231667   4.679   4.163  13.214  0.3682  0.2899 -0.2755
 2491TIP3    H131668   4.607   4.188  13.272  0.8939  0.9636  0.1100
 2491TIP3    H231669   4.647   4.178  13.126 -0.0254  0.4069 -0.1109
 2492TIP3   OH231670   4.710   2.599  13.770 -0.0562 -0.2512 -0.3839
 2492TIP3    H131671   4.660   2.523  13.798 -2.1678  1.6630  1.5270
 2492TIP3    H231672   4.705   2.599  13.674 -0.2306 -2.3007 -0.4022
 2493TIP3   OH231673   6.354   7.250  12.944 -0.1368 -0.4018  0.1556
 2493TIP3    H131674   6.269   7.209  12.932 -0.1073 -0.3705 -0.1654
 2493TIP3    H231675   6.345   7.300  13.025 -0.4009 -0.4582  0.1623
 2494TIP3   OH231676   3.729   4.521  14.313  0.1771 -0.4887 -0.0562
 2494TIP3    H131677   3.742   4.588  14.380  0.3190 -0.3959 -0.1763
 2494TIP3    H231678   3.663   4.558  14.255  1.8269  0.5127 -1.3841
 2495TIP3   OH231679   5.880   7.827  13.399 -0.2420  0.1583 -0.0333
 2495TIP3    H131680   5.849   7.821  13.309 -1.0823  2.1125  0.0794
 2495TIP3    H231681   5.933   7.748  13.411 -0.9901 -0.6894 -1.8738
 2496TIP3   OH231682   4.808   4.105  15.030  0.1357 -0.0050  0.2437
 2496TIP3    H131683   4.870   4.058  14.976  0.3651 -0.1966  0.6673
 2496TIP3    H231684   4.786   4.044  15.100 -0.7737 -0.0561 -0.0729
 2497TIP3   OH231685   5.119   6.360  13.632  0.5972  1.1582  0.0105
 2497TIP3    H131686   5.100   6.353  13.725  0.0548  1.3144 -0.0866
 2497TIP3    H231687   5.045   6.409  13.596  0.0635 -0.1549 -0.7388
 2498TIP3   OH231688   6.192   2.487  13.735 -0.5414  0.5944 -0.2128
 2498TIP3    H131689   6.138   2.557  13.772 -0.0132  0.1670  1.4500
 2498TIP3    H231690   6.132   2.412  13.731 -0.2485  0.2765  1.0869
 2499TIP3   OH231691   3.491   5.485  14.964  0.9217  0.3850  0.1939
 2499TIP3    H131692   3.526   5.425  15.031  0.7534  0.5813  0.4593
 2499TIP3    H231693   3.401   5.454  14.950 -0.0933  2.1341  2.2371
 2500TIP3   OH231694   7.969   1.151  14.180  0.4064  0.2338 -0.3847
 2500TIP3    H131695   8.035   1.082  14.175 -1.0596 -1.2258 -0.4026
 2500TIP3    H231696   7.886   1.105  14.189 -0.5347  2.0349  0.8369
 2501TIP3   OH231697   6.555   0.941  14.545 -0.2488  0.7072 -0.0587
 2501TIP3    H131698   6.600   0.996  14.609  2.0231  0.4225 -1.3018
 2501TIP3    H231699   6.475   0.989  14.524 -2.6405 -0.4422  4.8871
 2502TIP3   OH231700   3.906   6.079  13.321  0.8180 -0.0235 -0.8736
 2502TIP3    H131701   3.898   6.019  13.395 -0.8397 -1.6639 -2.2673
 2502TIP3    H231702   4.000   6.091  13.309  1.1960 -2.1564 -0.3639
 2503TIP3   OH231703   6.194   7.072  13.581 -0.4965 -0.5521 -0.1670
 2503TIP3    H131704   6.245   7.098  13.504 -1.1521 -1.3235 -0.8856
 2503TIP3    H231705   6.141   7.149  13.601  3.0884  1.5434  2.5795
 2504TIP3   OH231706   4.859   0.216  12.843 -0.2456 -0.1620 -0.4799
 2504TIP3    H131707   4.952   0.196  12.828 -0.2650 -0.0906 -0.6999
 2504TIP3    H231708   4.815   0.132  12.837 -0.2603 -0.1274 -0.8868
 2505TIP3   OH231709   0.029   0.692  14.404 -0.1425 -0.1701 -0.1006
 2505TIP3    H131710   0.020   0.622  14.469  1.2186 -0.5457 -0.2786
 2505TIP3    H231711   0.106   0.666  14.352  1.3647  2.1705  0.7892
 2506TIP3   OH231712   1.474   8.304  14.604  1.1374 -0.4839  0.6059
 2506TIP3    H131713   1.541   8.240  14.630  1.1713 -0.4581  0.5814
 2506TIP3    H231714   1.453   8.351  14.684  0.7969 -0.8210  0.7149
 2507TIP3   OH231715   7.125   4.679  14.299 -0.5406  0.1869  0.1618
 2507TIP3    H131716   7.120   4.759  14.246 -0.1156  0.1333  0.0308
 2507TIP3    H231717   7.216   4.650  14.289 -0.5896 -0.0983  0.5246
 2508TIP3   OH231718   0.272   7.647  14.778  0.1135 -0.6252  0.4048
 2508TIP3    H131719   0.214   7.643  14.702 -0.1130 -1.0989  0.5974
 2508TIP3    H231720   0.213   7.652  14.853  0.3281  1.5526  0.4847
 2509TIP3   OH231721   0.606   2.139  13.641 -0.1251  0.5610  0.0698
 2509TIP3    H131722   0.520   2.098  13.653 -0.4182  1.1694  0.0941
 2509TIP3    H231723   0.588   2.218  13.590  0.2569  1.2974  1.0407
 2510TIP3   OH231724   3.552   0.707  13.858  0.0546 -0.2378  0.0101
 2510TIP3    H131725   3.487   0.678  13.922  0.1992  0.8247  0.6605
 2510TIP3    H231726   3.532   0.656  13.779 -0.0860 -1.6171  0.8984
 2511TIP3   OH231727   5.527   6.226  15.041 -0.0457 -0.2376  0.2811
 2511TIP3    H131728   5.440   6.211  15.003 -0.0736  0.7882 -0.0963
 2511TIP3    H231729   5.518   6.308  15.090  0.7998  0.0786 -0.0747
 2512TIP3   OH231730   2.848   2.764  13.626  0.2740  0.4572 -0.1512
 2512TIP3    H131731   2.892   2.845  13.601  0.2828  1.0876  1.7520
 2512TIP3    H231732   2.808   2.783  13.711 -0.5963 -1.2278 -0.1244
 2513TIP3   OH231733   0.921   2.595  14.681 -0.1296 -0.4130 -0.2109
 2513TIP3    H131734   0.876   2.623  14.760 -0.4757 -3.2173  0.6777
 2513TIP3    H231735   0.862   2.620  14.610 -0.3833  1.0234  0.4612
 2514TIP3   OH231736   5.900   2.233  14.258  0.4805  0.1746 -0.0435
 2514TIP3    H131737   5.983   2.225  14.305  0.0643  0.1978  0.6964
 2514TIP3    H231738   5.842   2.169  14.299 -0.5648  1.6950  0.9402
 2515TIP3   OH231739   5.393   8.298  14.288 -0.2545 -0.3472  0.2947
 2515TIP3    H131740   5.465   8.267  14.233 -0.7796 -1.5820  0.2741
 2515TIP3    H231741   5.434   8.317  14.372  0.8144  2.8117 -0.7853
 2516TIP3   OH231742   0.714   3.712  14.558  0.4642  0.1474  0.0176
 2516TIP3    H131743   0.792   3.744  14.513  0.4592  2.6371  1.5593
 2516TIP3    H231744   0.717   3.756  14.644 -0.6560 -2.6238  1.6126
 2517TIP3   OH231745   1.629   5.860  15.187  1.0311  0.1559 -0.0662
 2517TIP3    H131746   1.596   5.860  15.277  1.4977  0.6072  0.1049
 2517TIP3    H231747   1.636   5.952  15.164  1.1708  0.0444 -0.4772
 2518TIP3   OH231748   3.697   7.794  12.718 -0.0565  0.3264 -0.3228
 2518TIP3    H131749   3.714   7.812  12.626  2.9975  0.2173  0.1075
 2518TIP3    H231750   3.661   7.705  12.720  1.0605 -0.1671 -1.3417
 2519TIP3   OH231751   4.618   3.564  13.259  0.0783  0.3240  0.4624
 2519TIP3    H131752   4.644   3.649  13.225  0.2694 -0.4497 -1.4626
 2519TIP3    H231753   4.551   3.533  13.198  0.2480 -1.0385  0.9266
 2520TIP3   OH231754   5.953   3.894  13.646 -0.5330  0.0692  0.6302
 2520TIP3    H131755   6.022   3.880  13.581 -0.5485 -0.6612  0.7637
 2520TIP3    H231756   5.967   3.825  13.711 -1.4533 -0.1575  0.6024
 2521TIP3   OH231757   2.289   4.225  12.252 -0.0083 -0.0031  0.0631
 2521TIP3    H131758   2.274   4.313  12.218  1.1916  0.1507 -0.1108
 2521TIP3    H231759   2.319   4.239  12.342 -2.5768 -0.3792  1.0680
 2522TIP3   OH231760   5.920   2.931  12.674 -0.5138 -0.1603 -0.0249
 2522TIP3    H131761   5.976   2.873  12.622 -0.3883  0.7176 -0.9041
 2522TIP3    H231762   5.982   2.990  12.718 -0.7113  0.4156 -0.5108
 2523TIP3   OH231763   6.537   0.176  12.592  0.1840 -0.5985 -0.0086
 2523TIP3    H131764   6.499   0.096  12.555 -3.4507  1.1223 -0.4465
 2523TIP3    H231765   6.482   0.247  12.558  2.5373  2.0385  1.2427
 2524TIP3   OH231766   7.905   0.333  15.051 -0.7765  0.3439  0.4093
 2524TIP3    H131767   7.873   0.415  15.014  0.4680  0.1209 -1.2759
 2524TIP3    H231768   7.826   0.285  15.077 -1.5373  1.9045  1.1006
 2525TIP3   OH231769   2.424   8.369  12.922 -0.0844 -0.1566 -0.5275
 2525TIP3    H131770   2.508   8.331  12.895 -1.1085 -1.1641 -2.4969
 2525TIP3    H231771   2.448   8.437  12.985  2.1501 -0.8761 -0.5129
 2526TIP3   OH231772   6.555   0.928  15.402  0.4909 -0.0494  0.0148
 2526TIP3    H131773   6.533   0.996  15.466  0.2802  0.1138 -0.2273
 2526TIP3    H231774   6.634   0.960  15.359  0.9331 -0.4046  0.5481
 2527TIP3   OH231775   5.999   1.122  12.751 -0.2377 -0.2123 -0.2834
 2527TIP3    H131776   6.055   1.199  12.735  0.9990 -1.0960 -0.4146
 2527TIP3    H231777   6.011   1.103  12.844  0.5112 -1.0070 -0.5286
 2528TIP3   OH231778   1.902   6.902  13.963  0.1432 -0.1205  0.1537
 2528TIP3    H131779   1.986   6.873  14.000  0.8433  2.2380  0.5643
 2528TIP3    H231780   1.914   6.995  13.947 -2.1359  0.0943 -0.6158
 2529TIP3   OH231781   7.687   2.045  12.995 -0.0525 -0.6715 -0.4631
 2529TIP3    H131782   7.679   1.954  12.968  1.3569 -0.5890 -1.3130
 2529TIP3    H231783   7.772   2.050  13.038  0.2230  0.3692 -1.0740
 2530TIP3   OH231784   4.493   7.536  13.787  0.5187  0.0908 -0.1688
 2530TIP3    H131785   4.554   7.606  13.809  0.3157  0.2546 -0.1299
 2530TIP3    H231786   4.492   7.480  13.865 -0.3660  0.7887  0.3327
 2531TIP3   OH231787   2.907   1.731  13.462 -0.5664  0.2480  0.0224
 2531TIP3    H131788   2.912   1.640  13.433 -2.9725 -0.5977  1.9094
 2531TIP3    H231789   2.848   1.773  13.400 -0.5290  0.1687 -0.0678
 2532TIP3   OH231790   8.003   6.954  14.331 -0.0671  0.2977  0.2002
 2532TIP3    H131791   7.922   6.906  14.347 -0.0780  0.7745  1.7377
 2532TIP3    H231792   7.990   6.996  14.246  0.0486 -2.5565 -1.3582
 2533TIP3   OH231793   8.338   6.515  13.155 -0.0776 -0.1696  0.5591
 2533TIP3    H131794   8.381   6.442  13.111 -1.3170 -0.2242 -0.6262
 2533TIP3    H231795   8.262   6.535  13.101 -0.5238  1.1256  1.5894
 2534TIP3   OH231796   7.199   6.530  13.194 -0.0007 -0.3244 -0.1807
 2534TIP3    H131797   7.275   6.520  13.136 -0.7788 -0.1076 -1.2670
 2534TIP3    H231798   7.160   6.614  13.169 -1.9713 -1.5067 -1.3467
 2535TIP3   OH231799   0.049   6.220  14.002 -0.3389 -0.6118  0.2649
 2535TIP3    H131800  -0.017   6.282  13.975  0.4552 -0.3146 -1.0997
 2535TIP3    H231801   0.037   6.144  13.944  0.7870 -0.3564 -0.3473
 2536TIP3   OH231802   1.234   6.472  14.695 -0.4339  0.6607  0.4732
 2536TIP3    H131803   1.267   6.508  14.613  0.7110  0.3630  0.7879
 2536TIP3    H231804   1.312   6.450  14.745 -1.1160  0.1461  1.3446
 2537TIP3   OH231805   1.510   3.347  14.427 -0.1925 -0.6213 -0.1609
 2537TIP3    H131806   1.587   3.324  14.479  0.1986 -0.0034 -0.4557
 2537TIP3    H231807   1.456   3.267  14.427  0.6972 -1.2377 -0.4060
 2538TIP3   OH231808   1.629   5.526  12.885 -0.7572  0.4250 -0.1897
 2538TIP3    H131809   1.679   5.463  12.936 -1.2306  0.9193  0.9165
 2538TIP3    H231810   1.695   5.587  12.852 -0.4289  0.0087 -0.3111
 2539TIP3   OH231811   4.762   1.983  14.889 -0.2514  0.1636  0.4464
 2539TIP3    H131812   4.698   1.921  14.854 -1.4063 -0.7252  3.7726
 2539TIP3    H231813   4.808   1.934  14.957  0.2347  2.3565  1.7921
 2540TIP3   OH231814   4.639   4.387  13.809  0.3958  0.3379  0.1433
 2540TIP3    H131815   4.709   4.363  13.749  0.8274  0.3996  0.6101
 2540TIP3    H231816   4.684   4.400  13.893 -0.2746 -0.2627  0.5944
 2541TIP3   OH231817   5.250   3.752  13.883 -0.2342  0.3556  0.3471
 2541TIP3    H131818   5.266   3.756  13.789  0.1577 -1.8447  0.2672
 2541TIP3    H231819   5.224   3.840  13.907 -0.9876  0.8062 -1.9403
 2542TIP3   OH231820   0.952   4.452  13.737 -0.0163  0.6852  0.0577
 2542TIP3    H131821   0.927   4.363  13.714 -0.1640  0.3812  1.3475
 2542TIP3    H231822   0.869   4.500  13.741  0.1017  1.0166 -1.1219
 2543TIP3   OH231823   1.201   5.883  14.458 -0.1689 -0.0131 -0.1661
 2543TIP3    H131824   1.200   5.978  14.467  0.9245  0.0071 -0.1638
 2543TIP3    H231825   1.292   5.862  14.436 -0.3738 -1.0702 -0.0365
 2544TIP3   OH231826   5.170   2.728  15.212  0.4888  0.6545  0.7368
 2544TIP3    H131827   5.168   2.633  15.225 -0.3847  0.5609  0.0507
 2544TIP3    H231828   5.079   2.755  15.222  0.8371  1.5300  1.6319
 2545TIP3   OH231829   5.963   5.462  15.049  0.3150  0.5481  0.5069
 2545TIP3    H131830   5.874   5.476  15.015 -0.0794 -1.0270  0.7916
 2545TIP3    H231831   5.996   5.388  14.999  0.6490 -0.2281  1.8303
 2546TIP3   OH231832   5.098   1.025  14.378  0.8382 -0.2067  0.3675
 2546TIP3    H131833   5.088   1.094  14.443  0.0727  1.4835 -1.4541
 2546TIP3    H231834   5.009   1.009  14.346  1.0837 -1.6417  0.3388
 2547TIP3   OH231835   8.313   7.458  14.349 -0.2657  0.0613  0.1839
 2547TIP3    H131836   8.351   7.376  14.316  0.7983  0.2092  0.9910
 2547TIP3    H231837   8.249   7.430  14.415  0.1633 -0.1168  0.5248
 2548TIP3   OH231838   6.269   4.597  13.837  0.0235 -0.1770 -0.1721
 2548TIP3    H131839   6.309   4.651  13.906  2.5693 -0.9520 -0.9073
 2548TIP3    H231840   6.254   4.513  13.878  0.9878 -0.4559 -0.3513
 2549TIP3   OH231841   5.592   2.968  14.131 -0.0418 -0.0377 -0.0059
 2549TIP3    H131842   5.616   3.043  14.185  1.2625  0.6668 -1.4556
 2549TIP3    H231843   5.628   2.892  14.177 -0.6405  0.3123  1.0526
 2550TIP3   OH231844   4.847   6.244  14.012 -0.2077  0.4030 -0.5559
 2550TIP3    H131845   4.810   6.163  13.976 -2.5591  0.3099  1.7337
 2550TIP3    H231846   4.774   6.285  14.058  1.1202  3.5059 -0.9994
 2551TIP3   OH231847   2.182   7.622  14.056  0.4016 -0.0786  0.2162
 2551TIP3    H131848   2.167   7.710  14.090  2.0124  0.2814  0.0580
 2551TIP3    H231849   2.251   7.585  14.111  1.9955 -0.0381 -1.6486
 2552TIP3   OH231850   6.002   1.920  14.273 -0.0429  0.2836  0.0272
 2552TIP3    H131851   6.055   1.947  14.349  0.7658  1.7891 -0.9994
 2552TIP3    H231852   6.037   1.973  14.200 -1.7463 -0.0506 -1.0900
 2553TIP3   OH231853   3.933   5.614  13.005  0.3154 -0.2289 -0.2173
 2553TIP3    H131854   3.866   5.546  13.010  0.4174 -0.2525  1.2537
 2553TIP3    H231855   3.922   5.665  13.085  1.8183 -0.0180 -0.1111
 2554TIP3   OH231856   1.509   1.799  13.508  0.1465  0.0667 -0.7862
 2554TIP3    H131857   1.508   1.711  13.545 -0.4369 -0.1704 -1.3492
 2554TIP3    H231858   1.561   1.791  13.428 -1.1518 -0.1152 -1.6406
 2555TIP3   OH231859   1.806   4.491  15.113 -0.1454  0.1697 -0.1623
 2555TIP3    H131860   1.855   4.559  15.068 -0.0080 -0.0513 -0.3512
 2555TIP3    H231861   1.732   4.472  15.055  0.4069 -0.5994 -0.6371
 2556TIP3   OH231862   2.865   1.571  15.003  0.3652  0.0342 -0.6214
 2556TIP3    H131863   2.884   1.477  15.008 -1.4766 -0.3956 -0.9273
 2556TIP3    H231864   2.919   1.610  15.072  0.1869 -1.4279  0.4014
 2557TIP3   OH231865   5.917   2.242  14.731  0.2183  0.9287  0.0256
 2557TIP3    H131866   5.917   2.151  14.761 -1.2122  0.4499 -1.3033
 2557TIP3    H231867   6.008   2.270  14.740  0.5127 -0.3353  1.3128
 2558TIP3   OH231868   6.445   1.459  13.333 -0.0199  0.2337  0.0147
 2558TIP3    H131869   6.527   1.431  13.292  0.3528 -0.5869  1.2600
 2558TIP3    H231870   6.436   1.402  13.409 -1.4332  0.7427  0.2496
 2559TIP3   OH231871   8.108   5.331  13.765 -0.3472 -0.8979  0.3693
 2559TIP3    H131872   8.067   5.254  13.804 -1.3612 -1.2082 -1.1997
 2559TIP3    H231873   8.090   5.402  13.826 -0.2506 -1.7140  1.3605
 2560TIP3   OH231874   2.598   1.720  13.632  0.5589  0.1852 -0.0220
 2560TIP3    H131875   2.593   1.752  13.542 -0.8334 -1.6757 -0.6754
 2560TIP3    H231876   2.686   1.742  13.661  0.4948  2.2775 -1.2525
 2561TIP3   OH231877   4.948   5.251  13.196 -0.5108 -0.3628  0.2877
 2561TIP3    H131878   4.971   5.342  13.216  0.7571 -0.3970 -0.8680
 2561TIP3    H231879   4.870   5.257  13.140 -0.5655 -0.0088  0.4016
 2562TIP3   OH231880   2.840   5.105  13.662 -0.7171  0.4959  0.4680
 2562TIP3    H131881   2.831   5.071  13.751 -0.5883  2.8064  1.4081
 2562TIP3    H231882   2.934   5.116  13.650 -0.7771  0.8127  0.2894
 2563TIP3   OH231883   0.977   2.321  14.981 -0.1715 -0.3325 -0.1237
 2563TIP3    H131884   0.942   2.233  14.965  0.3388 -0.4180 -0.8049
 2563TIP3    H231885   0.917   2.380  14.936 -0.2633 -0.3656 -0.0444
 2564TIP3   OH231886   3.841   1.622  14.845 -0.5212 -0.0659 -0.5768
 2564TIP3    H131887   3.926   1.660  14.823 -0.5887 -0.0356 -0.7940
 2564TIP3    H231888   3.788   1.697  14.872  0.0520 -0.2997  1.3265
 2565TIP3   OH231889   1.854   2.902  13.740  0.1984  0.0361  0.1199
 2565TIP3    H131890   1.905   2.978  13.711 -0.3530  0.1695 -0.5358
 2565TIP3    H231891   1.875   2.833  13.677 -1.0641  0.3483 -0.6768
 2566TIP3   OH231892   1.262   1.491  15.135 -0.1120  0.1423 -0.5949
 2566TIP3    H131893   1.220   1.405  15.137 -0.2240  0.2057  0.2443
 2566TIP3    H231894   1.356   1.473  15.141 -0.1500  0.0882 -0.1624
 2567TIP3   OH231895   6.591   4.619  13.757  0.3416 -0.0433  0.3142
 2567TIP3    H131896   6.549   4.605  13.842  0.2091 -0.4765  0.1831
 2567TIP3    H231897   6.529   4.581  13.694 -0.1256  1.3324 -0.0864
 2568TIP3   OH231898   4.933   0.877  12.032  0.0809  0.4458  0.9265
 2568TIP3    H131899   4.924   0.879  11.937  1.5239 -1.6162  0.6777
 2568TIP3    H231900   4.902   0.963  12.061 -0.8524  0.9387 -1.3380
 2569TIP3   OH231901   0.006   6.962  15.147 -0.2448 -0.3461 -0.1333
 2569TIP3    H131902  -0.083   6.929  15.137  0.3044 -1.6087 -1.2431
 2569TIP3    H231903   0.003   7.051  15.113 -1.5382  0.4523  1.8985
 2570TIP3   OH231904   5.785   5.763  13.568 -0.4808  0.7028  0.6560
 2570TIP3    H131905   5.812   5.704  13.498 -2.0318  0.5762  0.1229
 2570TIP3    H231906   5.821   5.724  13.648 -1.2651 -0.8582  0.2917
 2571TIP3   OH231907   5.433   4.533  14.095 -0.5547 -0.3252 -0.1902
 2571TIP3    H131908   5.526   4.550  14.111 -0.6363  2.8001 -2.0458
 2571TIP3    H231909   5.387   4.594  14.153 -1.5275 -1.8579  0.7318
 2572TIP3   OH231910   6.360   0.304  13.149 -0.2705  0.1754 -0.3488
 2572TIP3    H131911   6.438   0.252  13.167 -1.4334 -0.9918  1.8169
 2572TIP3    H231912   6.351   0.360  13.226 -2.9008 -1.5436  0.7347
 2573TIP3   OH231913   7.325   7.194  14.042 -0.1289 -0.5679 -0.1781
 2573TIP3    H131914   7.401   7.253  14.042  1.1223 -2.1151  0.3322
 2573TIP3    H231915   7.362   7.108  14.023 -1.7354 -1.4121  0.3729
 2574TIP3   OH231916   4.442   8.067  12.978  0.0184  0.2736 -0.0192
 2574TIP3    H131917   4.366   8.073  13.035 -0.0567  3.3634 -0.2751
 2574TIP3    H231918   4.517   8.083  13.035  0.5752 -2.8195  0.2447
 2575TIP3   OH231919   3.253   7.684  13.514 -0.8264 -0.4056 -0.0958
 2575TIP3    H131920   3.243   7.598  13.473  0.9390 -1.2525  1.1095
 2575TIP3    H231921   3.267   7.744  13.440 -0.9097 -1.3388 -0.8953
 2576TIP3   OH231922   7.185   2.141  13.445  0.3824  0.1354 -0.0019
 2576TIP3    H131923   7.215   2.129  13.355 -0.7410 -0.2788 -0.3314
 2576TIP3    H231924   7.207   2.232  13.466 -2.7507  1.5102 -2.0391
 2577TIP3   OH231925   2.500   5.817  14.912  0.0261  0.2342  0.8593
 2577TIP3    H131926   2.431   5.841  14.849 -0.8382  0.3993  1.8346
 2577TIP3    H231927   2.481   5.726  14.935  1.3745 -0.3939 -0.3960
 2578TIP3   OH231928   5.008   0.323  14.732 -0.6949  0.3775 -0.3349
 2578TIP3    H131929   5.048   0.409  14.742  1.5136 -0.2251 -2.9012
 2578TIP3    H231930   5.073   0.262  14.766 -2.3995 -0.3784  1.8350
 2579TIP3   OH231931   0.431   4.256  14.746 -0.0917 -0.0197 -0.0652
 2579TIP3    H131932   0.343   4.226  14.725 -0.3463  0.1285  0.7735
 2579TIP3    H231933   0.453   4.317  14.675 -1.1806  0.9596  0.4194
 2580TIP3   OH231934   0.151   3.237  13.809 -0.3933 -0.6677  0.3698
 2580TIP3    H131935   0.239   3.272  13.795 -0.3417 -1.2450 -0.8682
 2580TIP3    H231936   0.164   3.142  13.809 -0.9804 -0.7456  0.4437
 2581TIP3   OH231937   3.027   7.176  14.695 -0.2235  0.2323  0.2946
 2581TIP3    H131938   3.082   7.202  14.768  2.1275 -1.0996 -0.9019
 2581TIP3    H231939   3.030   7.250  14.634 -0.1619  0.3473  0.4386
 2582TIP3   OH231940   4.060   1.794  13.501 -0.3039 -0.0727 -0.0494
 2582TIP3    H131941   4.104   1.719  13.539 -0.7718 -0.3430 -0.0323
 2582TIP3    H231942   3.972   1.762  13.480  0.2750 -0.2747 -2.4412
 2583TIP3   OH231943   5.787   5.247  14.568 -0.2193 -0.1260  0.8581
 2583TIP3    H131944   5.696   5.222  14.551  0.6996 -2.3716 -1.2420
 2583TIP3    H231945   5.808   5.309  14.498  0.0587 -0.0631  0.9955
 2584TIP3   OH231946   5.067   7.706  14.206  0.1519 -0.2148 -0.0771
 2584TIP3    H131947   5.067   7.643  14.278  4.4817  1.0564  1.3483
 2584TIP3    H231948   5.049   7.790  14.248  1.4501  0.3641 -0.6212
 2585TIP3   OH231949   6.228   3.414  14.170  0.8377  0.6503 -0.0414
 2585TIP3    H131950   6.202   3.352  14.102 -0.6327  0.7827  0.3485
 2585TIP3    H231951   6.157   3.410  14.234  0.7019  2.6969  0.0137
 2586TIP3   OH231952   4.040   6.204  15.135  0.4352 -0.1673  0.7204
 2586TIP3    H131953   4.101   6.141  15.096  0.8978  1.0532 -0.6357
 2586TIP3    H231954   3.967   6.151  15.164  0.9080 -1.3753 -0.1712
 2587TIP3   OH231955   1.350   1.826  13.749 -0.4490 -0.6072 -0.3126
 2587TIP3    H131956   1.404   1.812  13.671  0.5700  0.3547  0.1894
 2587TIP3    H231957   1.300   1.745  13.758  1.2047 -1.7086 -0.5768
 2588TIP3   OH231958   6.781   2.698  14.306  0.1345 -0.2897 -0.2743
 2588TIP3    H131959   6.845   2.763  14.276 -0.8347  1.9774  2.1726
 2588TIP3    H231960   6.748   2.733  14.389 -1.9401 -2.9686  0.1743
 2589TIP3   OH231961   6.339   0.321  12.399 -0.2031 -0.0281 -0.0221
 2589TIP3    H131962   6.324   0.399  12.345  1.0250  0.5151  0.3855
 2589TIP3    H231963   6.255   0.274  12.397 -1.0362  1.3984 -0.1171
 2590TIP3   OH231964   6.586   5.828  14.898  0.2391 -0.3017 -0.6934
 2590TIP3    H131965   6.576   5.742  14.938  2.0835 -0.6635 -0.9050
 2590TIP3    H231966   6.594   5.889  14.972  0.3607 -0.5076 -0.5373
 2591TIP3   OH231967   1.857   2.213  13.116 -0.9375  0.0721 -0.5177
 2591TIP3    H131968   1.856   2.225  13.211 -0.7110  2.7783 -0.7573
 2591TIP3    H231969   1.788   2.271  13.084 -0.1350  0.2316 -2.0700
 2592TIP3   OH231970   3.741   4.057  13.528  0.4350  0.0084 -0.1267
 2592TIP3    H131971   3.663   4.098  13.565 -0.2670 -0.7074 -0.7723
 2592TIP3    H231972   3.814   4.098  13.574 -0.2426  1.6970 -0.4782
 2593TIP3   OH231973   6.124   5.580  13.778 -0.7552 -0.0492  0.5168
 2593TIP3    H131974   6.154   5.581  13.687 -1.5033  1.7071  0.2564
 2593TIP3    H231975   6.029   5.584  13.772 -0.8278 -0.2607  1.3779
 2594TIP3   OH231976   4.584   1.803  14.742 -0.0455  0.0102 -0.3489
 2594TIP3    H131977   4.679   1.805  14.730 -0.0206  0.0994 -0.1392
 2594TIP3    H231978   4.563   1.710  14.752  0.1999  0.0933  1.0296
 2595TIP3   OH231979   5.530   5.702  13.282  0.5809 -0.4164 -0.0091
 2595TIP3    H131980   5.479   5.622  13.264  0.0637  0.2472 -1.7390
 2595TIP3    H231981   5.518   5.717  13.375 -0.8467 -1.3559  0.0017
 2596TIP3   OH231982   6.214   4.570  15.322  0.2227 -0.1646  0.0909
 2596TIP3    H131983   6.229   4.664  15.335  0.1703 -0.3338  1.4339
 2596TIP3    H231984   6.145   4.566  15.255  0.6967  0.7303 -0.4749
 2597TIP3   OH231985   0.840   0.766  14.294 -0.4401 -0.5725  0.1785
 2597TIP3    H131986   0.915   0.822  14.273 -0.5791 -0.4252  0.0718
 2597TIP3    H231987   0.819   0.722  14.212 -1.5843  0.7217 -0.2650
 2598TIP3   OH231988   1.668   3.709  14.517 -0.5049  0.0786  0.9451
 2598TIP3    H131989   1.648   3.714  14.423 -0.9110  0.7091  1.0605
 2598TIP3    H231990   1.752   3.663  14.520 -1.6777 -2.2352  0.4301
 2599TIP3   OH231991   3.139   5.915  13.348 -0.2004 -0.1541 -0.1923
 2599TIP3    H131992   3.098   5.964  13.276 -1.1917 -1.7323 -0.7495
 2599TIP3    H231993   3.143   5.825  13.316  1.7298 -0.4578  0.7384
 2600TIP3   OH231994   1.711   1.560  14.245 -0.1270  0.3538 -0.1231
 2600TIP3    H131995   1.725   1.515  14.329  1.0945  2.3586  0.8124
 2600TIP3    H231996   1.799   1.574  14.211 -0.5537  0.8968 -1.0254
 2601TIP3   OH231997   5.234   2.169  14.642  0.3631  0.5292 -0.1474
 2601TIP3    H131998   5.251   2.186  14.550  1.0588 -0.2098 -0.1761
 2601TIP3    H231999   5.144   2.196  14.656 -0.3595 -1.0207 -1.4901
 2602TIP3   OH232000   4.590   0.998  12.994 -0.6119  0.0440  0.0887
 2602TIP3    H132001   4.604   1.040  12.910  0.3029  0.8326  0.6071
 2602TIP3    H232002   4.594   0.904  12.976 -1.1787  0.1918 -0.8478
 2603TIP3   OH232003   6.040   0.200  13.414  0.5125  0.4614  0.3402
 2603TIP3    H132004   6.124   0.219  13.456  0.0338  0.2127  1.4335
 2603TIP3    H232005   6.008   0.286  13.385  1.0778  0.5701  0.0152
 2604TIP3   OH232006   0.684   3.629  13.340  0.4370  0.0830  0.7786
 2604TIP3    H132007   0.742   3.706  13.339  0.3317  0.1695  1.1517
 2604TIP3    H232008   0.610   3.656  13.394 -0.3961  0.2859 -0.4194
 2605TIP3   OH232009   2.909   1.595  14.169 -0.7517  0.5279 -0.0849
 2605TIP3    H132010   2.861   1.673  14.142 -2.7181 -0.3158  0.7991
 2605TIP3    H232011   2.859   1.522  14.133 -0.8868 -0.4277  1.9040
 2606TIP3   OH232012   6.875   6.950  14.778 -0.0997 -0.2779  0.4793
 2606TIP3    H132013   6.801   6.976  14.723  1.3051  0.8897 -0.9641
 2606TIP3    H232014   6.844   6.963  14.868 -0.5766  3.7562 -0.0785
 2607TIP3   OH232015   3.962   6.424  13.656  0.2971 -0.4287  0.0401
 2607TIP3    H132016   3.942   6.361  13.724  0.9525 -0.6075  0.0762
 2607TIP3    H232017   3.911   6.396  13.580  0.1604 -0.6777  0.2251
 2608TIP3   OH232018   8.374   8.227  14.748  0.2269  0.6615 -0.3908
 2608TIP3    H132019   8.363   8.316  14.714 -0.3639  1.4760  1.7896
 2608TIP3    H232020   8.304   8.217  14.812  0.6406 -1.1827 -0.1676
 2609TIP3   OH232021   1.684   7.987  13.747 -0.4620 -0.9030 -0.0483
 2609TIP3    H132022   1.598   8.010  13.711 -0.1334 -0.0511 -0.3064
 2609TIP3    H232023   1.669   7.978  13.841 -0.4824  1.0893  0.1778
 2610TIP3   OH232024   1.885   1.549  13.909 -0.2469 -0.6515  0.2299
 2610TIP3    H132025   1.899   1.455  13.913  2.6702 -0.4141 -1.4572
 2610TIP3    H232026   1.973   1.587  13.915 -1.2495  1.9290  0.0227
 2611TIP3   OH232027   0.531   1.804  14.720  0.3160 -0.0874  0.0673
 2611TIP3    H132028   0.473   1.799  14.796 -0.5176  0.0876 -0.5465
 2611TIP3    H232029   0.526   1.718  14.679 -0.4230  0.2791 -0.6363
 2612TIP3   OH232030   7.487   5.569  14.280 -0.0246  0.1682 -0.4255
 2612TIP3    H132031   7.510   5.506  14.212 -2.7215  2.1956 -3.5409
 2612TIP3    H232032   7.429   5.522  14.340  1.5836 -1.3855 -0.0068
 2613TIP3   OH232033   8.308   5.282  14.965 -0.1544  0.5054 -0.4382
 2613TIP3    H132034   8.394   5.263  15.003 -1.8950 -0.4268  3.5889
 2613TIP3    H232035   8.316   5.371  14.931  2.5631  0.1675 -0.9446
 2614TIP3   OH232036   3.713   3.749  13.768 -0.3601 -1.0882 -0.2091
 2614TIP3    H132037   3.768   3.734  13.691 -1.9540 -1.5228 -1.3097
 2614TIP3    H232038   3.660   3.825  13.746 -3.0490 -2.9866 -0.9354
 2615TIP3   OH232039   2.096   6.177  13.261  0.5341 -0.0649 -0.1113
 2615TIP3    H132040   2.160   6.247  13.250  0.6668 -0.1281  0.2480
 2615TIP3    H232041   2.134   6.102  13.216  0.3826  0.0999 -0.5133
 2616TIP3   OH232042   8.283   4.141  13.925  0.4621  0.0418  0.3563
 2616TIP3    H132043   8.304   4.143  13.832  0.1719 -0.6856  0.2661
 2616TIP3    H232044   8.190   4.162  13.929  1.0198  2.8804  0.7220
 2617TIP3   OH232045   1.139   5.874  13.455 -0.6637 -0.0880 -0.7680
 2617TIP3    H132046   1.175   5.960  13.474  0.7078 -0.4422 -1.6554
 2617TIP3    H232047   1.189   5.814  13.511 -1.4389 -0.3478 -0.3363
 2618TIP3   OH232048   1.616   5.566  13.837 -0.3150 -0.2211 -0.1482
 2618TIP3    H132049   1.697   5.616  13.842 -1.2772  1.3771  0.1165
 2618TIP3    H232050   1.566   5.593  13.914 -1.2560 -0.8980 -0.5029
 2619TIP3   OH232051   3.829   2.075  14.504  0.1265  0.4548  0.1795
 2619TIP3    H132052   3.803   2.142  14.441 -2.4751 -0.5816  0.0672
 2619TIP3    H232053   3.922   2.092  14.519  0.5663  1.4802 -2.9973
 2620TIP3   OH232054   0.029   1.360  13.790  0.0386 -0.3659  0.5216
 2620TIP3    H132055   0.002   1.429  13.851  2.2978  1.5964 -0.5632
 2620TIP3    H232056   0.098   1.313  13.836 -1.9357 -2.5011  1.5282
 2621TIP3   OH232057   3.092   5.178  13.748 -0.2268  0.3287 -0.4677
 2621TIP3    H132058   3.172   5.224  13.772  0.6848 -0.6061 -1.5893
 2621TIP3    H232059   3.067   5.131  13.828  1.0821 -0.3749 -0.4274
 2622TIP3   OH232060   6.550   5.584  14.476  0.0680 -0.3236  0.0053
 2622TIP3    H132061   6.507   5.668  14.492  0.8471 -0.1564  1.4650
 2622TIP3    H232062   6.643   5.604  14.476  0.2831 -1.2276  0.7434
 2623TIP3   OH232063   4.278   2.773  15.223  0.4249  0.0849 -0.0213
 2623TIP3    H132064   4.321   2.764  15.308 -0.5563  0.4049  0.5278
 2623TIP3    H232065   4.302   2.860  15.192 -0.3249  0.5259  0.5897
 2624TIP3   OH232066   2.128   7.731  14.821 -0.5768  0.0811  0.2894
 2624TIP3    H132067   2.080   7.648  14.823 -0.7467  0.1835  0.5716
 2624TIP3    H232068   2.162   7.742  14.910 -1.7164  0.9771  0.6515
 2625TIP3   OH232069   2.385   6.318  14.798  0.1772  0.0694 -0.1593
 2625TIP3    H132070   2.290   6.317  14.809  0.2300 -1.0678  0.3027
 2625TIP3    H232071   2.416   6.382  14.861 -0.4315  2.1885 -1.8841
 2626TIP3   OH232072   2.056   5.900  13.630  0.2734  0.4008 -0.1672
 2626TIP3    H132073   2.126   5.870  13.572  1.2771 -0.0693  1.2330
 2626TIP3    H232074   1.996   5.825  13.635 -1.1489  1.2653 -2.4557
 2627TIP3   OH232075   4.187   0.614  14.682  0.1439 -0.0501 -0.2895
 2627TIP3    H132076   4.174   0.542  14.744  0.1571 -1.5560 -1.9508
 2627TIP3    H232077   4.116   0.676  14.702 -1.2684 -1.6026 -0.2888
 2628TIP3   OH232078   5.011   0.791  13.739  0.1141  0.6542  0.0783
 2628TIP3    H132079   5.066   0.864  13.767  1.7732 -0.1121 -1.0545
 2628TIP3    H232080   4.934   0.796  13.796  1.6920  1.2875  2.2823
 2629TIP3   OH232081   0.224   3.531  15.069 -0.1311 -0.2206  0.4490
 2629TIP3    H132082   0.137   3.493  15.057 -0.6358  1.3843 -1.4138
 2629TIP3    H232083   0.209   3.607  15.126  0.2058 -0.4355  0.8305
 2630TIP3   OH232084   7.906   0.479  14.242  0.2856 -0.3384  0.0225
 2630TIP3    H132085   7.948   0.564  14.235  0.8243 -0.6525 -0.6744
 2630TIP3    H232086   7.955   0.423  14.183  0.1916 -1.2370  0.7701
 2631TIP3   OH232087   1.341   3.810  13.356  0.0446  0.0195  0.4761
 2631TIP3    H132088   1.312   3.842  13.442 -0.0192  0.6036  0.2423
 2631TIP3    H232089   1.391   3.732  13.376 -1.6476 -1.0199  0.9033
 2632TIP3   OH232090   6.424   1.874  13.839  0.0144  0.1187  0.1223
 2632TIP3    H132091   6.489   1.881  13.770 -1.5292  1.5220 -1.2617
 2632TIP3    H232092   6.448   1.794  13.887  0.8340 -1.2117 -2.3519
 2633TIP3   OH232093   0.996   6.350  14.799  0.5893  0.1216  0.0874
 2633TIP3    H132094   1.067   6.390  14.749  0.7297 -1.6148 -1.2203
 2633TIP3    H232095   1.040   6.286  14.855  0.0949 -0.9230 -0.6876
 2634TIP3   OH232096   8.365   6.647  14.376  0.0580 -0.5564 -0.4800
 2634TIP3    H132097   8.271   6.657  14.388 -0.0534 -0.1696 -1.6106
 2634TIP3    H232098   8.380   6.665  14.284  1.0194 -2.3654 -0.7296
 2635TIP3   OH232099   8.407   2.780  15.134  0.0094  0.0054  0.2589
 2635TIP3    H132100   8.402   2.714  15.065  1.4581 -0.7535  0.8421
 2635TIP3    H232101   8.406   2.864  15.088  0.2817 -0.4692 -0.6370
 2636TIP3   OH232102   6.569   6.181  14.220 -0.0506 -0.2251  0.4022
 2636TIP3    H132103   6.616   6.202  14.139  0.6529 -1.2896  0.5057
 2636TIP3    H232104   6.579   6.086  14.228 -1.1375 -0.2862  1.1177
 2637TIP3   OH232105   0.230   1.378  13.024 -0.1150  0.0707 -0.3664
 2637TIP3    H132106   0.224   1.467  13.057  0.9019  0.3247 -0.8519
 2637TIP3    H232107   0.322   1.366  13.002 -0.2073 -1.1526 -0.1646
 2638TIP3   OH232108   4.965   3.871  13.897  0.5956 -0.2104 -0.0548
 2638TIP3    H132109   4.937   3.818  13.971 -1.7149  1.3209  0.2881
 2638TIP3    H232110   5.028   3.933  13.934  0.0414  0.0453  0.4622
 2639TIP3   OH232111   5.734   2.776  14.230  0.5213 -0.2194 -0.5376
 2639TIP3    H132112   5.704   2.744  14.315 -0.2617  0.4196 -0.5600
 2639TIP3    H232113   5.812   2.826  14.249  0.9260 -0.9107 -0.3256
 2640TIP3   OH232114   8.203   8.012  13.930 -1.0294 -0.0734 -0.2257
 2640TIP3    H132115   8.180   7.997  13.838 -1.1290 -0.5002 -0.1361
 2640TIP3    H232116   8.282   8.066  13.926 -0.8781 -0.3133 -0.5674
 2641TIP3   OH232117   5.304   7.237  13.530 -0.1988 -0.2323 -0.1135
 2641TIP3    H132118   5.268   7.272  13.448 -0.7681 -3.0510 -1.1877
 2641TIP3    H232119   5.394   7.212  13.507 -0.0271 -0.1072  0.4211
 2642TIP3   OH232120   3.993   2.037  13.025  0.0701  0.1351 -0.5727
 2642TIP3    H132121   3.950   1.987  12.955  1.6521 -1.6666 -0.3249
 2642TIP3    H232122   4.065   1.981  13.054 -1.0735  0.3169  3.2004
 2643TIP3   OH232123   0.692   0.992  15.222 -0.2447  0.4486  0.2130
 2643TIP3    H132124   0.612   1.040  15.245 -0.7078 -0.6656  1.0570
 2643TIP3    H232125   0.737   0.980  15.306  0.5327  0.5936 -0.1818
 2644TIP3   OH232126   4.335   5.692  14.362 -0.2777  0.3733  0.0327
 2644TIP3    H132127   4.346   5.678  14.268  0.2586  0.0616  0.1371
 2644TIP3    H232128   4.362   5.609  14.401  0.8874  0.9763  0.5431
 2645TIP3   OH232129   2.032   7.822  13.844 -0.1494 -0.1198 -0.7097
 2645TIP3    H132130   1.993   7.744  13.885  0.3437 -0.3670 -0.6944
 2645TIP3    H232131   1.990   7.828  13.759 -0.7899  0.0774 -0.3851
 2646TIP3   OH232132   3.616   5.937  13.468  0.1458 -0.1693  0.4732
 2646TIP3    H132133   3.642   5.924  13.559 -0.3989 -0.8279  0.5426
 2646TIP3    H232134   3.520   5.932  13.469  0.1882 -1.5300 -0.3254
 2647TIP3   OH232135   3.359   5.967  13.522  0.0265  0.1604 -0.1775
 2647TIP3    H132136   3.289   5.949  13.459 -0.5769 -0.1573  0.5779
 2647TIP3    H232137   3.319   6.027  13.585 -0.4925 -2.2107  1.8744
 2648TIP3   OH232138   5.834   5.732  12.967  0.0093  0.1072 -0.3295
 2648TIP3    H132139   5.913   5.757  12.919  1.1291 -2.6095 -0.0687
 2648TIP3    H232140   5.804   5.652  12.925 -2.5975  0.9846 -0.3264
 2649TIP3   OH232141   3.686   4.572  13.642  0.2598  0.3949  0.0862
 2649TIP3    H132142   3.781   4.568  13.653  0.2052  1.0735  0.9069
 2649TIP3    H232143   3.670   4.661  13.610 -0.2043  0.7319  1.2245
 2650TIP3   OH232144   5.528   5.492  13.717 -0.5767  0.3025  0.2024
 2650TIP3    H132145   5.602   5.466  13.772 -1.8168  1.7468  2.7449
 2650TIP3    H232146   5.452   5.485  13.775 -2.1919  0.6911 -1.7498
 2651TIP3   OH232147   8.058   7.305  12.980 -0.2335  0.1387 -0.5753
 2651TIP3    H132148   8.084   7.390  12.945  0.9728 -0.3749 -0.9790
 2651TIP3    H232149   8.067   7.314  13.074  0.7414  0.2021 -0.6649
 2652TIP3   OH232150   7.117   6.642  14.526  0.0214 -0.0744 -0.1782
 2652TIP3    H132151   7.090   6.629  14.617  0.0735  1.1098  0.0218
 2652TIP3    H232152   7.097   6.734  14.507  0.9393 -0.0244 -1.0428
 2653TIP3   OH232153   1.287   0.999  14.943  0.7502 -0.0674 -0.7259
 2653TIP3    H132154   1.366   0.953  14.914  0.6630 -0.3335 -0.5498
 2653TIP3    H232155   1.320   1.071  14.997  0.8441 -1.9526  1.9401
 2654TIP3   OH232156   0.674   3.883  14.805  0.1077  0.3013  0.0818
 2654TIP3    H132157   0.701   3.957  14.860  0.2652 -0.2744  0.7837
 2654TIP3    H232158   0.638   3.819  14.866  0.9567 -0.6526 -0.3923
 2655TIP3   OH232159   6.572   6.586  14.406 -0.3368  0.2615  0.5767
 2655TIP3    H132160   6.509   6.514  14.403 -0.1575  0.0955  0.7928
 2655TIP3    H232161   6.561   6.624  14.493 -0.4276  0.4932  0.4661
 2656TIP3   OH232162   6.455   1.804  13.333 -0.0264  0.3875  0.3911
 2656TIP3    H132163   6.518   1.770  13.269  0.4729 -1.0378  1.5920
 2656TIP3    H232164   6.376   1.752  13.318  0.0394  0.1615  0.8227
 2657TIP3   OH232165   1.154   6.531  13.605  0.3666 -0.1611  0.4016
 2657TIP3    H132166   1.235   6.503  13.647  1.2700  1.3827 -0.2279
 2657TIP3    H232167   1.117   6.595  13.666  0.3157  0.1232  0.0718
 2658TIP3   OH232168   2.976   5.701  14.483  0.1687  0.1885  0.4107
 2658TIP3    H132169   3.046   5.686  14.547  0.4358 -2.2996 -0.3560
 2658TIP3    H232170   3.022   5.735  14.406  0.0920  1.3731  0.8601
 2659TIP3   OH232171   6.943   4.107  14.892  0.4832 -0.1150  0.0838
 2659TIP3    H132172   6.956   4.018  14.923 -0.2809 -0.3568 -0.2636
 2659TIP3    H232173   7.000   4.160  14.948  0.2347 -0.7127  0.9340
 2660TIP3   OH232174   3.605   7.026  13.208  0.4099  0.5998 -0.2923
 2660TIP3    H132175   3.511   7.010  13.206  0.2557  1.3211  0.6298
 2660TIP3    H232176   3.621   7.088  13.137  0.2377  0.2694 -0.6223
 2661TIP3   OH232177   3.650   7.491  15.296 -0.1413 -0.2752 -0.1901
 2661TIP3    H132178   3.669   7.535  15.214  2.2832  0.1910  0.5503
 2661TIP3    H232179   3.566   7.529  15.324 -0.3442  0.5222 -1.7697
 2662TIP3   OH232180   7.316   4.998  14.387 -0.8283 -0.0509 -0.1874
 2662TIP3    H132181   7.222   5.012  14.398 -0.5188  2.3196  0.0631
 2662TIP3    H232182   7.346   5.077  14.341  1.4086  0.5488  2.0751
 2663TIP3   OH232183   7.753   7.902  13.800 -0.2208 -0.8511  0.1860
 2663TIP3    H132184   7.828   7.960  13.788 -0.4278 -0.8388 -1.1470
 2663TIP3    H232185   7.677   7.955  13.779 -0.9018 -0.1391  3.7831
 2664TIP3   OH232186   1.127   7.222  14.317 -0.5334  0.6954  0.0638
 2664TIP3    H132187   1.156   7.133  14.339  0.5833  0.9712 -0.1874
 2664TIP3    H232188   1.076   7.251  14.392  2.1082  1.1490  1.8080
 2665TIP3   OH232189   2.682   4.559  14.326 -0.6950  0.0770 -0.0530
 2665TIP3    H132190   2.690   4.467  14.351  0.2828  0.2294  0.2132
 2665TIP3    H232191   2.647   4.603  14.404  0.3377  0.1943  0.3480
 2666TIP3   OH232192   2.154   7.866  14.590 -0.0149 -0.6019  0.6085
 2666TIP3    H132193   2.092   7.814  14.538  0.4449 -0.4233 -0.1344
 2666TIP3    H232194   2.162   7.818  14.672  0.4774 -1.7800 -0.1027
 2667TIP3   OH232195   0.042   5.897  13.475 -0.0775 -0.1614 -0.0120
 2667TIP3    H132196   0.041   5.952  13.397 -2.3286  0.5411  0.4358
 2667TIP3    H232197   0.059   5.808  13.442 -0.4362  0.2043 -1.2435
 2668TIP3   OH232198   7.958   7.966  14.481  0.6449  0.1176 -0.1499
 2668TIP3    H132199   8.034   8.009  14.442  0.9782  0.6117  0.9979
 2668TIP3    H232200   7.888   8.030  14.474  0.4720 -0.1273 -0.7096
 2669TIP3   OH232201   4.124   1.752  14.851  0.3953  0.6503  0.5621
 2669TIP3    H132202   4.189   1.764  14.782 -0.4970  0.1981 -0.3716
 2669TIP3    H232203   4.147   1.668  14.891 -0.0731  0.1147 -0.2806
 2670TIP3   OH232204   5.286   0.113  13.287 -0.1230  0.3528  0.8207
 2670TIP3    H132205   5.363   0.112  13.344  0.0834  0.3686  0.5369
 2670TIP3    H232206   5.281   0.202  13.254 -0.8656  0.6448  1.6605
 2671TIP3   OH232207   4.745   6.979  14.428  0.2543  0.3707  0.5281
 2671TIP3    H132208   4.652   7.002  14.430  0.5820  1.6950  2.0632
 2671TIP3    H232209   4.773   7.003  14.340 -1.5478 -3.2838 -1.2781
 2672TIP3   OH232210   4.047   7.825  15.002  0.1242  0.3493  0.0292
 2672TIP3    H132211   4.053   7.729  15.006 -0.6757  0.2491 -0.7553
 2672TIP3    H232212   3.967   7.846  15.049 -0.5524  0.4798 -1.1279
 2673TIP3   OH232213   6.944   6.096  15.150  0.2668  0.4090  0.3674
 2673TIP3    H132214   6.931   6.100  15.245  0.4269 -0.9596  0.4692
 2673TIP3    H232215   6.856   6.089  15.113  0.0316  3.0565  0.2292
 2674TIP3   OH232216   5.505   2.810  12.956  0.4025  0.0327  0.3298
 2674TIP3    H132217   5.415   2.820  12.925  0.6922  2.8555  0.1514
 2674TIP3    H232218   5.557   2.867  12.900  2.1318 -0.5356  1.2607
 2675TIP3   OH232219   8.337   4.886  15.309  0.7656  0.4454 -0.1336
 2675TIP3    H132220   8.409   4.887  15.246  0.9086  0.6573  0.0343
 2675TIP3    H232221   8.295   4.971  15.299 -0.5644 -0.3185 -1.5021
 2676TIP3   OH232222   7.335   7.909  13.795 -0.6571 -0.1442 -0.0401
 2676TIP3    H132223   7.377   7.906  13.881  1.7544  1.8406 -1.0325
 2676TIP3    H232224   7.275   7.983  13.799  0.7046  1.0141 -0.5367
 2677TIP3   OH232225   1.197   0.613  14.114 -0.3927 -0.0021 -0.1742
 2677TIP3    H132226   1.223   0.617  14.206  0.2543  2.0195 -0.4085
 2677TIP3    H232227   1.276   0.639  14.066 -0.8932 -0.4909 -1.2919
 2678TIP3   OH232228   3.011   4.987  15.127 -0.4577 -0.1718 -0.1171
 2678TIP3    H132229   3.013   5.062  15.067  1.2038 -0.8128 -0.9416
 2678TIP3    H232230   2.970   5.021  15.207  0.5707  1.7478 -0.3377
 2679TIP3   OH232231   1.967   8.404  14.917  0.4003  0.1320  0.1293
 2679TIP3    H132232   1.998   8.410  14.826  0.6947 -0.7030  0.1641
 2679TIP3    H232233   1.974   8.493  14.951  0.2653  0.4589 -0.6746
 2680TIP3   OH232234   4.200   1.016  13.533 -0.1563  0.0244 -0.2671
 2680TIP3    H132235   4.280   1.064  13.552 -1.0700  1.7156 -0.4995
 2680TIP3    H232236   4.216   0.927  13.565  0.8072  1.0165  2.1799
 2681TIP3   OH232237   6.097   2.855  14.001 -0.2047 -0.9589  0.3559
 2681TIP3    H132238   6.111   2.862  14.096  0.0456 -0.9735  0.3191
 2681TIP3    H232239   6.023   2.795  13.992 -0.5364 -0.5885  0.5642
 2682TIP3   OH232240   8.184   6.182  12.950  0.4646  0.2653  0.1151
 2682TIP3    H132241   8.121   6.178  13.021  1.3948 -2.8024  0.9139
 2682TIP3    H232242   8.131   6.177  12.870 -0.3982 -0.6474  0.7233
 2683TIP3   OH232243   1.036   6.959  12.958 -0.0418 -0.0975 -0.0583
 2683TIP3    H132244   1.102   6.919  13.014  0.2537  0.6984  0.1753
 2683TIP3    H232245   1.057   7.053  12.958 -0.7634  0.0785 -0.5241
 2684TIP3   OH232246   3.386   4.334  14.133  0.6089 -0.3163  0.2015
 2684TIP3    H132247   3.478   4.326  14.106  0.9718 -1.3084  1.6186
 2684TIP3    H232248   3.388   4.392  14.209  0.2320 -1.3011  0.9766
 2685TIP3   OH232249   6.602   6.636  13.369 -0.3125  0.0753  0.3409
 2685TIP3    H132250   6.541   6.585  13.317  1.3373 -0.4649 -1.1712
 2685TIP3    H232251   6.590   6.726  13.341 -1.7154  0.2638  1.4512
 2686TIP3   OH232252   7.430   6.480  13.046  0.1345  0.2395 -0.1469
 2686TIP3    H132253   7.471   6.400  13.080 -2.3208 -1.1253 -0.1700
 2686TIP3    H232254   7.466   6.490  12.958  2.3861  0.6844  0.7446
 2687TIP3   OH232255   2.152   2.207  14.608 -0.0403 -0.2352 -0.3497
 2687TIP3    H132256   2.240   2.217  14.572 -0.1091 -2.6739 -1.4258
 2687TIP3    H232257   2.100   2.175  14.534 -0.8789 -2.5965  1.1608
 2688TIP3   OH232258   1.998   3.537  12.566  0.1739  0.0752 -0.0361
 2688TIP3    H132259   1.909   3.508  12.583 -0.4347  0.5035 -2.1378
 2688TIP3    H232260   1.991   3.593  12.488  2.1508  0.8802  0.2852
 2689TIP3   OH232261   1.594   4.868  13.666 -0.4773 -0.8898 -0.4704
 2689TIP3    H132262   1.626   4.785  13.701 -1.1266 -0.6085  0.8874
 2689TIP3    H232263   1.500   4.853  13.653 -0.9823  0.1036  1.4913
 2690TIP3   OH232264   2.814   2.212  14.342 -0.5756  0.5702 -0.4368
 2690TIP3    H132265   2.847   2.288  14.294  1.6589 -0.9087 -1.4229
 2690TIP3    H232266   2.818   2.238  14.434 -0.3366  1.8046 -0.7751
 2691TIP3   OH232267   1.078   6.813  14.701 -0.3637  0.4464  0.5077
 2691TIP3    H132268   0.992   6.797  14.662  0.0488  0.6744 -0.5207
 2691TIP3    H232269   1.137   6.756  14.652 -0.0844 -0.5424  1.9367
 2692TIP3   OH232270   0.546   0.275  14.311  0.2912 -0.1144  0.4520
 2692TIP3    H132271   0.585   0.357  14.281 -1.3585 -0.0328 -1.7480
 2692TIP3    H232272   0.615   0.210  14.297  0.6725  0.4686 -0.5171
 2693TIP3   OH232273   1.726   2.485  14.245 -0.1646 -0.2706  0.2813
 2693TIP3    H132274   1.693   2.490  14.156  4.0337 -1.1743 -1.5656
 2693TIP3    H232275   1.698   2.399  14.277  0.0446 -0.8345 -1.0132
 2694TIP3   OH232276   3.825   2.580  14.328 -0.4859 -0.4959  0.0815
 2694TIP3    H132277   3.810   2.656  14.271 -1.3367  0.6356  1.7408
 2694TIP3    H232278   3.787   2.507  14.280  0.5387  0.0429 -1.6604
 2695TIP3   OH232279   0.770   3.410  14.376 -0.2868 -0.4467  0.0605
 2695TIP3    H132280   0.716   3.338  14.344  1.7165 -1.9614 -0.0684
 2695TIP3    H232281   0.741   3.423  14.467 -2.6053  0.5753 -0.7348
 2696TIP3   OH232282   2.603   8.302  13.908 -0.6200 -0.3979  0.0331
 2696TIP3    H132283   2.526   8.358  13.902 -1.1221 -0.7274  2.4636
 2696TIP3    H232284   2.676   8.364  13.916 -0.6575 -0.0984 -1.5463
 2697TIP3   OH232285   4.268   0.524  13.695  0.0485 -0.3415  0.1803
 2697TIP3    H132286   4.309   0.573  13.766 -0.3800 -0.0709  0.2425
 2697TIP3    H232287   4.177   0.512  13.723 -0.5076  1.0183 -0.9617
 2698TIP3   OH232288   1.878   4.040  14.991  0.0308 -0.5290  0.2685
 2698TIP3    H132289   1.907   4.041  14.899 -0.3636  2.1253  0.0969
 2698TIP3    H232290   1.783   4.031  14.986 -0.0366  0.0906  0.3817
 2699TIP3   OH232291   1.211   2.714  14.070 -0.1499  0.2950 -0.1635
 2699TIP3    H132292   1.287   2.768  14.090  0.1785 -0.6420  1.2960
 2699TIP3    H232293   1.210   2.647  14.139 -1.8206 -0.2142 -0.6247
 2700TIP3   OH232294   2.143   3.285  13.351  0.2593 -0.3492 -0.0339
 2700TIP3    H132295   2.188   3.359  13.310 -2.6458  1.1943 -0.6760
 2700TIP3    H232296   2.214   3.229  13.384  2.5892  2.7866  0.7152
 2701TIP3   OH232297   3.372   1.363  14.430 -0.3140 -0.3574  0.2454
 2701TIP3    H132298   3.462   1.339  14.452 -0.2874 -1.3520 -0.8274
 2701TIP3    H232299   3.380   1.430  14.362 -0.3712 -0.6729 -0.0773
 2702TIP3   OH232300   7.753   7.592  14.768 -0.5093  0.3166 -0.6124
 2702TIP3    H132301   7.669   7.556  14.739 -0.1175 -0.0757 -1.2732
 2702TIP3    H232302   7.739   7.687  14.768 -0.9682  0.2533 -0.6576
 2703TIP3   OH232303   7.452   8.379  13.635  0.2381 -0.6553  0.4584
 2703TIP3    H132304   7.539   8.338  13.628  0.8474  0.6385  0.0667
 2703TIP3    H232305   7.397   8.328  13.576  0.7801 -1.3537  0.5342
 2704TIP3   OH232306   8.270   1.251  14.897 -0.0088  0.2176 -0.0179
 2704TIP3    H132307   8.303   1.165  14.873 -1.7951 -0.0476 -1.8769
 2704TIP3    H232308   8.347   1.307  14.899  0.9589 -1.0355 -0.7763
 2705TIP3   OH232309   3.556   2.133  13.203  0.1641  0.7769 -0.0019
 2705TIP3    H132310   3.465   2.113  13.181  0.5434  0.6649 -1.6294
 2705TIP3    H232311   3.605   2.056  13.173  0.9700  1.5457 -0.7277
 2706TIP3   OH232312   0.885   3.145  13.829  0.3481  0.1406 -0.4809
 2706TIP3    H132313   0.895   3.231  13.870  1.0981 -0.1673 -0.0121
 2706TIP3    H232314   0.845   3.164  13.744  1.5881  1.0786 -0.8894
 2707TIP3   OH232315   6.475   4.438  12.813  0.0367 -0.2434 -0.1282
 2707TIP3    H132316   6.479   4.381  12.736  0.3219 -2.6814  1.5603
 2707TIP3    H232317   6.565   4.464  12.829  0.1792 -0.9017  0.1679
 2708TIP3   OH232318   0.796   7.982  14.212 -0.3486  0.2172  0.0096
 2708TIP3    H132319   0.758   8.063  14.244 -1.3222 -0.5973  1.0126
 2708TIP3    H232320   0.734   7.914  14.240  0.5362 -0.8883 -0.6284
 2709TIP3   OH232321   1.267   7.937  14.667  0.0375  0.5859 -0.0050
 2709TIP3    H132322   1.242   8.018  14.623 -0.2137  0.6759  0.3037
 2709TIP3    H232323   1.187   7.908  14.710 -0.0046 -0.0811 -0.5096
 2710TIP3   OH232324   7.075   4.423  14.417  0.9504  0.0289 -0.0992
 2710TIP3    H132325   7.152   4.398  14.467 -1.0121 -0.1588  3.0916
 2710TIP3    H232326   7.093   4.512  14.387  2.7571 -0.3781 -0.3201
 2711TIP3   OH232327   3.215   7.568  13.012  0.0710 -0.1254  0.4758
 2711TIP3    H132328   3.254   7.499  13.065  1.1110  0.7673  0.9079
 2711TIP3    H232329   3.271   7.644  13.025  1.0656 -0.1398 -2.7797
 2712TIP3   OH232330   2.454   4.834  13.415  0.5166 -0.3170 -0.8715
 2712TIP3    H132331   2.524   4.891  13.446  0.1749  0.2997 -1.1959
 2712TIP3    H232332   2.383   4.894  13.391 -0.1280 -0.9252 -0.5335
 2713TIP3   OH232333   7.060   3.600  13.858 -0.1183  0.5406 -0.1511
 2713TIP3    H132334   7.034   3.553  13.779  0.8424 -1.3161  0.5912
 2713TIP3    H232335   7.110   3.537  13.909  1.2404  2.3749  0.9097
 2714TIP3   OH232336   7.210   0.188  14.735 -0.2348 -0.0306 -0.9044
 2714TIP3    H132337   7.295   0.195  14.692  1.6628 -0.4990  2.4351
 2714TIP3    H232338   7.217   0.244  14.812 -3.6018  1.1730 -1.2985
 2715TIP3   OH232339   7.626   0.543  13.779  0.1405 -0.0767 -0.3081
 2715TIP3    H132340   7.550   0.600  13.786 -0.0171 -0.4346  1.4020
 2715TIP3    H232341   7.647   0.541  13.686 -1.7682  0.2354 -0.7721
 2716TIP3   OH232342   6.309   2.848  14.821  0.2389  0.0369 -0.1494
 2716TIP3    H132343   6.310   2.942  14.807 -0.4800  0.4242  2.0550
 2716TIP3    H232344   6.381   2.832  14.883  0.3148 -0.8733 -0.4503
 2717TIP3   OH232345   2.574   5.410  14.075 -0.5155  0.0063 -0.1984
 2717TIP3    H132346   2.514   5.484  14.085  1.1794  1.5333 -0.7914
 2717TIP3    H232347   2.607   5.418  13.985  2.2091  0.5521  0.7743
 2718TIP3   OH232348   7.455   3.260  14.079 -0.2984  0.4968 -0.3298
 2718TIP3    H132349   7.452   3.334  14.018 -1.6407 -0.9358 -2.0974
 2718TIP3    H232350   7.478   3.185  14.024  0.1505 -0.5701  1.2564
 2719TIP3   OH232351   7.462   6.504  15.165 -0.1369 -0.4349 -0.1009
 2719TIP3    H132352   7.422   6.471  15.245  0.4879 -1.3822 -0.1710
 2719TIP3    H232353   7.388   6.529  15.110 -0.6535 -2.1148 -0.2132
 2720TIP3   OH232354   4.716   3.880  15.183 -0.5068 -0.0423  0.7241
 2720TIP3    H132355   4.784   3.835  15.132 -0.7308  1.2576 -0.7955
 2720TIP3    H232356   4.697   3.820  15.255  1.2127 -1.0820  0.3763
 2721TIP3   OH232357   3.486   2.088  13.852  0.2531  0.0528 -0.0679
 2721TIP3    H132358   3.561   2.066  13.908  0.4787  0.3938 -0.2314
 2721TIP3    H232359   3.523   2.089  13.763 -0.1823 -0.8642 -0.2741
 2722TIP3   OH232360   3.415   7.427  14.168  0.3171  0.0211  0.0954
 2722TIP3    H132361   3.329   7.397  14.136 -1.3709  0.6414  3.5722
 2722TIP3    H232362   3.420   7.519  14.141 -1.1984  0.6198  1.6670
 2723TIP3   OH232363   1.960   7.113  14.396  0.1872  0.0738  0.0688
 2723TIP3    H132364   1.907   7.127  14.317  1.3997  1.2730 -0.5867
 2723TIP3    H232365   1.907   7.147  14.467 -0.3048  0.4177 -0.4560
 2724TIP3   OH232366   3.321   3.794  13.662 -0.6885 -0.5318 -0.3830
 2724TIP3    H132367   3.397   3.839  13.698 -1.2820 -0.7200  1.1584
 2724TIP3    H232368   3.338   3.790  13.568  0.6412  0.4827 -0.2099
 2725TIP3   OH232369   0.672   5.379  14.969 -0.0606  0.2456  1.0493
 2725TIP3    H132370   0.720   5.331  15.037  2.0524 -1.0957 -1.2299
 2725TIP3    H232371   0.607   5.317  14.937  1.9202 -0.8993 -1.1073
 2726TIP3   OH232372   6.053   2.782  14.840 -0.3638  0.1819  0.2798
 2726TIP3    H132373   6.140   2.792  14.801 -1.5486 -0.1861 -2.6860
 2726TIP3    H232374   6.063   2.714  14.906  1.9176  1.3628  1.2627
 2727TIP3   OH232375   4.309   5.501  13.385  0.0678 -0.2141 -0.0608
 2727TIP3    H132376   4.371   5.436  13.350 -0.2126 -0.3789 -0.2562
 2727TIP3    H232377   4.305   5.482  13.479 -0.6613 -1.0414 -0.2452
 2728TIP3   OH232378   2.102   2.855  12.893  0.2891  0.1749 -0.4742
 2728TIP3    H132379   2.043   2.812  12.955  0.7841 -0.0430 -0.1426
 2728TIP3    H232380   2.044   2.901  12.832 -0.2915 -1.3521 -1.1361
 2729TIP3   OH232381   5.564   1.472  13.791  0.7389 -0.0838 -0.0106
 2729TIP3    H132382   5.607   1.507  13.713  0.0526 -0.3067 -0.5050
 2729TIP3    H232383   5.487   1.529  13.802 -0.0342 -0.9977 -0.4416
 2730TIP3   OH232384   3.554   3.558  13.161  0.4076  0.4154  0.4020
 2730TIP3    H132385   3.517   3.472  13.146 -1.3875  1.3287 -0.7947
 2730TIP3    H232386   3.641   3.554  13.120  1.9780 -1.8681  3.5746
 2731TIP3   OH232387   2.214   4.545  14.114 -0.3592  0.1144 -0.6821
 2731TIP3    H132388   2.309   4.535  14.114 -0.3304  0.3034  0.3409
 2731TIP3    H232389   2.193   4.571  14.024  0.4871 -0.4916 -1.0724
 2732TIP3   OH232390   0.839   5.856  14.364  0.0384 -0.0211  0.6266
 2732TIP3    H132391   0.768   5.903  14.319 -0.1065  0.8408  1.7180
 2732TIP3    H232392   0.831   5.883  14.455  1.8492  0.1722  0.7466
 2733TIP3   OH232393   2.155   3.766  14.312  0.1248  0.4456  0.3300
 2733TIP3    H132394   2.119   3.792  14.227  0.2668 -0.1737  0.0765
 2733TIP3    H232395   2.110   3.684  14.333  1.4787 -0.4284 -0.0630
 2734TIP3   OH232396   0.385   1.399  13.928  0.2500 -0.6578  0.3330
 2734TIP3    H132397   0.357   1.341  13.857 -1.5379  0.4300  0.0922
 2734TIP3    H232398   0.455   1.452  13.890 -1.2485  0.4893 -0.9238
 2735TIP3   OH232399   2.351   7.354  13.091 -0.1060  0.2013  0.3996
 2735TIP3    H132400   2.364   7.289  13.022 -1.1769 -1.5724  1.8069
 2735TIP3    H232401   2.436   7.358  13.135  0.3380  0.7306 -0.4736
 2736TIP3   OH232402   0.565   8.042  14.016 -0.1498  0.4795 -0.4582
 2736TIP3    H132403   0.497   8.012  13.954 -0.0680  2.0159 -1.3299
 2736TIP3    H232404   0.646   8.006  13.980 -0.3085 -0.1376 -0.2230
 2737TIP3   OH232405   7.447   1.497  14.669  0.7645  0.0217 -0.6586
 2737TIP3    H132406   7.453   1.434  14.741  1.6776  0.0250 -0.7222
 2737TIP3    H232407   7.477   1.580  14.706 -0.6953  0.5131 -0.5010
 2738TIP3   OH232408   4.035   6.565  13.360  0.1056  0.0101  0.3578
 2738TIP3    H132409   3.983   6.535  13.285  0.4942  1.8036 -0.6779
 2738TIP3    H232410   4.122   6.529  13.343  0.2619  0.6355 -0.2261
 2739TIP3   OH232411   5.911   3.065  14.014 -0.2670  0.1908  0.2227
 2739TIP3    H132412   5.982   3.003  14.000  1.4187  1.7060  1.6460
 2739TIP3    H232413   5.857   3.024  14.082  0.3969 -0.0898  0.5944
 2740TIP3   OH232414   3.244   2.429  14.460 -0.0448 -0.2360 -0.0416
 2740TIP3    H132415   3.258   2.350  14.512  0.1805 -0.2681 -0.1503
 2740TIP3    H232416   3.332   2.459  14.436 -0.1182  0.1731  0.1818
 2741TIP3   OH232417   5.616   1.957  13.145 -0.3222  0.0220 -0.2555
 2741TIP3    H132418   5.620   1.948  13.240 -1.0268 -0.8726 -0.2965
 2741TIP3    H232419   5.569   2.040  13.131 -0.7000 -0.1158  0.1765
 2742TIP3   OH232420   7.149   2.701  12.644 -0.4750  0.5891 -0.5674
 2742TIP3    H132421   7.213   2.686  12.575  0.0217 -0.3010  0.0614
 2742TIP3    H232422   7.160   2.627  12.703 -2.9456 -0.2442 -1.0686
 2743TIP3   OH232423   6.267   0.555  13.367 -0.0104  0.1481  0.2848
 2743TIP3    H132424   6.330   0.488  13.394 -1.0622 -1.8612 -1.8931
 2743TIP3    H232425   6.283   0.566  13.273 -2.4926 -0.0385 -0.2283
 2744TIP3   OH232426   0.804   3.002  15.351 -0.4042  0.0840 -0.0578
 2744TIP3    H132427   0.766   2.923  15.312  0.3193 -0.1114 -0.3903
 2744TIP3    H232428   0.754   3.074  15.312  0.2747 -0.1087 -1.3357
 2745TIP3   OH232429   7.850   5.639  14.256 -0.4047  0.1185 -0.0085
 2745TIP3    H132430   7.939   5.637  14.292 -0.7072  1.8098  0.9759
 2745TIP3    H232431   7.795   5.659  14.332 -1.4918  0.2193 -0.8046
 2746TIP3   OH232432   0.215   6.720  13.317  0.0808  0.0351  0.4405
 2746TIP3    H132433   0.252   6.769  13.244 -0.0973  0.5793  0.7118
 2746TIP3    H232434   0.124   6.749  13.323 -0.1631 -0.6800  0.3068
 2747TIP3   OH232435   6.202   2.295  14.830  0.0174 -0.7454  0.1268
 2747TIP3    H132436   6.268   2.355  14.797  0.0802 -0.5772  0.5483
 2747TIP3    H232437   6.168   2.337  14.909 -1.7865 -0.0300 -0.9856
 2748TIP3   OH232438   2.751   6.170  13.734  0.0263 -0.1833 -0.2908
 2748TIP3    H132439   2.661   6.176  13.765 -0.3862 -2.4605 -0.8671
 2748TIP3    H232440   2.780   6.261  13.725 -2.2423  0.6000 -0.2183
 2749TIP3   OH232441   7.976   7.146  15.097 -0.0905  0.0034 -0.1268
 2749TIP3    H132442   7.909   7.213  15.115  0.0475 -0.2666  1.6247
 2749TIP3    H232443   7.928   7.076  15.053 -0.2375  1.2119 -2.0012
 2750TIP3   OH232444   5.924   0.310  14.940 -0.0111  0.1384  0.2445
 2750TIP3    H132445   5.855   0.252  14.974 -1.6932  2.4608  1.0063
 2750TIP3    H232446   5.893   0.337  14.854  1.4068 -1.0483 -0.6861
 2751TIP3   OH232447   4.014   5.870  13.577  0.1190 -0.0823 -0.2503
 2751TIP3    H132448   4.105   5.843  13.565 -0.9111 -4.6850  0.1747
 2751TIP3    H232449   3.963   5.799  13.539 -3.2597  0.8573  2.0398
 2752TIP3   OH232450   2.934   4.493  14.617 -0.0579 -0.1738  0.2474
 2752TIP3    H132451   2.881   4.572  14.631  0.8643  0.7535 -1.2362
 2752TIP3    H232452   2.870   4.427  14.589 -0.6857  0.3833  0.3373
 2753TIP3   OH232453   6.760   1.977  13.430  0.6216 -0.3601 -0.5365
 2753TIP3    H132454   6.800   1.932  13.356  2.2910  0.7853 -0.3967
 2753TIP3    H232455   6.798   2.065  13.427  1.5941 -0.5686  2.2620
 2754TIP3   OH232456   7.844   1.346  14.772 -0.1119  0.3002  0.0505
 2754TIP3    H132457   7.776   1.409  14.748  1.0522  2.0862  1.2039
 2754TIP3    H232458   7.875   1.311  14.689 -0.1551  1.9619 -0.6860
 2755TIP3   OH232459   8.394   5.720  14.325 -0.1248  0.4452 -0.4835
 2755TIP3    H132460   8.477   5.674  14.339 -0.5927  0.0819  1.2991
 2755TIP3    H232461   8.412   5.781  14.253  1.1540 -0.9039 -1.3596
 2756TIP3   OH232462   2.109   5.708  13.982 -0.2571  0.2755  0.0811
 2756TIP3    H132463   2.082   5.638  14.041  1.4510 -1.6294 -1.2293
 2756TIP3    H232464   2.149   5.662  13.908  1.1851  2.6643 -0.7336
 2757TIP3   OH232465   2.383   4.916  13.808 -0.0442 -0.0693  0.4875
 2757TIP3    H132466   2.399   5.000  13.766  0.4188 -0.9494 -1.1764
 2757TIP3    H232467   2.367   4.938  13.900 -0.4154  1.8604  0.0061
 2758TIP3   OH232468   1.528   0.902  14.839 -0.0152 -0.4046 -0.3912
 2758TIP3    H132469   1.540   0.816  14.879  0.7754 -0.4689 -0.7538
 2758TIP3    H232470   1.571   0.896  14.754 -1.9959 -0.3828 -1.4594
 2759TIP3   OH232471   8.378   4.697  15.048  0.0562 -0.1420 -0.2984
 2759TIP3    H132472   8.329   4.772  15.014 -1.3696  0.2700  2.3763
 2759TIP3    H232473   8.464   4.733  15.070  0.6265 -0.1787 -2.2605
 2760TIP3   OH232474   1.483   2.338  14.495  0.1138  0.4362  0.1203
 2760TIP3    H132475   1.468   2.313  14.586 -0.0252 -0.4651 -0.1407
 2760TIP3    H232476   1.509   2.256  14.451 -0.6201  0.6903 -0.8214
 2761TIP3   OH232477   1.983   3.683  14.115  0.3182 -0.1801 -0.0083
 2761TIP3    H132478   2.018   3.617  14.175 -0.7109  0.5147  1.4104
 2761TIP3    H232479   1.956   3.633  14.038  0.3702 -1.2971  0.6762
 2762TIP3   OH232480   5.808   0.928  13.499  0.4625  0.3986  0.1224
 2762TIP3    H132481   5.890   0.974  13.519  0.5676 -0.7024  2.5694
 2762TIP3    H232482   5.741   0.996  13.501  1.1660  1.1488 -0.8966
 2763TIP3   OH232483   0.736   3.969  15.081  0.4835 -0.2224 -0.1067
 2763TIP3    H132484   0.772   4.055  15.061  0.6591 -0.5947 -1.4532
 2763TIP3    H232485   0.809   3.908  15.069  0.1521 -0.6533  0.0147
 2764TIP3   OH232486   8.121   6.706  14.877  0.8691  0.2164  0.2085
 2764TIP3    H132487   8.130   6.618  14.841  3.2588 -0.4068  2.0719
 2764TIP3    H232488   8.145   6.697  14.969 -1.3134  2.3891  1.1283
 2765TIP3   OH232489   3.975   3.403  14.191  0.2569  0.5774  0.1600
 2765TIP3    H132490   4.033   3.476  14.169 -1.0694  2.1387  1.5459
 2765TIP3    H232491   3.904   3.409  14.126  0.5039  0.0455 -0.1669
 2766TIP3   OH232492   5.528   6.372  13.623 -0.1635  0.6162 -0.3644
 2766TIP3    H132493   5.609   6.392  13.576 -0.9465 -0.8469 -2.4381
 2766TIP3    H232494   5.558   6.330  13.704  1.1524 -0.4218 -1.3497
 2767TIP3   OH232495   1.421   2.972  13.741 -0.2461 -0.1937 -0.2167
 2767TIP3    H132496   1.380   3.009  13.818 -2.4803 -0.5628 -1.1584
 2767TIP3    H232497   1.402   2.878  13.745  0.0237 -0.2939 -0.9645
 2768TIP3   OH232498   4.295   0.447  14.109  0.8687  0.3758  0.3332
 2768TIP3    H132499   4.292   0.529  14.059 -0.4183  0.3944  0.4261
 2768TIP3    H232500   4.334   0.472  14.193 -2.0100  1.5308  1.4543
 2769TIP3   OH232501   5.420   6.503  14.926 -0.2969  0.1123  0.2233
 2769TIP3    H132502   5.368   6.583  14.914 -1.8233 -0.8034  0.4735
 2769TIP3    H232503   5.422   6.490  15.021  1.2339  0.6335  0.2940
 2770TIP3   OH232504   0.074   7.164  14.488 -0.4266 -0.3249  0.3854
 2770TIP3    H132505   0.048   7.180  14.397 -1.2090  2.1359  0.9514
 2770TIP3    H232506   0.133   7.236  14.509  0.3606 -1.2878  1.6227
 2771TIP3   OH232507   7.864   7.310  13.592 -0.2775  0.0331  0.3082
 2771TIP3    H132508   7.820   7.243  13.540  0.5792 -2.1585  2.2757
 2771TIP3    H232509   7.954   7.311  13.561 -0.5654  1.3048 -0.6120
 2772TIP3   OH232510   0.262   7.377  14.437 -0.0753  0.6011 -0.0719
 2772TIP3    H132511   0.266   7.358  14.344 -1.7518 -1.2389  0.1573
 2772TIP3    H232512   0.343   7.342  14.473 -0.1146 -0.0779 -0.6287
 2773TIP3   OH232513   1.623   0.730  14.284  0.4540  0.5843 -0.4639
 2773TIP3    H132514   1.663   0.658  14.332 -1.3561  0.3489  0.8178
 2773TIP3    H232515   1.636   0.708  14.192  0.6475 -0.9718 -0.0953
 2774TIP3   OH232516   7.444   4.333  14.220  0.3502 -0.3689 -0.5627
 2774TIP3    H132517   7.473   4.297  14.304 -1.3456  2.3615  1.3957
 2774TIP3    H232518   7.349   4.322  14.221 -0.1026  2.5883 -0.4449
 2775TIP3   OH232519   3.389   4.112  12.748 -0.2774 -0.2947 -0.0857
 2775TIP3    H132520   3.369   4.023  12.779  0.2439 -0.8256 -1.2463
 2775TIP3    H232521   3.484   4.118  12.753 -0.2215 -0.2316 -1.1536
 2776TIP3   OH232522   5.888   5.569  13.327  0.2801 -0.3095  0.6628
 2776TIP3    H132523   5.851   5.537  13.245 -0.3260  1.5474  0.1606
 2776TIP3    H232524   5.974   5.527  13.333  0.9767  0.6426 -1.7123
 2777TIP3   OH232525   7.488   0.259  14.695  0.0622  0.2449  0.3962
 2777TIP3    H132526   7.463   0.334  14.750  2.2390  0.9225  0.5451
 2777TIP3    H232527   7.561   0.291  14.642  0.1208 -1.3730 -0.5598
 2778TIP3   OH232528   1.504   7.543  14.524 -0.3927 -0.4574  0.3970
 2778TIP3    H132529   1.502   7.635  14.550 -0.1748 -0.2706 -0.2208
 2778TIP3    H232530   1.509   7.495  14.607 -0.5645  0.0812  0.7273
 2779TIP3   OH232531   7.595   5.969  15.115 -0.2956 -0.2163 -0.0796
 2779TIP3    H132532   7.539   5.911  15.166 -1.8844  1.7268  0.5225
 2779TIP3    H232533   7.626   6.034  15.178 -1.1291  1.4087 -1.2554
 2780TIP3   OH232534   5.234   0.395  13.281 -0.0657  0.1786 -0.3105
 2780TIP3    H132535   5.173   0.397  13.208 -0.1267 -2.1795 -0.4248
 2780TIP3    H232536   5.179   0.384  13.359 -0.0212  2.9239  0.1960
 2781TIP3   OH232537   7.659   2.235  12.788  0.1119  0.0029 -0.1609
 2781TIP3    H132538   7.654   2.159  12.847 -0.8517  0.5759  0.5347
 2781TIP3    H232539   7.735   2.218  12.733  1.2049 -0.4481  1.4188
 2782TIP3   OH232540   6.078   1.295  13.625  0.3053 -0.1798 -0.0195
 2782TIP3    H132541   6.124   1.310  13.708  1.9054 -2.6583 -0.3648
 2782TIP3    H232542   6.099   1.373  13.573 -1.2203  1.7309  1.9949
 2783TIP3   OH232543   6.065   3.996  15.265  0.0281 -0.0311  0.5864
 2783TIP3    H132544   6.099   3.988  15.176 -1.2704  0.0556  0.0676
 2783TIP3    H232545   6.142   4.019  15.318  1.3158 -2.3808 -0.0848
 2784TIP3   OH232546   7.278   0.388  14.182 -0.7357 -0.2024 -0.1328
 2784TIP3    H132547   7.360   0.417  14.143 -0.1765 -0.5646  0.7542
 2784TIP3    H232548   7.302   0.314  14.237 -1.8080 -0.9260 -0.5998
 2785TIP3   OH232549   1.603   7.176  14.529 -0.1445  0.6830  0.0629
 2785TIP3    H132550   1.538   7.217  14.586 -0.4984  0.3226 -0.0819
 2785TIP3    H232551   1.567   7.186  14.441  0.1372  0.7397 -0.0470
 2786TIP3   OH232552   8.323   2.134  15.020  0.1460  0.5624  0.1016
 2786TIP3    H132553   8.283   2.206  15.069 -0.3847  1.1608 -1.1895
 2786TIP3    H232554   8.285   2.055  15.060 -2.4991  1.0941 -1.1231
 2787TIP3   OH232555   4.074   1.141  14.425 -0.1210  0.3812 -0.5615
 2787TIP3    H132556   4.053   1.166  14.335 -0.0788 -1.3164 -1.0659
 2787TIP3    H232557   4.153   1.192  14.447 -0.5686  1.3744 -1.1883
 2788TIP3   OH232558   4.680   0.959  12.640  0.1399  0.5832  0.3179
 2788TIP3    H132559   4.768   0.970  12.677  0.0254  1.0030  0.4742
 2788TIP3    H232560   4.691   0.894  12.571  1.1458  2.7104 -1.6481
 2789TIP3   OH232561   6.829   3.513  14.662 -0.2694 -0.0978  0.2832
 2789TIP3    H132562   6.741   3.476  14.649  0.2916 -1.1285 -0.9215
 2789TIP3    H232563   6.821   3.570  14.738 -2.2558  0.7309 -0.4813
 2790TIP3   OH232564   2.662   3.191  14.854  0.2745 -0.0397  0.6672
 2790TIP3    H132565   2.625   3.273  14.821  1.3608  0.3704  0.4550
 2790TIP3    H232566   2.698   3.148  14.777  1.2964  0.1232  1.0385
 2791TIP3   OH232567   0.369   6.633  14.448  0.4746 -0.2543  0.1788
 2791TIP3    H132568   0.314   6.706  14.421 -0.1841 -1.2886 -1.4613
 2791TIP3    H232569   0.437   6.628  14.381 -0.1055 -1.7542 -0.3388
 2792TIP3   OH232570   0.971   1.961  13.971  0.0955 -0.7596 -0.1387
 2792TIP3    H132571   1.011   2.007  13.898  1.9844  0.0410  1.2951
 2792TIP3    H232572   0.878   1.957  13.949  0.4262  0.4627 -2.0298
 2793TIP3   OH232573   5.971   1.560  14.832  0.2345  0.0577 -0.4658
 2793TIP3    H132574   5.940   1.471  14.818  1.5507 -0.5210  0.1446
 2793TIP3    H232575   6.066   1.555  14.821  0.3105  1.4526 -0.7387
 2794TIP3   OH232576   4.794   4.631  13.611  0.2143 -0.2307 -0.1908
 2794TIP3    H132577   4.809   4.537  13.620  1.2751 -0.1317 -0.8045
 2794TIP3    H232578   4.788   4.646  13.517  0.2476  0.3373 -0.1070
 2795TIP3   OH232579   3.600   7.980  14.299  0.4136  0.5851 -0.1995
 2795TIP3    H132580   3.592   8.036  14.376  0.0970  0.5704 -0.2205
 2795TIP3    H232581   3.587   8.039  14.225 -1.0295  0.3036 -0.1965
 2796TIP3   OH232582   5.761   6.573  15.079  0.5450 -0.2798 -0.0584
 2796TIP3    H132583   5.830   6.591  15.143  1.4367 -1.0071 -0.7877
 2796TIP3    H232584   5.806   6.528  15.007 -0.4209  0.5734 -1.2283
 2797TIP3   OH232585   7.352   0.892  13.661 -0.0021 -0.2250  0.1292
 2797TIP3    H132586   7.433   0.942  13.652  0.5561 -1.0515  0.4655
 2797TIP3    H232587   7.371   0.827  13.728 -0.6746 -0.9816 -0.3963
 2798TIP3   OH232588   4.322   7.155  14.771 -0.6483 -0.4388 -0.6707
 2798TIP3    H132589   4.288   7.066  14.771 -0.4569 -0.5134 -0.5966
 2798TIP3    H232590   4.385   7.156  14.843 -2.3693  0.4245  0.9041
 2799TIP3   OH232591   5.289   1.967  13.833  0.0571 -0.0400 -0.1568
 2799TIP3    H132592   5.287   1.966  13.737  0.2322  0.0003 -0.1606
 2799TIP3    H232593   5.268   1.877  13.858  1.1533 -0.3298 -0.2520
 2800TIP3   OH232594   5.314   2.700  13.779 -0.6086 -0.0984 -0.1487
 2800TIP3    H132595   5.267   2.653  13.847 -2.2665  0.6967 -0.6927
 2800TIP3    H232596   5.397   2.724  13.820 -0.9131 -0.9917  1.0593
 2801TIP3   OH232597   3.016   1.804  13.911 -0.2490 -0.0591 -0.2764
 2801TIP3    H132598   2.986   1.821  14.000 -0.0010 -1.4684  0.1069
 2801TIP3    H232599   3.082   1.871  13.894  0.5899 -0.5181  1.0804
 2802TIP3   OH232600   7.439   3.019  13.959 -0.1339  0.4336 -0.1779
 2802TIP3    H132601   7.380   2.970  13.901  1.1604  1.3332 -2.3685
 2802TIP3    H232602   7.526   2.991  13.934  0.5187  1.8279  0.4368
 2803TIP3   OH232603   4.383   2.494  15.049 -0.2027  0.2647  0.1308
 2803TIP3    H132604   4.340   2.571  15.013 -0.4170  1.3210  2.5350
 2803TIP3    H232605   4.366   2.497  15.143  0.0225 -2.5763  0.3538
 2804TIP3   OH232606   1.132   3.534  13.776  0.4555 -0.4682 -0.4531
 2804TIP3    H132607   1.172   3.621  13.780 -0.6071  0.0004  2.1975
 2804TIP3    H232608   1.060   3.544  13.713  1.6454 -0.0637 -1.7871
 2805TIP3   OH232609   1.204   5.220  14.353 -0.2101  0.7771 -0.3492
 2805TIP3    H132610   1.289   5.236  14.314 -0.0742  0.7283 -0.0744
 2805TIP3    H232611   1.163   5.154  14.296  1.1705 -1.5795  1.1952
 2806TIP3   OH232612   7.833   1.027  14.864  0.0245  0.0648  0.2421
 2806TIP3    H132613   7.884   0.985  14.933 -0.9604 -2.2344 -0.3183
 2806TIP3    H232614   7.888   1.023  14.786 -0.5033 -1.3359 -0.0848
 2807TIP3   OH232615   2.380   0.858  14.395  0.0117  0.2467  0.4311
 2807TIP3    H132616   2.397   0.864  14.300  0.0116  1.3687  0.4895
 2807TIP3    H232617   2.441   0.921  14.433 -0.6237  0.4611  1.1023
 2808TIP3   OH232618   5.616   5.977  14.970  0.5423 -0.3764  0.1482
 2808TIP3    H132619   5.580   6.049  15.023  1.1550 -0.4818  0.7216
 2808TIP3    H232620   5.670   6.019  14.904 -0.9763 -0.1827 -1.0349
 2809TIP3   OH232621   6.908   5.939  13.527  0.4035 -0.0145  0.5438
 2809TIP3    H132622   6.942   5.950  13.616  0.5028 -1.8167  0.7655
 2809TIP3    H232623   6.947   6.010  13.477  0.7248  0.7442  1.8393
 2810TIP3   OH232624   3.923   1.420  13.620  0.3316 -0.6140  0.1873
 2810TIP3    H132625   4.003   1.468  13.601  0.9855 -2.3861 -1.9979
 2810TIP3    H232626   3.855   1.463  13.567 -0.2764  0.9897  2.1635
 2811TIP3   OH232627   4.759   5.017  14.186 -0.1671  0.4550 -0.1568
 2811TIP3    H132628   4.742   5.008  14.279 -1.1485 -0.0799 -0.3735
 2811TIP3    H232629   4.778   4.929  14.156  0.8218  0.7224 -0.3481
 2812TIP3   OH232630   7.010   8.241  14.783  0.2940  0.0061  0.3044
 2812TIP3    H132631   6.933   8.274  14.736  0.9980  1.5953  0.2114
 2812TIP3    H232632   7.005   8.146  14.773 -0.5538  0.1938 -1.4419
 2813TIP3   OH232633   1.501   6.509  14.742 -0.4042  0.0652 -0.1505
 2813TIP3    H132634   1.545   6.519  14.826 -0.1067  0.9991 -0.3975
 2813TIP3    H232635   1.514   6.417  14.718  0.8659  0.1561  0.0935
 2814TIP3   OH232636   6.589   1.834  13.584 -0.3584  0.6629 -0.3739
 2814TIP3    H132637   6.520   1.831  13.517 -0.3429 -1.2054 -0.3709
 2814TIP3    H232638   6.663   1.876  13.540 -0.1003 -1.1927 -1.8451
 2815TIP3   OH232639   1.964   3.172  14.238  0.1721 -0.1788 -0.0788
 2815TIP3    H132640   1.908   3.095  14.246  1.2172 -1.0434 -0.8220
 2815TIP3    H232641   1.948   3.205  14.150  0.3314 -0.0383 -0.0564
 2816TIP3   OH232642   5.763   4.382  14.610 -0.0496 -0.1213  0.1096
 2816TIP3    H132643   5.780   4.346  14.697 -1.4075 -1.5254 -0.1530
 2816TIP3    H232644   5.814   4.463  14.606 -0.5757  0.3876  2.5051
 2817TIP3   OH232645   7.537   7.181  14.342 -0.2827 -0.8734 -0.1717
 2817TIP3    H132646   7.592   7.245  14.297  0.1329 -0.9422  0.2348
 2817TIP3    H232647   7.447   7.203  14.315 -0.5185  1.9018  2.3811
 2818TIP3   OH232648   0.322   3.981  14.860 -0.4327 -0.7278  0.0597
 2818TIP3    H132649   0.270   4.061  14.869  1.2839  0.5627 -0.8286
 2818TIP3    H232650   0.366   3.971  14.944  0.6532  0.2649 -0.3657
 2819TIP3   OH232651   1.743   1.570  13.005  0.4060 -0.2049 -0.2193
 2819TIP3    H132652   1.709   1.515  12.934  1.3026  0.1118 -0.9158
 2819TIP3    H232653   1.717   1.524  13.085 -1.2028 -0.2313 -0.7121
 2820TIP3   OH232654   6.049   0.855  13.293  0.5778  0.3414  0.3531
 2820TIP3    H132655   5.962   0.887  13.317  0.3035 -0.7789  0.9334
 2820TIP3    H232656   6.035   0.804  13.213  0.8007  0.6170  0.1343
 2821TIP3   OH232657   5.218   1.993  15.020  0.2531  0.0780  0.4035
 2821TIP3    H132658   5.197   2.086  15.011  2.0694  0.4242 -0.6891
 2821TIP3    H232659   5.310   1.992  15.045  0.1099 -1.4359  0.9335
 2822TIP3   OH232660   8.282   6.386  13.971 -0.0175  0.0433 -0.5757
 2822TIP3    H132661   8.191   6.416  13.967  0.1317  1.2925  2.7063
 2822TIP3    H232662   8.333   6.459  13.935 -0.1524  0.7528  0.6110
 2823TIP3   OH232663   1.933   2.071  14.454 -0.1922 -0.2705 -0.2401
 2823TIP3    H132664   1.937   1.979  14.479 -0.0025 -0.4831 -1.0414
 2823TIP3    H232665   1.841   2.085  14.430 -1.0268  0.5809  2.8957
 2824TIP3   OH232666   6.731   5.002  13.945  0.0984  0.1994  0.0080
 2824TIP3    H132667   6.705   4.985  13.854 -0.2398 -1.1770  0.3356
 2824TIP3    H232668   6.688   5.084  13.967  0.2907  0.6226 -1.1116
 2825TIP3   OH232669   5.327   1.108  14.006 -0.2381  0.2683  0.2067
 2825TIP3    H132670   5.250   1.162  13.991 -0.3732 -0.1018 -0.4621
 2825TIP3    H232671   5.397   1.152  13.960  0.4033  1.6161  2.3390
 2826TIP3   OH232672   2.874   4.020  14.329  0.4742  0.3848 -0.1361
 2826TIP3    H132673   2.791   4.032  14.283  0.2456 -1.0800 -0.1702
 2826TIP3    H232674   2.852   3.963  14.403  1.5280 -0.4477 -0.4437
 2827TIP3   OH232675   0.917   3.094  15.058 -0.2470  0.5921 -0.3624
 2827TIP3    H132676   0.928   3.011  15.012  1.2492  0.0013  0.9634
 2827TIP3    H232677   0.898   3.069  15.149 -2.5421  1.7267 -0.4548
 2828TIP3   OH232678   3.381   6.594  14.141  0.1828  0.0588  0.3844
 2828TIP3    H132679   3.358   6.522  14.200  0.2253 -1.9165 -1.8602
 2828TIP3    H232680   3.302   6.608  14.089  0.1792  1.7037  0.7801
 2829TIP3   OH232681   4.579   0.588  13.230 -0.7917  0.5329 -0.4547
 2829TIP3    H132682   4.667   0.559  13.251  0.7446  3.2119 -2.4918
 2829TIP3    H232683   4.552   0.532  13.156 -0.3385  0.4075 -0.5283
 2830TIP3   OH232684   8.125   6.709  14.491 -0.2486 -0.0327  0.5606
 2830TIP3    H132685   8.109   6.794  14.449 -0.0206 -0.0684  0.4026
 2830TIP3    H232686   8.183   6.729  14.565  1.7767 -0.3604 -0.8599
 2831TIP3   OH232687   1.581   2.252  15.030 -0.1152 -0.6145 -0.3075
 2831TIP3    H132688   1.524   2.304  14.973  0.6754  1.6781  0.8551
 2831TIP3    H232689   1.535   2.169  15.040 -2.3432  0.4658 -0.8900
 2832TIP3   OH232690   7.418   5.292  15.291 -0.0394 -0.3052 -0.3340
 2832TIP3    H132691   7.453   5.207  15.319  0.0316 -0.4091 -0.7298
 2832TIP3    H232692   7.465   5.312  15.211 -0.0430  0.1213 -0.2318
 2833TIP3   OH232693   5.511   1.099  14.958  0.6544  0.0863 -0.1656
 2833TIP3    H132694   5.488   1.017  14.915 -0.3372  0.9964 -1.4246
 2833TIP3    H232695   5.530   1.074  15.049 -0.6445 -1.3793 -0.2610
 2834TIP3   OH232696   1.505   7.100  14.125  0.9384  1.0468  0.2762
 2834TIP3    H132697   1.475   7.176  14.173  0.3754 -0.0998  1.8136
 2834TIP3    H232698   1.426   7.047  14.110  1.4785  0.2183  0.2563
 2835TIP3   OH232699   6.702   6.452  15.294 -0.4065 -0.6028 -1.0300
 2835TIP3    H132700   6.693   6.417  15.383  0.9074 -2.4909 -1.5698
 2835TIP3    H232701   6.645   6.396  15.241 -1.0551  0.4084 -1.4219
 2836TIP3   OH232702   7.827   1.734  14.321  0.4635  0.4833  0.2943
 2836TIP3    H132703   7.761   1.786  14.367  0.6011 -0.9049  2.1716
 2836TIP3    H232704   7.909   1.779  14.339  0.3189  0.8848 -0.0339
 2837TIP3   OH232705   3.251   6.741  13.876  0.2686  0.6021  0.0830
 2837TIP3    H132706   3.206   6.807  13.927 -1.2738 -0.2758 -0.0761
 2837TIP3    H232707   3.341   6.773  13.869 -0.2518  2.2888  0.6341
 2838TIP3   OH232708   7.322   4.524  12.923  0.1625  0.3273  0.4280
 2838TIP3    H132709   7.241   4.521  12.973 -0.2056  2.2790  0.0392
 2838TIP3    H232710   7.299   4.572  12.843  1.4081 -0.1973 -0.2842
 2839TIP3   OH232711   8.338   0.202  14.001 -0.0835 -0.6162 -0.0294
 2839TIP3    H132712   8.406   0.268  13.988 -0.7875  0.5649  1.8473
 2839TIP3    H232713   8.385   0.125  14.032  0.6646 -0.8150 -1.5314
 2840TIP3   OH232714   2.374   5.864  15.145  0.1161 -0.2691  0.4664
 2840TIP3    H132715   2.301   5.923  15.124  0.1307 -0.7463 -1.0022
 2840TIP3    H232716   2.442   5.887  15.082  1.1098 -0.1112  1.5604
 2841TIP3   OH232717   3.075   6.685  13.079  0.9162  0.2087  0.0444
 2841TIP3    H132718   3.082   6.594  13.049  1.4986  0.0937  0.5189
 2841TIP3    H232719   2.981   6.701  13.084  0.7958 -0.6064  0.6352
 2842TIP3   OH232720   6.481   2.484  14.726 -1.0520  0.6518  0.0229
 2842TIP3    H132721   6.463   2.491  14.820 -1.4306  1.0754 -0.0790
 2842TIP3    H232722   6.570   2.449  14.721 -0.5304  1.8563  0.5387
 2843TIP3   OH232723   2.113   2.733  14.178  0.0534 -0.0488  0.6513
 2843TIP3    H132724   2.049   2.729  14.106  0.7921 -0.7692  0.0117
 2843TIP3    H232725   2.181   2.793  14.147  0.7351 -0.9143  0.4189
 2844TIP3   OH232726   0.372   1.006  14.635 -0.2987  0.6239  0.1729
 2844TIP3    H132727   0.403   0.978  14.549 -0.2367  1.0636  0.0486
 2844TIP3    H232728   0.334   0.928  14.674 -0.8773  0.5652 -0.5002
 2845TIP3   OH232729   7.270   4.804  13.699 -0.6904 -0.3770  0.6918
 2845TIP3    H132730   7.241   4.891  13.726 -1.9470 -0.2716 -0.8698
 2845TIP3    H232731   7.346   4.786  13.755 -0.8983  1.3625  1.6089
 2846TIP3   OH232732   0.046   0.240  13.713 -0.0143 -0.1369  0.1913
 2846TIP3    H132733   0.069   0.316  13.766  1.4684 -0.3343 -0.1137
 2846TIP3    H232734   0.062   0.165  13.770 -1.2279 -0.2493  0.4084
 2847TIP3   OH232735   7.642   5.918  14.840 -0.0895  0.2247  0.0227
 2847TIP3    H132736   7.635   5.938  14.933 -3.0611  0.3250 -0.1245
 2847TIP3    H232737   7.646   6.003  14.797  2.5612  0.1854  0.0231
 2848TIP3   OH232738   5.320   4.840  13.647 -0.0243 -0.1352  0.3458
 2848TIP3    H132739   5.356   4.873  13.729 -0.3964 -0.7486  0.7637
 2848TIP3    H232740   5.373   4.763  13.627  0.2912  0.2139 -0.1783
 2849TIP3   OH232741   6.082   7.870  13.920  0.0202  0.7292 -0.1335
 2849TIP3    H132742   6.003   7.827  13.953 -0.6224  1.1465 -1.0481
 2849TIP3    H232743   6.052   7.957  13.893  0.9723  1.1931  0.2629
 2850TIP3   OH232744   6.416   0.896  15.056  0.2994 -0.2555  0.0672
 2850TIP3    H132745   6.426   0.808  15.093 -2.4136  0.6590  3.4944
 2850TIP3    H232746   6.327   0.896  15.019  0.4713  0.9205 -0.3826
 2851TIP3   OH232747   0.192   3.134  14.137 -0.0486  0.3131  0.0505
 2851TIP3    H132748   0.175   3.064  14.199  0.5884 -0.3427 -0.4964
 2851TIP3    H232749   0.131   3.118  14.065 -0.3391  0.6973  0.2056
 2852TIP3   OH232750   4.346   6.243  14.051  0.7290 -0.0129  0.1189
 2852TIP3    H132751   4.253   6.247  14.070  0.6069 -0.5020 -0.3654
 2852TIP3    H232752   4.354   6.270  13.960  1.3975  3.1432  0.9847
 2853TIP3   OH232753   6.854   6.075  15.424  0.1527  0.0788  0.0299
 2853TIP3    H132754   6.861   6.059  15.518 -1.1467 -1.0241 -0.0258
 2853TIP3    H232755   6.760   6.077  15.407  0.3705  0.3895 -1.2384
 2854TIP3   OH232756   3.920   3.902  13.886 -0.2444 -0.5535 -0.2048
 2854TIP3    H132757   3.922   3.911  13.982 -0.6159 -2.5290  0.0240
 2854TIP3    H232758   3.849   3.841  13.869  1.1046 -1.8334 -1.5868
 2855TIP3   OH232759   6.595   4.006  13.104  0.3985 -0.1877  0.1011
 2855TIP3    H132760   6.615   3.913  13.099 -0.5728 -0.7349  3.5124
 2855TIP3    H232761   6.649   4.038  13.177  0.2852  1.8057 -0.6212
 2856TIP3   OH232762   7.125   1.893  14.992 -0.0596  0.7366  0.0033
 2856TIP3    H132763   7.117   1.798  14.982 -1.0863  0.5958  1.6633
 2856TIP3    H232764   7.100   1.909  15.083  1.1585  2.4978  0.0759
 2857TIP3   OH232765   1.318   5.910  13.831  0.3732  0.1693 -0.0414
 2857TIP3    H132766   1.256   5.974  13.864  1.1167  1.4674 -1.0696
 2857TIP3    H232767   1.376   5.891  13.905  0.0422  0.5496  0.3180
 2858TIP3   OH232768   3.583   7.699  14.186  0.0226 -0.0766  0.0143
 2858TIP3    H132769   3.648   7.639  14.223  1.5845  0.6522 -1.4070
 2858TIP3    H232770   3.599   7.782  14.230 -0.4297 -0.0667  0.1637
 2859TIP3   OH232771   1.296   1.409  14.764 -0.6219 -0.0702  0.3323
 2859TIP3    H132772   1.243   1.341  14.721 -0.4788  0.0934 -0.1139
 2859TIP3    H232773   1.232   1.475  14.791 -0.6970 -0.0946  0.2162
 2860TIP3   OH232774   4.242   4.130  13.773  0.4419  0.3641 -0.3948
 2860TIP3    H132775   4.315   4.176  13.732  0.6797  0.5266  0.1926
 2860TIP3    H232776   4.278   4.045  13.797  0.8006  0.8895  0.9949
 2861TIP3   OH232777   2.802   2.109  14.062 -0.2613 -0.2268  0.4705
 2861TIP3    H132778   2.717   2.125  14.103 -0.3360 -1.5465  0.8781
 2861TIP3    H232779   2.865   2.116  14.134 -0.2933 -1.5785  0.6654
 2862TIP3   OH232780   1.612   0.616  13.766  0.5596 -0.3698 -0.4729
 2862TIP3    H132781   1.567   0.690  13.726 -0.1769  0.4986  1.7657
 2862TIP3    H232782   1.580   0.540  13.719  0.8392  0.6459 -2.4139
 2863TIP3   OH232783   1.773   1.035  13.914 -0.1574 -0.0817  0.5575
 2863TIP3    H132784   1.855   1.084  13.926 -0.9085  0.9555  1.8021
 2863TIP3    H232785   1.736   1.030  14.002 -0.9415 -1.4369  0.1662
 2864TIP3   OH232786   3.022   4.795  12.585  0.2208  0.3660  0.3774
 2864TIP3    H132787   2.974   4.859  12.639  0.1030  0.6774 -0.0890
 2864TIP3    H232788   3.025   4.716  12.638 -0.7133  0.3790  0.4651
 2865TIP3   OH232789   5.918   7.719  13.092  0.5219  0.3672  0.0231
 2865TIP3    H132790   5.933   7.751  13.003  0.6929  1.5120  0.4353
 2865TIP3    H232791   5.827   7.740  13.110  0.7026  0.8689  0.3853
 2866TIP3   OH232792   6.220   8.296  14.435 -0.0694  0.3641  0.6163
 2866TIP3    H132793   6.212   8.379  14.481  0.4428  1.2556 -0.8554
 2866TIP3    H232794   6.133   8.281  14.397  0.4327  1.3758 -0.9867
 2867TIP3   OH232795   8.097   3.662  13.137  0.5170  0.1613  0.2676
 2867TIP3    H132796   8.187   3.672  13.107 -0.0180  1.0011 -1.1582
 2867TIP3    H232797   8.054   3.613  13.068 -0.3642  0.6712  0.4410
 2868TIP3   OH232798   1.939   0.738  14.601 -0.0874  0.0956 -0.0163
 2868TIP3    H132799   1.963   0.651  14.569  0.2185 -0.1440  0.8532
 2868TIP3    H232800   2.010   0.795  14.571 -1.4380  0.5535 -2.7034
 2869TIP3   OH232801   3.586   3.019  14.939  0.2532 -0.7056  0.1546
 2869TIP3    H132802   3.633   3.090  14.896  0.4439 -0.4557  0.7617
 2869TIP3    H232803   3.654   2.968  14.983  0.2267 -1.8418 -1.0707
 2870TIP3   OH232804   3.536   1.494  14.982  0.0885  0.3818 -0.2214
 2870TIP3    H132805   3.444   1.491  15.009  0.2374  1.6741  0.5528
 2870TIP3    H232806   3.561   1.586  14.994  1.2558  0.2163 -1.1995
 2871TIP3   OH232807   7.862   3.785  14.278  0.3470 -0.4826 -0.1463
 2871TIP3    H132808   7.840   3.729  14.204  1.1933  0.2270 -0.9545
 2871TIP3    H232809   7.936   3.742  14.320  1.8837  0.6755 -1.5701
 2872TIP3   OH232810   7.114   5.495  15.014 -0.1015  0.5516  0.6830
 2872TIP3    H132811   7.073   5.426  15.067 -0.1008 -1.0335 -1.2520
 2872TIP3    H232812   7.053   5.509  14.942  1.2846  0.3818 -0.5751
 2873TIP3   OH232813   5.934   6.506  13.754 -0.6440  0.4138 -0.0300
 2873TIP3    H132814   6.006   6.468  13.704  0.2061  1.1142  0.6487
 2873TIP3    H232815   5.862   6.511  13.691  0.5884  1.8644 -1.4118
 2874TIP3   OH232816   7.180   7.521  14.368 -0.2165 -0.1440  0.3333
 2874TIP3    H132817   7.093   7.488  14.350 -0.2837  0.7396 -1.0976
 2874TIP3    H232818   7.239   7.453  14.335 -0.3381 -0.6160  1.0536
 2875TIP3   OH232819   3.860   0.950  14.447  0.2400 -0.5909  0.1508
 2875TIP3    H132820   3.895   0.929  14.534  0.9794  1.3802  0.3862
 2875TIP3    H232821   3.899   1.034  14.425  0.2637 -1.1422 -2.2275
 2876TIP3   OH232822   4.958   8.291  12.920 -0.6153  0.1613 -0.3751
 2876TIP3    H132823   5.002   8.228  12.863 -2.6187 -1.9890  0.2983
 2876TIP3    H232824   5.023   8.313  12.987  0.3483 -0.6670 -1.0184
 2877TIP3   OH232825   6.338   8.410  12.447 -0.0538 -0.1993  0.2544
 2877TIP3    H132826   6.261   8.363  12.480 -0.0921 -0.4039 -0.1221
 2877TIP3    H232827   6.377   8.350  12.383  0.4866 -0.1491  0.5292
 2878TIP3   OH232828   1.495   0.060  14.213 -0.1529  0.2235  0.0846
 2878TIP3    H132829   1.482   0.147  14.176 -0.2339  0.8950  1.5868
 2878TIP3    H232830   1.412   0.014  14.197 -0.1677  0.4672 -0.5670
 2879TIP3   OH232831   2.938   1.124  14.645  0.3478  0.3879  0.0050
 2879TIP3    H132832   3.033   1.128  14.652  0.3743 -1.0652  0.8985
 2879TIP3    H232833   2.922   1.061  14.574  0.0658  0.0633  0.3508
 2880TIP3   OH232834   6.533   6.717  13.708  0.0617  0.3944 -0.0546
 2880TIP3    H132835   6.527   6.637  13.655  1.3794 -0.6640  1.3029
 2880TIP3    H232836   6.475   6.700  13.783 -0.7617  1.3380 -0.4436
 2881TIP3   OH232837   6.251   5.020  13.017 -0.4974  0.4674 -0.0573
 2881TIP3    H132838   6.223   5.098  12.968 -2.3318 -0.2311 -0.2034
 2881TIP3    H232839   6.175   4.961  13.013 -0.2635 -0.1132  2.5574
 2882TIP3   OH232840   2.168   0.748  13.131 -0.2917  0.2083  0.6695
 2882TIP3    H132841   2.171   0.653  13.121 -0.4861  0.3944 -1.5766
 2882TIP3    H232842   2.211   0.782  13.053  2.0799  1.9896  2.6114
 2883TIP3   OH232843   1.156   7.654  14.524  0.4925 -0.5202 -0.6836
 2883TIP3    H132844   1.181   7.640  14.615 -0.9378 -0.1331 -0.2004
 2883TIP3    H232845   1.163   7.749  14.512  1.0323 -0.6095 -1.0930
 2884TIP3   OH232846   0.818   2.520  15.168  0.2263  0.3007  0.1522
 2884TIP3    H132847   0.787   2.478  15.088 -3.2360 -0.6030  1.7978
 2884TIP3    H232848   0.878   2.457  15.207 -0.1747 -0.4404 -0.4171
 2885TIP3   OH232849   1.300   0.771  13.880  0.0144 -0.4837  0.3080
 2885TIP3    H132850   1.286   0.848  13.826  0.3435 -1.0004 -0.5268
 2885TIP3    H232851   1.389   0.743  13.861  0.0644 -0.7964  0.9629
 2886TIP3   OH232852   6.806   4.886  13.257  0.1896  0.6079 -0.2193
 2886TIP3    H132853   6.853   4.954  13.209  2.2326  0.4305  1.3971
 2886TIP3    H232854   6.844   4.888  13.344 -2.3786 -0.0545  1.0122
 2887TIP3   OH232855   0.635   7.220  13.617 -0.3891  0.0421  0.3690
 2887TIP3    H132856   0.663   7.260  13.535  1.0399 -0.2292  0.6971
 2887TIP3    H232857   0.651   7.127  13.605  3.5900  0.2809  2.2219
 2888TIP3   OH232858   5.905   1.308  14.706  0.1134 -0.0410 -0.2638
 2888TIP3    H132859   5.848   1.266  14.642  0.0796  0.6153 -0.6714
 2888TIP3    H232860   5.850   1.321  14.783 -0.3939  0.8972 -0.7716
 2889TIP3   OH232861   6.294   7.012  14.487  0.1300  0.5293  0.2743
 2889TIP3    H132862   6.363   7.065  14.526  0.6867  0.7377 -0.9561
 2889TIP3    H232863   6.217   7.067  14.488 -0.6056 -0.3733  3.4649
 2890TIP3   OH232864   7.075   1.383  13.970  0.0768 -0.2064 -0.0597
 2890TIP3    H132865   7.129   1.326  14.025  0.3978 -0.8318 -0.9951
 2890TIP3    H232866   7.000   1.329  13.946  0.0717 -0.0309 -0.4461
 2891TIP3   OH232867   1.214   0.355  14.302 -0.3509 -0.3979 -0.3465
 2891TIP3    H132868   1.243   0.351  14.211 -0.0103 -0.7303 -0.2254
 2891TIP3    H232869   1.265   0.426  14.340 -1.1165  0.3153 -0.6302
 2892TIP3   OH232870   0.408   1.244  13.341 -0.1112  0.2045 -0.4214
 2892TIP3    H132871   0.356   1.323  13.354 -0.6709 -0.2537  0.1669
 2892TIP3    H232872   0.351   1.172  13.367  1.3977 -0.1973  2.1862
 2893TIP3   OH232873   6.597   0.558  14.710 -0.0708  0.2915  0.7979
 2893TIP3    H132874   6.657   0.622  14.672  0.9398 -1.1781 -0.1768
 2893TIP3    H232875   6.573   0.501  14.637 -0.4630 -0.7967  1.7365
 2894TIP3   OH232876   8.072   1.799  13.542  0.6720 -0.0985  0.1024
 2894TIP3    H132877   8.099   1.874  13.595  1.4632 -1.6438  2.0062
 2894TIP3    H232878   8.138   1.794  13.473  1.8071 -0.2328  1.1652
 2895TIP3   OH232879   2.136   6.474  13.122 -0.9257 -0.3071  0.0891
 2895TIP3    H132880   2.219   6.430  13.139 -0.7511 -0.2883 -0.6866
 2895TIP3    H232881   2.160   6.549  13.067 -1.6861 -1.4376 -1.8572
 2896TIP3   OH232882   7.168   5.033  13.785 -0.4377 -0.3401 -0.1158
 2896TIP3    H132883   7.144   5.107  13.729  2.6296  0.5837 -0.4178
 2896TIP3    H232884   7.247   5.063  13.831 -0.5332 -2.5641  1.6501
 2897TIP3   OH232885   5.591   4.287  14.136  0.2799  0.8554  0.0308
 2897TIP3    H132886   5.593   4.253  14.047 -1.7697 -1.4444  0.7477
 2897TIP3    H232887   5.625   4.376  14.129  3.0834 -0.2401 -2.5167
 2898TIP3   OH232888   2.717   0.907  13.270  0.6246  0.3463 -0.1582
 2898TIP3    H132889   2.719   0.841  13.340 -0.5895 -0.9835 -1.3149
 2898TIP3    H232890   2.769   0.869  13.200  0.6492  1.0316 -0.5159
 2899TIP3   OH232891   0.930   3.578  14.740  0.1675  0.1323 -0.2522
 2899TIP3    H132892   0.980   3.524  14.679 -0.6651 -1.2879  0.2662
 2899TIP3    H232893   0.988   3.590  14.815  0.0563 -0.8296  0.0049
 2900TIP3   OH232894   8.263   1.842  15.076 -0.4868  0.6684 -0.1050
 2900TIP3    H132895   8.349   1.828  15.117 -0.7120  0.9553  0.4738
 2900TIP3    H232896   8.275   1.812  14.986 -0.0758 -0.3062  0.2576
 2901TIP3   OH232897   1.552   8.239  14.912 -0.5562  0.0511  0.2257
 2901TIP3    H132898   1.494   8.315  14.904 -1.0446 -0.2681  0.6467
 2901TIP3    H232899   1.614   8.264  14.980 -1.1219 -0.1672  0.8364
 2902TIP3   OH232900   2.409   2.810  13.548 -0.1968 -0.3727 -0.6534
 2902TIP3    H132901   2.437   2.850  13.466  0.7954  0.5648  0.1213
 2902TIP3    H232902   2.480   2.751  13.572  1.6972  2.4941  1.6499
 2903TIP3   OH232903   3.200   5.864  13.796 -0.7615  0.0735  0.6625
 2903TIP3    H132904   3.233   5.954  13.802 -3.4467  1.0641  2.0483
 2903TIP3    H232905   3.142   5.865  13.721 -0.1437 -0.7873  0.1541
 2904TIP3   OH232906   1.711   4.855  13.137  0.4191 -0.1768 -0.1559
 2904TIP3    H132907   1.794   4.814  13.112  0.3270 -0.7466  0.4397
 2904TIP3    H232908   1.666   4.788  13.189 -0.0753  0.4120  0.1894
 2905TIP3   OH232909   7.430   2.371  12.869  0.0370 -0.2235 -0.0880
 2905TIP3    H132910   7.361   2.309  12.844 -0.2585 -1.0785  2.5100
 2905TIP3    H232911   7.508   2.341  12.823 -0.6930 -0.9500 -0.8885
 2906TIP3   OH232912   5.982   4.544  13.803  0.0970  0.1354  0.1550
 2906TIP3    H132913   6.067   4.587  13.807  0.1785  0.0681 -0.7606
 2906TIP3    H232914   5.977   4.493  13.884  1.2445 -0.4479 -0.1274
 2907TIP3   OH232915   7.741   3.774  14.792  0.2614  0.8674 -0.7222
 2907TIP3    H132916   7.728   3.802  14.701  2.5127  1.4600 -0.9055
 2907TIP3    H232917   7.745   3.678  14.787  0.5845  0.9065 -1.2787
 2908TIP3   OH232918   8.348   3.123  14.289  0.5240 -0.1845 -0.1296
 2908TIP3    H132919   8.369   3.216  14.299 -2.5048  0.3923  2.3625
 2908TIP3    H232920   8.371   3.084  14.373  0.1433 -1.3397 -0.5388
 2909TIP3   OH232921   3.290   4.857  13.016  0.1543  0.7684  0.8157
 2909TIP3    H132922   3.239   4.777  13.030  1.4086 -0.0339  0.9218
 2909TIP3    H232923   3.354   4.858  13.088 -0.0068  2.0134  0.9716
 2910TIP3   OH232924   0.319   5.181  14.104  0.1058  0.2196  0.4179
 2910TIP3    H132925   0.386   5.214  14.164  1.0642 -0.4396 -0.2503
 2910TIP3    H232926   0.366   5.121  14.046 -1.0804 -0.2986 -0.0481
 2911TIP3   OH232927   3.030   6.431  12.988  0.0695 -0.1867  0.0944
 2911TIP3    H132928   2.940   6.406  12.967 -0.7642 -1.4989  4.3165
 2911TIP3    H232929   3.081   6.352  12.973  0.4681  0.3536 -1.6084
 2912TIP3   OH232930   2.704   7.316  14.209  0.1704  0.2588 -0.3848
 2912TIP3    H132931   2.723   7.410  14.209  0.9857  0.1707  2.2739
 2912TIP3    H232932   2.621   7.308  14.163  0.4129  2.1764 -1.2512
 2913TIP3   OH232933   4.492   1.539  14.863 -0.0749 -0.5913  0.0140
 2913TIP3    H132934   4.397   1.527  14.870 -0.4085  1.3465 -0.5729
 2913TIP3    H232935   4.519   1.476  14.796 -0.5091 -2.8231  1.7769
 2914TIP3   OH232936   7.282   2.681  14.012  0.2489  0.4405  0.0999
 2914TIP3    H132937   7.293   2.739  13.937 -0.5522  0.9747  0.3852
 2914TIP3    H232938   7.280   2.593  13.974 -3.0220  0.8334 -0.8889
 2915TIP3   OH232939   2.764   7.647  15.075 -0.1131 -0.2656 -0.3813
 2915TIP3    H132940   2.680   7.601  15.072  0.8029 -1.9987 -0.5845
 2915TIP3    H232941   2.743   7.733  15.111 -1.8858 -0.8547  0.0732
 2916TIP3   OH232942   7.490   3.100  14.783  0.0264  0.1155  0.3553
 2916TIP3    H132943   7.452   3.020  14.819 -0.1494  0.5483  1.1673
 2916TIP3    H232944   7.434   3.170  14.818 -0.4277  0.5289 -1.1458
 2917TIP3   OH232945   3.824   8.146  13.573 -0.0502 -0.1570 -0.2615
 2917TIP3    H132946   3.811   8.077  13.508 -2.9472 -1.2053  1.2667
 2917TIP3    H232947   3.792   8.109  13.655 -0.2040  2.4507  0.9661
 2918TIP3   OH232948   5.401   6.752  13.293 -0.2916  0.4594  0.3314
 2918TIP3    H132949   5.410   6.658  13.280  1.1472  0.6458 -0.1639
 2918TIP3    H232950   5.467   6.774  13.358 -0.6039  1.1321  0.4310
 2919TIP3   OH232951   7.117   8.338  13.643  0.0813 -0.3274 -0.7485
 2919TIP3    H132952   7.181   8.284  13.596 -0.6563 -0.8357 -1.1830
 2919TIP3    H232953   7.099   8.288  13.723 -0.8239 -0.8846 -1.2892
 2920TIP3   OH232954   3.554   7.228  14.044 -0.2029  0.8340 -0.4828
 2920TIP3    H132955   3.492   7.156  14.058 -0.1076  0.9321  0.5079
 2920TIP3    H232956   3.517   7.301  14.094 -0.2977  1.4870 -1.4794
 2921TIP3   OH232957   3.339   1.564  14.218 -0.0708  0.3589 -0.5233
 2921TIP3    H132958   3.310   1.558  14.126  2.1270  0.2513 -1.2591
 2921TIP3    H232959   3.356   1.657  14.231  3.0548  0.0087 -1.4310
 2922TIP3   OH232960   1.019   6.557  14.404 -0.3708 -0.3212 -0.2585
 2922TIP3    H132961   1.105   6.518  14.391  0.3044  1.2622 -0.7852
 2922TIP3    H232962   0.973   6.545  14.321  0.0332  0.4297 -0.6022
 2923TIP3   OH232963   7.465   4.218  13.609  0.2342  0.1705  0.2707
 2923TIP3    H132964   7.415   4.252  13.683 -1.4881 -0.0454 -0.7454
 2923TIP3    H232965   7.485   4.128  13.632 -0.9718 -0.1352  0.1621
 2924TIP3   OH232966   3.171   6.673  13.624  0.1200 -0.1484  0.3764
 2924TIP3    H132967   3.213   6.693  13.708  1.6477 -1.6068  0.0103
 2924TIP3    H232968   3.125   6.754  13.600  2.2997  1.3648  1.0656
 2925TIP3   OH232969   2.053   6.263  13.981 -0.0168 -0.1514 -0.2843
 2925TIP3    H132970   2.010   6.192  14.029  0.3030  0.5892  1.1406
 2925TIP3    H232971   2.147   6.249  13.996 -0.0108  1.8314  1.9364
 2926TIP3   OH232972   0.526   1.925  12.993  0.0312 -0.0399 -0.2548
 2926TIP3    H132973   0.484   1.854  12.945  1.4656 -0.0757 -1.5353
 2926TIP3    H232974   0.572   1.975  12.926 -0.6793  1.9517  0.6475
 2927TIP3   OH232975   5.247   3.701  13.593 -0.1102 -0.0493  0.0630
 2927TIP3    H132976   5.272   3.775  13.538 -1.5158 -0.8839 -1.8144
 2927TIP3    H232977   5.227   3.630  13.531 -2.4777 -0.8259  1.5895
 2928TIP3   OH232978   7.820   1.456  14.354 -0.4296 -0.1132 -0.8405
 2928TIP3    H132979   7.817   1.552  14.357  0.3697 -0.0690  2.1957
 2928TIP3    H232980   7.730   1.429  14.370 -0.5026  0.1619 -0.7816
 2929TIP3   OH232981   7.103   7.475  13.989 -0.2314 -0.4572  0.0668
 2929TIP3    H132982   7.143   7.391  13.965 -1.5626 -0.8796 -0.7775
 2929TIP3    H232983   7.125   7.534  13.917  2.7978  0.7440  1.7391
 2930TIP3   OH232984   5.815   4.921  13.375  0.5551 -0.2769  0.7291
 2930TIP3    H132985   5.786   4.861  13.307  1.9953 -1.6600  1.2596
 2930TIP3    H232986   5.734   4.955  13.413 -0.4288 -3.0170  1.3752
 2931TIP3   OH232987   8.197   7.664  13.667  0.3497  0.2023  0.9307
 2931TIP3    H132988   8.108   7.643  13.696 -0.4294  2.2013  0.1501
 2931TIP3    H232989   8.250   7.591  13.699 -2.0409 -2.8760 -1.4378
 2932TIP3   OH232990   0.337   6.619  15.028  0.1211 -0.1036  0.0774
 2932TIP3    H132991   0.318   6.530  15.059 -1.4129 -0.2216 -1.0809
 2932TIP3    H232992   0.257   6.668  15.046  0.3833  0.6347 -0.7324
 2933TIP3   OH232993   3.336   7.893  14.009  0.3715  0.0364 -0.3995
 2933TIP3    H132994   3.416   7.939  14.036  0.2814 -0.6988  1.1650
 2933TIP3    H232995   3.363   7.843  13.932  1.4384 -0.2458  0.1408
 2934TIP3   OH232996   5.505   2.278  13.642 -0.3033  0.4040 -0.2566
 2934TIP3    H132997   5.442   2.344  13.612 -1.2180 -0.8180 -1.1304
 2934TIP3    H232998   5.481   2.262  13.733 -1.0538  0.1886 -0.4865
 2935TIP3   OH232999   6.320   3.286  12.748 -0.0984  0.0515 -0.6560
 2935TIP3    H133000   6.350   3.196  12.745  0.7040  0.2622  0.4077
 2935TIP3    H233001   6.225   3.280  12.759  0.0441 -0.6763  0.2280
 2936TIP3   OH233002   7.901   3.084  15.043 -0.2534  0.0405 -0.1496
 2936TIP3    H133003   7.827   3.023  15.038 -1.2250  1.2722 -1.8575
 2936TIP3    H233004   7.921   3.106  14.952  0.3530  1.9188  0.3846
 2937TIP3   OH233005   3.588   7.019  14.804 -0.2001  0.1577 -0.3934
 2937TIP3    H133006   3.526   7.086  14.773 -0.0928  0.2471 -0.4162
 2937TIP3    H233007   3.637   7.063  14.873 -0.9569 -0.2791  0.4353
 2938TIP3   OH233008   2.758   1.100  15.150 -0.0477 -0.1134  0.2447
 2938TIP3    H133009   2.808   1.100  15.069 -0.0142 -0.4818  0.2642
 2938TIP3    H233010   2.764   1.010  15.182  0.7543  0.2446  1.1570
 2939TIP3   OH233011   5.798   6.147  14.799  0.6643 -0.2191  0.3011
 2939TIP3    H133012   5.826   6.210  14.865 -0.0720  0.2587  0.1681
 2939TIP3    H233013   5.765   6.201  14.726 -0.2063 -0.7417  0.2904
 2940TIP3   OH233014   3.679   1.898  13.146  0.5329 -0.3761  0.2331
 2940TIP3    H133015   3.736   1.885  13.071 -1.4862  1.1645 -1.6667
 2940TIP3    H233016   3.677   1.812  13.190  2.4582 -1.0507 -0.9143
 2941TIP3   OH233017   3.812   6.854  15.091 -0.0744 -0.2209  0.3283
 2941TIP3    H133018   3.814   6.763  15.065  4.0813 -0.0152 -0.8778
 2941TIP3    H233019   3.809   6.903  15.009  1.2487  0.6068  0.7330
 2942TIP3   OH233020   7.138   5.573  14.110  0.4446  0.0919 -0.0190
 2942TIP3    H133021   7.128   5.667  14.127  1.4496  0.3123 -0.5885
 2942TIP3    H233022   7.221   5.565  14.065 -0.0706 -0.9811 -0.8337
 2943TIP3   OH233023   1.260   7.569  14.270 -0.2777 -0.2858  0.2009
 2943TIP3    H133024   1.219   7.584  14.355 -1.7911  0.1412 -0.5515
 2943TIP3    H233025   1.192   7.592  14.207  0.9660 -0.1123 -1.1363
 2944TIP3   OH233026   4.800   0.510  13.853  0.4473 -0.4458  0.7924
 2944TIP3    H133027   4.768   0.549  13.772  2.5979  2.4792  1.1726
 2944TIP3    H233028   4.732   0.528  13.917  0.2244  0.3315  0.3494
 2945TIP3   OH233029   4.352   2.724  13.591  0.4645 -0.5119  0.7240
 2945TIP3    H133030   4.340   2.697  13.500 -3.1893 -1.1661  1.2621
 2945TIP3    H233031   4.428   2.782  13.588  0.5007 -0.4985 -2.7177
 2946TIP3   OH233032   2.715   2.068  14.777 -0.8812  0.4669 -0.2279
 2946TIP3    H133033   2.648   2.136  14.780  0.9709  2.4143  3.4590
 2946TIP3    H233034   2.696   2.012  14.852 -0.4038 -1.1617 -1.2659
 2947TIP3   OH233035   1.911   7.568  13.624  0.1627  0.3149 -0.2831
 2947TIP3    H133036   2.001   7.577  13.591  0.1506  2.4894  0.1341
 2947TIP3    H233037   1.880   7.658  13.634 -1.6423 -0.3718  0.7696
 2948TIP3   OH233038   4.788   3.154  13.515  0.2211  0.0717  0.0528
 2948TIP3    H133039   4.871   3.201  13.518  0.1526  0.1735  0.4242
 2948TIP3    H233040   4.799   3.089  13.445  0.4422  0.4004 -0.2180
 2949TIP3   OH233041   4.647   7.250  14.025  0.2199  0.0650  0.3192
 2949TIP3    H133042   4.556   7.247  13.995 -0.1349 -3.0634  1.4059
 2949TIP3    H233043   4.677   7.337  13.998 -2.9080  1.0467 -0.4964
 2950TIP3   OH233044   8.438   6.857  14.545 -0.8016 -0.0105  0.3449
 2950TIP3    H133045   8.446   6.787  14.609 -0.7050  0.2039  0.5686
 2950TIP3    H233046   8.434   6.812  14.461  0.0608 -0.2502  0.4253
 2951TIP3   OH233047   6.432   7.847  14.688  0.0036 -0.1947 -0.6386
 2951TIP3    H133048   6.514   7.889  14.663  0.1341  0.1422  0.3330
 2951TIP3    H233049   6.369   7.877  14.623  0.2721  0.8913 -0.4141
 2952TIP3   OH233050   0.295   5.401  13.657 -0.1808  0.0128 -0.1467
 2952TIP3    H133051   0.382   5.441  13.652 -0.5967  0.7676 -1.7637
 2952TIP3    H233052   0.296   5.331  13.592 -0.4727 -0.6663  0.5500
 2953TIP3   OH233053   0.875   7.833  13.508  0.2859  0.4144 -0.4040
 2953TIP3    H133054   0.932   7.888  13.561  0.7217 -0.4743  0.0775
 2953TIP3    H233055   0.933   7.796  13.442  0.5452 -1.3670  0.7539
 2954TIP3   OH233056   0.201   2.528  15.473 -0.6078  0.1233  0.3644
 2954TIP3    H133057   0.184   2.584  15.398  1.6257  0.1535 -0.1946
 2954TIP3    H233058   0.158   2.572  15.547 -2.4931  0.2970 -0.7765
 2955TIP3   OH233059   7.924   8.241  14.062  0.2110 -0.1372 -0.0680
 2955TIP3    H133060   7.882   8.160  14.092  0.6365 -0.4602 -0.3333
 2955TIP3    H233061   8.003   8.247  14.114  0.2330  0.0556 -0.1237
 2956TIP3   OH233062   0.316   3.149  13.546 -0.5018 -0.0371 -0.1213
 2956TIP3    H133063   0.299   3.243  13.558  0.8741  0.1042  0.9488
 2956TIP3    H233064   0.361   3.144  13.462 -0.5389  0.2702 -0.1618
 2957TIP3   OH233065   7.289   7.007  13.531  0.6416 -0.1170 -0.5636
 2957TIP3    H133066   7.367   7.054  13.501  1.8700 -1.5564  0.2794
 2957TIP3    H233067   7.300   6.918  13.499 -1.4886  0.0097 -1.8389
 2958TIP3   OH233068   3.263   3.885  12.859  0.1846  0.0254  0.0865
 2958TIP3    H133069   3.202   3.838  12.802  0.9151  0.8445 -1.4271
 2958TIP3    H233070   3.318   3.817  12.897 -0.2198 -0.5239 -0.3042
 2959TIP3   OH233071   0.128   4.493  15.061  0.0414 -0.5119 -0.1569
 2959TIP3    H133072   0.071   4.562  15.027  0.0588 -0.7444 -0.6661
 2959TIP3    H233073   0.069   4.434  15.108 -0.3237 -1.3729 -1.6637
 2960TIP3   OH233074   1.192   2.465  15.063 -0.0277 -0.2410 -0.8462
 2960TIP3    H133075   1.114   2.415  15.042  0.5768 -1.0381 -1.2810
 2960TIP3    H233076   1.220   2.432  15.149 -0.7299  0.7685 -0.2179
 2961TIP3   OH233077   6.633   7.926  14.978  0.0431 -0.1385  0.0533
 2961TIP3    H133078   6.542   7.897  14.967  0.2310 -2.6770  3.4032
 2961TIP3    H233079   6.684   7.844  14.978  2.5064  1.2395 -2.3348
 2962TIP3   OH233080   5.611   4.906  14.519  0.1944 -0.0240 -0.4774
 2962TIP3    H133081   5.608   4.821  14.562  0.4083  1.0251  1.7227
 2962TIP3    H233082   5.620   4.969  14.590 -0.7419  1.9136 -1.9818
 2963TIP3   OH233083   1.373   7.536  13.506  0.0982 -0.4050  0.5032
 2963TIP3    H133084   1.429   7.578  13.572 -0.2949 -1.2812  1.4133
 2963TIP3    H233085   1.365   7.602  13.437  0.5156  0.5406  1.3257
 2964TIP3   OH233086   1.772   0.532  15.158  0.5374 -0.4636 -0.0047
 2964TIP3    H133087   1.825   0.504  15.233  2.0096  2.8172  0.3427
 2964TIP3    H233088   1.836   0.547  15.089 -0.3160  0.5373 -0.5940
 2965TIP3   OH233089   3.197   3.056  14.505 -0.3594 -0.6184  0.1859
 2965TIP3    H133090   3.275   3.005  14.527  0.3621  0.7734  1.0554
 2965TIP3    H233091   3.179   3.107  14.584  0.1612  1.9344 -1.2316
 2966TIP3   OH233092   5.266   1.317  13.461  0.0699 -0.1404  0.1289
 2966TIP3    H133093   5.201   1.249  13.478 -0.7380  0.0770 -1.8226
 2966TIP3    H233094   5.280   1.359  13.546 -4.2162  1.4396  0.3083
 2967TIP3   OH233095   5.405   7.239  14.031  0.4063 -0.0226 -0.2983
 2967TIP3    H133096   5.358   7.157  14.018 -1.4657  0.8502  0.5937
 2967TIP3    H233097   5.375   7.295  13.959  0.8225  0.2356 -0.2730
 2968TIP3   OH233098   1.362   5.683  12.916  0.2852 -0.1773 -0.0464
 2968TIP3    H133099   1.318   5.657  12.998  1.4882 -1.1747  0.3232
 2968TIP3    H233100   1.425   5.613  12.900  2.4001  1.6113 -0.0434
 2969TIP3   OH233101   0.551   1.619  13.906 -0.2826  0.1972  0.3460
 2969TIP3    H133102   0.499   1.618  13.826 -1.7400 -0.6345  1.2666
 2969TIP3    H233103   0.498   1.669  13.968  0.2316 -0.2697  1.1755
 2970TIP3   OH233104   1.500   7.784  14.651 -0.4124 -0.2563 -0.6034
 2970TIP3    H133105   1.424   7.839  14.632 -1.8725 -2.5313 -1.6943
 2970TIP3    H233106   1.512   7.792  14.746 -1.2945  1.0159 -0.5807
 2971TIP3   OH233107   2.364   5.777  13.893 -0.0825 -0.3674 -0.1325
 2971TIP3    H133108   2.294   5.814  13.947  0.6025  1.0237 -0.1515
 2971TIP3    H233109   2.359   5.825  13.810 -0.4793 -1.7844 -0.9670
 2972TIP3   OH233110   5.327   4.846  14.232  0.4068 -0.5854 -0.4508
 2972TIP3    H133111   5.333   4.796  14.313  2.3585 -0.9194 -0.7569
 2972TIP3    H233112   5.299   4.933  14.260 -0.0190 -1.0024  0.4416
 2973TIP3   OH233113   5.145   8.230  14.522 -0.0140  0.2711  0.2294
 2973TIP3    H133114   5.201   8.300  14.487  0.4402 -0.3385 -0.2894
 2973TIP3    H233115   5.203   8.178  14.577 -0.2868  0.1395  0.3965
 2974TIP3   OH233116   1.327   7.294  13.382  0.5692 -0.1030 -0.5158
 2974TIP3    H133117   1.372   7.337  13.455  3.3405 -2.2425 -0.8048
 2974TIP3    H233118   1.356   7.342  13.304  0.0335  0.2865 -0.4809
 2975TIP3   OH233119   1.022   1.261  14.299  0.2353  0.1081 -0.0920
 2975TIP3    H133120   0.954   1.314  14.341  0.0100  0.2202 -0.5961
 2975TIP3    H233121   1.076   1.325  14.253  0.7974  0.0392  0.4595
 2976TIP3   OH233122   7.811   2.470  14.193  0.5008 -0.0532 -0.0760
 2976TIP3    H133123   7.759   2.423  14.259  1.7549 -0.2704  0.7778
 2976TIP3    H233124   7.764   2.552  14.180 -0.2602 -0.3984  0.4037
 2977TIP3   OH233125   6.041   3.097  14.394 -0.6241  0.1188 -0.4524
 2977TIP3    H133126   6.035   3.073  14.487 -0.7250  0.8234 -0.2729
 2977TIP3    H233127   6.030   3.192  14.393  1.0389  0.3407 -1.0158
 2978TIP3   OH233128   0.987   2.987  13.573 -0.0549  0.3743  0.4732
 2978TIP3    H133129   1.063   2.929  13.564  0.9143  1.4907  1.2353
 2978TIP3    H233130   0.987   3.012  13.665 -0.6454  1.3179  0.2268
 2979TIP3   OH233131   4.494   0.467  13.006  0.1945 -0.4426  0.7282
 2979TIP3    H133132   4.542   0.446  12.926  0.4278 -0.6752  0.9296
 2979TIP3    H233133   4.446   0.387  13.027  0.5143 -0.5433  1.0894
 2980TIP3   OH233134   4.616   4.570  14.879 -0.6319 -0.0455 -0.0483
 2980TIP3    H133135   4.634   4.608  14.966  0.2402  0.1401 -0.3002
 2980TIP3    H233136   4.664   4.488  14.878  2.5925  1.6512 -1.6816
 2981TIP3   OH233137   2.752   7.594  14.231  0.3934 -0.1356 -0.0151
 2981TIP3    H133138   2.757   7.621  14.323  3.0231 -2.3733  0.6316
 2981TIP3    H233139   2.809   7.657  14.186 -2.4158  2.2056 -0.6211
 2982TIP3   OH233140   1.732   4.248  14.787 -0.1573 -0.1018 -0.3759
 2982TIP3    H133141   1.676   4.185  14.833 -1.4616  0.8601 -0.5919
 2982TIP3    H233142   1.734   4.217  14.697 -2.1526  1.0011 -0.8587
 2983TIP3   OH233143   3.825   7.110  14.398 -0.2526  0.0616  0.1521
 2983TIP3    H133144   3.880   7.057  14.455 -1.2803 -1.0906  0.1276
 2983TIP3    H233145   3.777   7.168  14.457  0.8316  0.9465  0.1853
 2984TIP3   OH233146   2.815   6.086  13.473 -0.3745 -0.2251  0.0691
 2984TIP3    H133147   2.781   6.122  13.555  1.0789  0.5202  0.3762
 2984TIP3    H233148   2.864   6.158  13.434 -0.6646 -0.7201 -1.2344
 2985TIP3   OH233149   7.485   2.817  12.870 -0.3072  0.1493  0.1836
 2985TIP3    H133150   7.431   2.743  12.895 -0.1460 -0.0297  0.0073
 2985TIP3    H233151   7.574   2.792  12.896  0.2469 -0.9875 -2.4489
 2986TIP3   OH233152   6.963   4.358  13.698  0.0867 -0.0475 -0.3291
 2986TIP3    H133153   6.921   4.395  13.620  0.7680 -0.1512 -0.7476
 2986TIP3    H233154   7.014   4.431  13.734  0.2578 -0.1686 -0.3260
 2987TIP3   OH233155   8.305   3.917  14.785 -0.0410  0.0078 -0.1436
 2987TIP3    H133156   8.332   3.878  14.702 -2.5199 -1.1765 -0.4800
 2987TIP3    H233157   8.362   3.877  14.851  1.2236  0.1599 -1.1068
 2988TIP3   OH233158   1.683   1.677  15.178 -0.1471  0.2514  0.4089
 2988TIP3    H133159   1.642   1.672  15.092  0.9678  1.3267 -0.2136
 2988TIP3    H233160   1.697   1.770  15.193  2.0935 -0.0615  0.5520
 2989TIP3   OH233161   2.902   7.151  13.373  0.0747 -0.7230 -0.0171
 2989TIP3    H133162   2.991   7.145  13.339  0.1145 -0.9332  0.1169
 2989TIP3    H233163   2.853   7.200  13.307  0.4675  0.0531  0.2565
 2990TIP3   OH233164   1.464   7.940  14.915 -0.1740 -0.7183 -0.5122
 2990TIP3    H133165   1.381   7.892  14.916 -0.8761  0.4548 -0.9828
 2990TIP3    H233166   1.441   8.027  14.883  0.9032  0.2613  1.2564
 2991TIP3   OH233167   2.950   2.134  13.830 -0.0582 -0.1394 -0.2424
 2991TIP3    H133168   2.899   2.128  13.911  1.5422 -3.3042  0.7037
 2991TIP3    H233169   2.893   2.182  13.769 -1.5440  1.8508  2.5151
 2992TIP3   OH233170   4.792   0.770  13.165 -0.1373  0.3053 -0.8708
 2992TIP3    H133171   4.705   0.729  13.159  0.0015 -0.2342  0.5103
 2992TIP3    H233172   4.817   0.786  13.074 -0.9562 -1.0938 -1.3680
 2993TIP3   OH233173   8.405   5.952  13.926  0.1813 -0.4135 -0.7332
 2993TIP3    H133174   8.331   5.942  13.866 -0.3467  3.1709 -0.9380
 2993TIP3    H233175   8.482   5.932  13.873 -0.4743 -1.4138 -1.3448
 2994TIP3   OH233176   1.804   2.272  15.183 -0.2411 -0.3457  0.7478
 2994TIP3    H133177   1.812   2.353  15.233  0.6166 -0.5105  0.8943
 2994TIP3    H233178   1.715   2.274  15.149 -0.8809 -0.2840  2.3589
 2995TIP3   OH233179   8.095   2.516  15.000 -0.2139 -0.1220 -0.1467
 2995TIP3    H133180   8.013   2.551  15.033 -0.9255 -0.4126 -1.5557
 2995TIP3    H233181   8.087   2.421  15.011 -0.4232 -0.2146 -1.0574
 2996TIP3   OH233182   1.754   8.132  14.411  0.1044 -0.1205 -0.3750
 2996TIP3    H133183   1.746   8.099  14.501 -1.2081 -2.7110 -1.3182
 2996TIP3    H233184   1.835   8.093  14.378  1.0158  1.4880 -0.1097
 2997TIP3   OH233185   2.580   7.653  14.018  0.0176  0.2560  0.2970
 2997TIP3    H133186   2.521   7.718  14.056  0.0910  1.3267 -1.2879
 2997TIP3    H233187   2.627   7.617  14.093 -2.1364 -0.1640  1.5442
 2998TIP3   OH233188   0.404   6.299  15.279  0.0137 -0.0435  0.1286
 2998TIP3    H133189   0.437   6.361  15.214 -2.1845  0.7636 -0.2835
 2998TIP3    H233190   0.456   6.317  15.358  0.3800  1.3424 -0.4062
 2999TIP3   OH233191   4.613   0.104  13.391 -0.0096 -0.2897 -0.0583
 2999TIP3    H133192   4.531   0.085  13.438  0.2822  0.2156  0.6789
 2999TIP3    H233193   4.594   0.082  13.300 -0.8653 -0.4845  0.1566
 3000TIP3   OH233194   3.041   7.416  14.575 -0.6504  0.2091 -0.3596
 3000TIP3    H133195   3.062   7.463  14.656 -2.1140 -0.4269  0.4263
 3000TIP3    H233196   3.073   7.474  14.506 -1.5268  1.9448  0.6039
 3001TIP3   OH233197   1.718   2.555  14.941 -0.2506  0.3322 -0.2698
 3001TIP3    H133198   1.627   2.530  14.922  0.1302  0.3171 -2.2711
 3001TIP3    H233199   1.756   2.479  14.984 -0.8703 -0.0863 -0.4572
 3002TIP3   OH233200   7.086   7.188  13.829 -0.0395 -0.2580  0.3177
 3002TIP3    H133201   7.176   7.155  13.838 -0.1719 -0.6809  0.1100
 3002TIP3    H233202   7.052   7.189  13.918  0.4027  0.5716  0.4842
 3003TIP3   OH233203   1.778   3.071  15.204  0.2547  0.0021 -0.0076
 3003TIP3    H133204   1.695   3.108  15.174  0.3062 -0.1397 -0.3295
 3003TIP3    H233205   1.795   3.115  15.288 -1.7013 -2.1738  1.6742
 3004TIP3   OH233206   4.393   5.177  15.078 -0.0600  0.2410  0.2896
 3004TIP3    H133207   4.303   5.194  15.049 -0.5812  1.1928  2.2939
 3004TIP3    H233208   4.394   5.084  15.099  0.1272 -0.3087 -1.9061
 3005TIP3   OH233209   7.755   2.283  13.180 -0.3706  0.3587  0.2430
 3005TIP3    H133210   7.770   2.267  13.274  0.5595  0.9050  0.1943
 3005TIP3    H233211   7.809   2.217  13.136 -0.5540  0.3149  0.0825
 3006TIP3   OH233212   7.579   7.356  14.631 -0.1796 -0.2324 -0.3437
 3006TIP3    H133213   7.552   7.415  14.561 -0.0740 -1.3577 -1.3641
 3006TIP3    H233214   7.670   7.335  14.611 -0.2446 -0.8137 -0.0498
 3007TIP3   OH233215   1.282   3.170  12.606  0.0235 -0.5611 -0.8102
 3007TIP3    H133216   1.287   3.229  12.681  1.2098  1.2018 -2.1816
 3007TIP3    H233217   1.314   3.223  12.532  0.0670 -2.5968 -2.3298
 3008TIP3   OH233218   4.755   5.785  14.018  0.4174 -0.2909  0.2627
 3008TIP3    H133219   4.751   5.842  14.095  0.2571  0.5037 -0.3154
 3008TIP3    H233220   4.840   5.804  13.978  0.2676 -0.2821 -0.0580
 3009TIP3   OH233221   0.506   4.222  13.693  0.5638  0.0655  0.4429
 3009TIP3    H133222   0.489   4.296  13.635  1.5826  1.1706  1.5047
 3009TIP3    H233223   0.526   4.149  13.635  0.2385  0.7951 -0.6061
 3010TIP3   OH233224   5.687   6.840  15.007 -0.8092 -1.0280 -0.2536
 3010TIP3    H133225   5.680   6.805  14.918  1.4287  0.8518 -1.2795
 3010TIP3    H233226   5.733   6.772  15.056  0.9331 -0.7794 -1.4575
 3011TIP3   OH233227   2.162   6.663  12.943  0.2200  0.0071 -0.1692
 3011TIP3    H133228   2.123   6.732  12.998  0.5500 -0.8159  1.1270
 3011TIP3    H233229   2.099   6.652  12.871 -0.3407  0.9381  0.1561
 3012TIP3   OH233230   5.283   0.110  14.424 -0.5282  0.4225  0.2991
 3012TIP3    H133231   5.351   0.056  14.382 -0.2490  0.5856  0.5396
 3012TIP3    H233232   5.327   0.150  14.499 -0.7353  0.9820  0.1293
 3013TIP3   OH233233   4.551   0.792  14.664 -0.3081  0.1141 -0.4212
 3013TIP3    H133234   4.585   0.859  14.604  0.4960  0.0013 -0.1053
 3013TIP3    H233235   4.504   0.842  14.731  0.2588  0.3714 -0.2070
 3014TIP3   OH233236   3.034   4.814  14.744 -0.2994 -0.1280 -0.2107
 3014TIP3    H133237   2.952   4.828  14.696  0.6939  0.1979 -1.8852
 3014TIP3    H233238   3.076   4.901  14.745 -0.8120  0.1603  2.3324
 3015TIP3   OH233239   3.163   7.786  14.193 -0.2946 -0.0749  0.0368
 3015TIP3    H133240   3.131   7.862  14.242 -1.1834 -0.3172 -0.1398
 3015TIP3    H233241   3.228   7.822  14.132 -0.7928  0.5687 -0.1263
 3016TIP3   OH233242   7.540   5.417  14.022 -0.0649  0.4900 -0.3470
 3016TIP3    H133243   7.576   5.506  14.021 -0.3937  0.6864  1.4676
 3016TIP3    H233244   7.516   5.400  13.931  0.1995  2.1757 -0.7784
 3017TIP3   OH233245   1.572   0.757  15.279  0.8688 -0.3309 -0.0057
 3017TIP3    H133246   1.611   0.680  15.236  1.4041  0.5377 -1.1153
 3017TIP3    H233247   1.484   0.728  15.304  0.8657 -1.1482 -0.9026
 3018TIP3   OH233248   1.080   5.022  14.158 -0.1732  0.3912 -0.3250
 3018TIP3    H133249   1.072   5.101  14.104  1.1268  0.5770 -0.2732
 3018TIP3    H233250   1.126   4.959  14.103 -0.9127 -0.2385 -0.2480
 3019TIP3   OH233251   7.739   7.870  14.694 -0.2879  0.2643  0.0035
 3019TIP3    H133252   7.731   7.930  14.768 -0.1031 -0.7561  0.8753
 3019TIP3    H233253   7.663   7.890  14.638  0.5684  2.2873 -0.4875
 3020TIP3   OH233254   6.550   5.021  13.323  0.2857  0.3457  0.0473
 3020TIP3    H133255   6.623   4.964  13.298  1.6647  1.3852  1.5094
 3020TIP3    H233256   6.498   5.030  13.243  2.1494  0.1589 -1.2377
 3021TIP3   OH233257   2.486   8.110  14.102  0.2763  0.7029  0.0783
 3021TIP3    H133258   2.560   8.169  14.115  2.6482 -1.6200 -1.6483
 3021TIP3    H233259   2.474   8.108  14.007 -0.7919 -0.3304  0.2187
 3022TIP3   OH233260   2.175   1.143  13.977  0.0186  0.0050 -0.1132
 3022TIP3    H133261   2.136   1.118  14.061 -3.9787 -0.8829 -1.9856
 3022TIP3    H233262   2.241   1.075  13.960  0.3705 -0.2172  1.9260
 3023TIP3   OH233263   6.326   0.367  15.226  0.2411  0.0375 -0.1570
 3023TIP3    H133264   6.353   0.360  15.318 -0.5282  0.7375  0.1403
 3023TIP3    H233265   6.352   0.284  15.186  0.6738 -0.2346  0.6727
 3024TIP3   OH233266   1.689   4.332  14.002 -0.4761  0.2236  0.2535
 3024TIP3    H133267   1.630   4.267  13.963 -1.9417  0.6751  1.5994
 3024TIP3    H233268   1.641   4.365  14.077  0.0978  3.0805 -0.5230
 3025TIP3   OH233269   6.843   4.540  15.279 -0.1628  0.6368  0.3226
 3025TIP3    H133270   6.921   4.592  15.301 -0.0046  0.2247  0.7522
 3025TIP3    H233271   6.850   4.525  15.185  0.8872 -0.3745  0.5444
 3026TIP3   OH233272   7.602   2.364  14.351  0.0234  0.8563 -0.2431
 3026TIP3    H133273   7.548   2.443  14.342 -3.0127 -0.9459  0.5432
 3026TIP3    H233274   7.634   2.368  14.441  0.4452  1.4867 -0.4136
 3027TIP3   OH233275   5.552   6.110  13.064  0.2849  0.5231  0.4481
 3027TIP3    H133276   5.554   6.014  13.067  0.0817  0.4914 -0.2233
 3027TIP3    H233277   5.617   6.133  12.998 -0.6613  0.7736 -0.4249
 3028TIP3   OH233278   3.247   1.124  14.175 -0.6042 -0.2449  0.5796
 3028TIP3    H133279   3.319   1.062  14.163  0.7935  1.3315  0.5403
 3028TIP3    H233280   3.257   1.155  14.264 -0.1171  1.3143  0.0069
 3029TIP3   OH233281   0.595   5.978  14.277 -0.0368 -0.0165  0.0556
 3029TIP3    H133282   0.523   5.919  14.298 -0.7277  1.7618  3.4719
 3029TIP3    H233283   0.552   6.058  14.247  0.5866  0.5131  0.5556
 3030TIP3   OH233284   1.772   7.038  13.730 -0.3278  0.5772 -0.5692
 3030TIP3    H133285   1.733   6.951  13.724 -0.8704  0.6687  1.1352
 3030TIP3    H233286   1.865   7.025  13.712 -0.5711 -0.1617 -1.3785
 3031TIP3   OH233287   5.977   5.085  13.031  0.1452 -0.2367  0.6811
 3031TIP3    H133288   5.882   5.087  13.019  0.2500 -0.5692 -0.3829
 3031TIP3    H233289   6.011   5.130  12.953  0.8714 -0.6006  0.7818
 3032TIP3   OH233290   0.108   8.293  12.883  0.4420 -0.5070 -0.4689
 3032TIP3    H133291   0.162   8.357  12.836  1.7280 -1.3898 -0.2383
 3032TIP3    H233292   0.163   8.215  12.889 -0.2934 -0.9338  1.1280
 3033TIP3   OH233293   2.050   4.234  14.519  0.3631 -0.2161  0.7014
 3033TIP3    H133294   2.039   4.269  14.431  2.2744 -0.8911  0.1573
 3033TIP3    H233295   2.128   4.277  14.553 -0.3664  0.0520  2.1059
 3034TIP3   OH233296   2.572   6.423  15.023  0.4505  0.2315 -0.0088
 3034TIP3    H133297   2.603   6.350  14.969  1.8992  1.0599 -0.3529
 3034TIP3    H233298   2.644   6.438  15.085 -0.8252 -0.1536  1.6401
 3035TIP3   OH233299   3.894   6.245  13.850  0.3786  0.0945  0.2961
 3035TIP3    H133300   3.809   6.202  13.852 -0.3128  1.3332 -0.8756
 3035TIP3    H233301   3.957   6.173  13.851 -0.6977 -0.8806  0.0665
 3036TIP3   OH233302   3.960   6.443  14.373 -0.1770 -0.1248  0.0630
 3036TIP3    H133303   3.875   6.464  14.412  0.1614 -1.6661  1.7482
 3036TIP3    H233304   3.992   6.527  14.339 -1.1560  1.0369  1.8460
 3037TIP3   OH233305   3.674   5.696  14.231 -0.0854  0.0869  0.6409
 3037TIP3    H133306   3.765   5.720  14.212  0.2464 -1.5592  0.0076
 3037TIP3    H233307   3.622   5.748  14.169  0.4771  0.4050  0.4289
 3038TIP3   OH233308   3.180   4.498  13.216 -0.0396  0.7197 -0.3753
 3038TIP3    H133309   3.124   4.525  13.143  2.2368  0.0174 -2.5276
 3038TIP3    H233310   3.173   4.403  13.217 -0.1946  0.7342  0.4771
 3039TIP3   OH233311   0.628   1.921  13.256  0.0628  0.3400  0.1566
 3039TIP3    H133312   0.573   1.933  13.178 -0.3133  1.2957  0.5576
 3039TIP3    H233313   0.705   1.975  13.240 -0.2288  0.9078  0.6440
 3040TIP3   OH233314   4.633   1.478  14.483 -0.9756  0.6087 -0.5719
 3040TIP3    H133315   4.565   1.533  14.444  0.1567  1.0723 -1.9783
 3040TIP3    H233316   4.708   1.536  14.494 -0.2656 -0.2805 -0.6096
 3041TIP3   OH233317   2.221   7.105  15.058 -0.2380  0.2177 -0.3050
 3041TIP3    H133318   2.144   7.118  15.004  0.2745 -0.0817 -1.1331
 3041TIP3    H233319   2.293   7.141  15.007  0.0822  1.2026  0.7922
 3042TIP3   OH233320   4.080   0.933  14.646  0.6157  0.0357  0.2207
 3042TIP3    H133321   4.134   0.961  14.720  2.4242 -0.1472 -0.9636
 3042TIP3    H233322   4.104   0.992  14.575 -0.0881 -0.6429 -0.6055
 3043TIP3   OH233323   2.079   4.378  13.003 -0.0651  0.0884 -0.3188
 3043TIP3    H133324   2.047   4.467  12.987 -1.9515 -1.0903 -4.4603
 3043TIP3    H233325   2.162   4.374  12.956 -0.9868 -0.8095 -1.9575
 3044TIP3   OH233326   0.903   3.939  12.946 -0.6691 -0.1929  0.1268
 3044TIP3    H133327   0.906   3.897  12.860 -2.0607 -0.1678  0.0395
 3044TIP3    H233328   0.909   4.032  12.927 -3.0879 -0.0292 -0.1781
 3045TIP3   OH233329   0.658   1.101  14.474  0.9417  0.3950  0.4615
 3045TIP3    H133330   0.702   1.090  14.390 -0.0503  0.1422 -0.0387
 3045TIP3    H233331   0.622   1.015  14.495 -0.5442  0.9011  0.1330
 3046TIP3   OH233332   6.810   5.848  14.717 -0.5897  0.2017  0.0270
 3046TIP3    H133333   6.804   5.773  14.776  1.5383  0.3784  0.5608
 3046TIP3    H233334   6.741   5.907  14.746 -1.2533 -0.8336  0.6408
 3047TIP3   OH233335   5.626   5.582  14.430 -0.2285  0.2499 -0.1316
 3047TIP3    H133336   5.687   5.526  14.381 -0.0652  0.5723 -0.3029
 3047TIP3    H233337   5.557   5.523  14.459 -1.1646  0.3120 -2.0900
 3048TIP3   OH233338   4.348   2.209  13.622  0.2653 -0.3012 -0.0214
 3048TIP3    H133339   4.319   2.293  13.586  2.2887  1.6409  2.5116
 3048TIP3    H233340   4.300   2.144  13.571 -1.6964  2.3512 -1.8680
 3049TIP3   OH233341   6.699   1.381  13.892  0.2460 -0.2958 -0.0631
 3049TIP3    H133342   6.746   1.311  13.847  0.7695 -0.5780  0.8754
 3049TIP3    H233343   6.746   1.461  13.869 -0.2704 -0.2663 -1.0308
 3050TIP3   OH233344   3.212   0.853  14.936 -0.2588  0.6257  0.1409
 3050TIP3    H133345   3.159   0.913  14.884  1.5049  2.0785 -0.0545
 3050TIP3    H233346   3.163   0.771  14.934 -1.8157  1.5256 -1.1503
 3051TIP3   OH233347   8.281   4.817  14.269 -0.4279  0.3794  0.1323
 3051TIP3    H133348   8.271   4.820  14.174  0.2373  0.5634  0.0681
 3051TIP3    H233349   8.344   4.746  14.285  0.1114  0.9087  0.3828
 3052TIP3   OH233350   0.578   3.704  14.994 -0.0154  0.2017 -0.3100
 3052TIP3    H133351   0.516   3.705  15.067  1.3277  1.1255  0.8882
 3052TIP3    H233352   0.546   3.635  14.936 -2.4096  0.9742 -0.0092
 3053TIP3   OH233353   8.140   5.043  14.353 -0.2488 -0.2266  0.3420
 3053TIP3    H133354   8.204   4.976  14.328  0.8581  0.6006  0.9244
 3053TIP3    H233355   8.163   5.066  14.442 -1.5761 -0.1366  0.6817
 3054TIP3   OH233356   3.962   4.122  12.953 -0.7450  0.4921  0.4683
 3054TIP3    H133357   3.968   4.041  12.902  0.1462  0.6857  0.2394
 3054TIP3    H233358   3.905   4.179  12.902 -0.0498  0.5984 -0.2118
 3055TIP3   OH233359   1.960   4.055  13.718 -0.9820 -0.4678  0.4630
 3055TIP3    H133360   1.875   4.015  13.699 -0.6964 -0.1846 -1.7105
 3055TIP3    H233361   1.957   4.140  13.674  0.5016 -0.5658  0.0991
 3056TIP3   OH233362   2.152   5.542  13.475  0.3588 -0.3281  0.6674
 3056TIP3    H133363   2.129   5.623  13.430 -0.9942 -1.3423 -0.5894
 3056TIP3    H233364   2.223   5.566  13.534  1.1743  1.4017 -0.9189
 3057TIP3   OH233365   7.921   4.305  13.653  0.1969  0.0315  0.4301
 3057TIP3    H133366   8.013   4.309  13.624  1.0527  0.5662  2.9617
 3057TIP3    H233367   7.908   4.214  13.677  0.4291  0.1775  1.1195
 3058TIP3   OH233368   0.197   4.468  13.336 -0.2991 -0.5633  0.1749
 3058TIP3    H133369   0.117   4.496  13.291  0.1759 -0.5559 -0.6644
 3058TIP3    H233370   0.212   4.537  13.402 -0.2280  0.1517 -0.5710
 3059TIP3   OH233371   3.942   6.808  13.412  0.3856 -0.0440 -0.0853
 3059TIP3    H133372   3.980   6.722  13.399 -0.0132 -0.4676  1.3797
 3059TIP3    H233373   3.847   6.794  13.404  0.3102  0.2255  0.3288
 3060TIP3   OH233374   5.432   1.283  12.728  0.8093  0.0135  0.5062
 3060TIP3    H133375   5.444   1.189  12.721 -0.2252 -0.0316 -1.3460
 3060TIP3    H233376   5.365   1.294  12.796  1.9085 -0.4485  1.7187
 3061TIP3   OH233377   6.208   3.776  13.508 -0.4529  0.1631  0.5977
 3061TIP3    H133378   6.169   3.814  13.429  0.3963  0.5427  0.3441
 3061TIP3    H233379   6.297   3.812  13.510  1.0750 -3.1872 -0.6655
 3062TIP3   OH233380   8.072   8.216  14.581  0.1423  0.2135 -0.7152
 3062TIP3    H133381   7.980   8.213  14.554 -0.1008  1.6878 -0.1115
 3062TIP3    H233382   8.069   8.243  14.673  1.1972  0.6826 -0.8082
 3063TIP3   OH233383   4.691   1.962  14.263  0.4065  0.0061  0.0385
 3063TIP3    H133384   4.775   1.919  14.283  0.7152  0.0347 -1.1137
 3063TIP3    H233385   4.717   2.044  14.220 -0.2034  0.3127  0.2595
 3064TIP3   OH233386   3.931   5.724  14.132  0.1355 -0.5913 -0.0820
 3064TIP3    H133387   3.997   5.765  14.076 -0.9511 -0.8438 -1.6078
 3064TIP3    H233388   3.935   5.631  14.110 -2.1352 -0.3633 -1.8216
 3065TIP3   OH233389   3.551   5.302  15.165  0.5409  0.4411  0.2153
 3065TIP3    H133390   3.494   5.256  15.226 -0.8994  0.9030 -0.7175
 3065TIP3    H233391   3.576   5.235  15.101  2.0014 -0.0280  1.2248
 3066TIP3   OH233392   8.179   7.203  14.138  0.8717  0.0582 -0.3113
 3066TIP3    H133393   8.105   7.226  14.194  0.4772 -0.9952 -0.3777
 3066TIP3    H233394   8.157   7.116  14.103  1.9661 -0.1181 -0.6144
 3067TIP3   OH233395   6.050   1.829  13.390  0.7474  0.2969 -0.2993
 3067TIP3    H133396   6.118   1.881  13.432 -0.2151  1.4424 -0.1023
 3067TIP3    H233397   6.038   1.871  13.304  2.5732 -1.9045 -1.7560
 3068TIP3   OH233398   6.108   3.745  14.823  0.2997 -0.5562 -0.2057
 3068TIP3    H133399   6.201   3.727  14.826  0.8777  1.9845 -0.1214
 3068TIP3    H233400   6.082   3.726  14.733  1.2517  0.0393 -0.6254
 3069TIP3   OH233401   5.988   3.318  13.254  0.3028  0.0542 -0.2629
 3069TIP3    H133402   5.992   3.229  13.288 -1.1807 -0.5739 -1.6671
 3069TIP3    H233403   5.904   3.324  13.210  0.6975  1.9215 -0.8541
 3070TIP3   OH233404   6.139   4.602  14.407 -0.0444 -0.3079  0.3352
 3070TIP3    H133405   6.165   4.694  14.403 -0.7268 -0.1154  0.2238
 3070TIP3    H233406   6.213   4.554  14.369 -0.2773  0.3088 -0.9269
 3071TIP3   OH233407   6.924   1.399  13.003 -0.4080  0.7808 -0.2587
 3071TIP3    H133408   6.886   1.388  13.090 -2.0598  0.1134 -1.0313
 3071TIP3    H233409   6.882   1.332  12.949  0.7153  1.0615 -1.5498
 3072TIP3   OH233410   3.271   5.518  15.334  0.1940 -0.3815 -0.2022
 3072TIP3    H133411   3.283   5.613  15.331  0.9042 -0.4834 -2.5975
 3072TIP3    H233412   3.346   5.486  15.383  0.9287  0.1828 -0.9360
 3073TIP3   OH233413   0.371   4.607  15.074 -0.3428  0.1555  0.9564
 3073TIP3    H133414   0.287   4.561  15.068  0.0387 -0.4627  0.2396
 3073TIP3    H233415   0.431   4.556  15.019  0.1525  1.3522  0.3292
 3074TIP3   OH233416   4.929   0.976  13.986 -0.0913  0.1741  0.1241
 3074TIP3    H133417   4.910   1.053  13.932 -1.6411  0.2070  0.6641
 3074TIP3    H233418   4.860   0.913  13.963  0.1300 -0.3883  0.9523
 3075TIP3   OH233419   3.602   6.310  15.155  0.0237  0.3775  0.3286
 3075TIP3    H133420   3.630   6.220  15.138 -1.4207  0.0278 -0.3763
 3075TIP3    H233421   3.538   6.303  15.226 -0.7241  0.7207 -0.2897
 3076TIP3   OH233422   5.082   8.123  13.175 -0.3370  0.5823 -0.3739
 3076TIP3    H133423   5.063   8.048  13.120  1.3647 -0.5743  0.5202
 3076TIP3    H233424   5.134   8.088  13.247 -1.0217  2.3288  1.0618
 3077TIP3   OH233425   7.783   0.974  15.184 -0.5965  0.0115  0.2623
 3077TIP3    H133426   7.723   1.015  15.246 -0.9684  2.0147 -1.2836
 3077TIP3    H233427   7.736   0.898  15.151 -0.4418 -0.9972  2.2786
 3078TIP3   OH233428   0.138   0.066  13.074 -0.1875  0.0105  0.3756
 3078TIP3    H133429   0.094   0.015  13.006  0.3847  0.7034 -0.5340
 3078TIP3    H233430   0.211   0.010  13.102  0.1073  0.0957 -0.2185
 3079TIP3   OH233431   6.379   4.277  14.876 -0.0544  0.0794  0.2915
 3079TIP3    H133432   6.396   4.303  14.967 -0.5223 -1.4209  0.8424
 3079TIP3    H233433   6.350   4.357  14.833  1.8333  1.2121  1.0112
 3080TIP3   OH233434   8.244   0.832  13.803 -0.4527 -0.0965 -0.1540
 3080TIP3    H133435   8.218   0.753  13.850  0.4334 -0.0584  0.4144
 3080TIP3    H233436   8.257   0.898  13.872 -1.0924  0.5314 -0.6108
 3081TIP3   OH233437   3.245   5.026  15.342  0.2296  0.0992 -0.4918
 3081TIP3    H133438   3.175   5.064  15.395  1.8370  1.0975  1.0406
 3081TIP3    H233439   3.248   5.080  15.263  1.0622  1.9066  0.7054
 3082TIP3   OH233440   8.240   1.838  14.797  0.5297  0.6245 -0.4646
 3082TIP3    H133441   8.243   1.775  14.725  0.2139 -0.9020  0.8208
 3082TIP3    H233442   8.309   1.901  14.776  1.4268 -0.6049 -1.3498
 3083TIP3   OH233443   1.250   2.721  13.310  0.3943  0.3858 -0.6673
 3083TIP3    H133444   1.332   2.704  13.262  1.2085  2.0499  0.0435
 3083TIP3    H233445   1.187   2.746  13.242  0.9611  0.7603 -1.0637
 3084TIP3   OH233446   6.709   0.202  14.728  0.2207  0.2114 -0.5459
 3084TIP3    H133447   6.766   0.150  14.783 -0.7599 -0.0580  0.2520
 3084TIP3    H233448   6.765   0.233  14.657  0.9341 -1.5408 -0.7904
 3085TIP3   OH233449   2.348   3.914  13.160 -0.2687  0.0213 -0.5379
 3085TIP3    H133450   2.345   4.010  13.159 -1.7089 -0.0062 -0.8307
 3085TIP3    H233451   2.433   3.893  13.199  0.3346  1.4134 -1.0535
 3086TIP3   OH233452   7.948   5.505  13.543  1.1825 -0.2008  0.9219
 3086TIP3    H133453   7.994   5.431  13.504  0.0383 -1.4386  1.8293
 3086TIP3    H233454   8.015   5.573  13.551  2.2968 -1.1637  0.1853
 3087TIP3   OH233455   5.463   2.170  12.984 -0.4780 -0.0618  0.5303
 3087TIP3    H133456   5.504   2.125  12.910 -0.1894  0.9029  0.0805
 3087TIP3    H233457   5.369   2.159  12.969 -0.4144 -1.6576  1.1689
 3088TIP3   OH233458   1.097   3.587  14.336  0.6368  0.0754 -0.1865
 3088TIP3    H133459   1.123   3.556  14.422  1.5698 -1.2641 -0.9104
 3088TIP3    H233460   1.149   3.666  14.321 -0.3265  0.9489  0.8824
 3089TIP3   OH233461   0.652   8.316  14.867 -0.4490  0.3789  0.0474
 3089TIP3    H133462   0.645   8.373  14.944  1.3331  0.9660 -0.1840
 3089TIP3    H233463   0.655   8.377  14.793  1.4011  0.0058 -0.2132
 3090TIP3   OH233464   3.523   2.506  14.494 -0.1756  0.7716  0.0404
 3090TIP3    H133465   3.534   2.535  14.404 -0.4100  0.0466 -0.2312
 3090TIP3    H233466   3.562   2.576  14.547  1.0422  0.6509 -0.6604
 3091TIP3   OH233467   2.025   0.240  14.544  0.0659 -0.6958 -0.5142
 3091TIP3    H133468   1.980   0.224  14.461  1.8864  1.0300 -1.9513
 3091TIP3    H233469   2.055   0.154  14.573 -2.3934 -1.6042 -0.5062
 3092TIP3   OH233470   4.175   6.440  14.801 -0.1169 -0.1742  0.4673
 3092TIP3    H133471   4.250   6.382  14.794  0.5068  0.5447  1.0490
 3092TIP3    H233472   4.149   6.434  14.893 -1.9828 -1.8705 -0.0884
 3093TIP3   OH233473   3.052   4.210  14.222 -0.1049 -0.4820  0.5490
 3093TIP3    H133474   3.091   4.172  14.144 -2.5392 -0.3325 -0.8478
 3093TIP3    H233475   3.000   4.139  14.261 -1.3374  0.2366  0.2778
 3094TIP3   OH233476   0.817   6.853  14.894  0.2801 -0.2203  0.5377
 3094TIP3    H133477   0.891   6.840  14.953  0.7891 -2.8669 -0.5769
 3094TIP3    H233478   0.749   6.795  14.927  0.4644 -1.5138 -1.2350
 3095TIP3   OH233479   0.740   7.690  14.203  0.8236 -0.3158 -0.2661
 3095TIP3    H133480   0.809   7.676  14.267  1.7003  1.8934 -0.6195
 3095TIP3    H233481   0.679   7.749  14.247 -0.0435 -1.0153 -0.5083
 3096TIP3   OH233482   8.241   4.805  14.709 -0.3510 -0.3659  0.2435
 3096TIP3    H133483   8.260   4.828  14.800  0.6128 -0.3216  0.0454
 3096TIP3    H233484   8.316   4.840  14.660 -0.9867 -0.1536 -0.5984
 3097TIP3   OH233485   5.163   5.643  14.690 -0.3081 -0.3652 -0.2849
 3097TIP3    H133486   5.185   5.608  14.777 -1.0893 -1.1957 -0.3981
 3097TIP3    H233487   5.243   5.683  14.659  0.7259 -2.2558 -0.2100
 3098TIP3   OH233488   2.507   0.141  13.059 -0.6011  0.4000 -0.5755
 3098TIP3    H133489   2.526   0.192  13.137 -0.2786 -0.3422 -0.1680
 3098TIP3    H233490   2.528   0.200  12.986 -2.7372  1.8024 -0.1429
 3099TIP3   OH233491   7.958   2.140  14.222 -0.1175  0.0093  0.2738
 3099TIP3    H133492   7.979   2.097  14.305 -0.2029  0.9405  0.7914
 3099TIP3    H233493   8.008   2.092  14.156  0.1939 -0.5428  0.9100
 3100TIP3   OH233494   2.420   2.147  14.827 -0.4216  0.5521  0.0622
 3100TIP3    H133495   2.385   2.176  14.911  1.4246 -0.6533  1.3047
 3100TIP3    H233496   2.385   2.058  14.816  0.0130  0.3863 -0.0138
 3101TIP3   OH233497   8.068   0.530  13.644  0.2452  0.1558  0.2025
 3101TIP3    H133498   8.026   0.581  13.714  2.1796  1.1457  0.7025
 3101TIP3    H233499   8.107   0.596  13.587  0.1810 -0.7093 -0.8658
 3102TIP3   OH233500   3.930   0.741  14.304  0.0467  0.4659 -0.0686
 3102TIP3    H133501   3.957   0.771  14.217 -1.0614  1.2514 -0.1671
 3102TIP3    H233502   3.933   0.820  14.358 -2.4344  0.7248 -0.2058
 3103TIP3   OH233503   6.131   2.121  14.390 -0.2661 -0.1063 -0.0203
 3103TIP3    H133504   6.154   2.119  14.483 -1.3136 -0.9346  0.2432
 3103TIP3    H233505   6.213   2.138  14.345  0.2275  0.4806  1.0709
 3104TIP3   OH233506   6.607   4.375  15.320  0.7888  0.7950 -0.3829
 3104TIP3    H133507   6.634   4.307  15.258 -1.5343 -0.5585 -0.0018
 3104TIP3    H233508   6.678   4.440  15.316  1.6682 -0.1865 -2.9658
 3105TIP3   OH233509   1.352   3.003  14.981 -0.7679 -0.2114 -0.2716
 3105TIP3    H133510   1.278   3.047  14.939 -1.6415  0.1445  1.5646
 3105TIP3    H233511   1.317   2.917  15.007 -0.9200  0.3693  1.5876
 3106TIP3   OH233512   2.136   0.673  14.146  0.6502 -0.1235  0.7486
 3106TIP3    H133513   2.063   0.733  14.166 -0.7682 -0.8397 -1.8410
 3106TIP3    H233514   2.182   0.715  14.074  3.5904  0.8008  2.9365
 3107TIP3   OH233515   3.506   4.257  15.091  0.3381 -0.1515  0.3130
 3107TIP3    H133516   3.598   4.233  15.084 -0.0237 -1.8777  1.0051
 3107TIP3    H233517   3.464   4.180  15.130 -1.0736  1.2806  1.7691
 3108TIP3   OH233518   8.101   1.115  14.448 -0.3272  0.0787 -0.2835
 3108TIP3    H133519   8.111   1.020  14.442 -1.4227 -0.0216 -0.8982
 3108TIP3    H233520   8.189   1.150  14.430 -0.0924 -0.7979 -0.9087
 3109TIP3   OH233521   0.142   2.163  15.103  0.2157  0.1969  0.7833
 3109TIP3    H133522   0.133   2.259  15.110 -1.1458  0.6470 -3.6971
 3109TIP3    H233523   0.052   2.132  15.097  0.7006 -1.1595  0.3494
 3110TIP3   OH233524   7.056   3.090  12.572 -0.1253 -0.0779  0.4427
 3110TIP3    H133525   6.965   3.064  12.583 -0.4941  0.5808 -0.8591
 3110TIP3    H233526   7.104   3.038  12.637 -1.6596  1.1015  2.6440
 3111TIP3   OH233527   3.035   8.226  14.695 -0.1171 -0.1367 -0.1278
 3111TIP3    H133528   3.104   8.167  14.665  1.1812  0.8841  0.7400
 3111TIP3    H233529   3.034   8.218  14.790 -0.6803  0.4229 -0.0712
 3112TIP3   OH233530   5.846   8.023  14.178 -0.9142 -0.5717  0.2883
 3112TIP3    H133531   5.873   8.090  14.241  1.4788 -0.0359 -1.1553
 3112TIP3    H233532   5.846   8.068  14.093 -0.6582 -2.0452 -0.5324
 3113TIP3   OH233533   3.223   2.264  14.683  0.7277  0.2472  0.1188
 3113TIP3    H133534   3.278   2.190  14.656 -0.5289  0.0714 -2.1738
 3113TIP3    H233535   3.136   2.227  14.693  0.5179  1.0070  1.2147
 3114TIP3   OH233536   7.626   3.240  12.822  0.5879 -0.0004 -0.2577
 3114TIP3    H133537   7.721   3.249  12.828  0.3498  2.1287  1.3308
 3114TIP3    H233538   7.600   3.302  12.753  0.3437 -0.8493 -0.9536
 3115TIP3   OH233539   7.915   0.630  13.870 -0.5919  0.1035 -0.4865
 3115TIP3    H133540   7.836   0.575  13.872 -1.0991  0.8147  0.9778
 3115TIP3    H233541   7.881   0.719  13.876  0.2994  0.4574 -0.6163
 3116TIP3   OH233542   0.852   7.561  13.162  0.3087  0.2617  0.0361
 3116TIP3    H133543   0.838   7.476  13.121 -1.6733  0.6105 -0.1153
 3116TIP3    H233544   0.885   7.617  13.092  1.7139 -0.3839  0.1616
 3117TIP3   OH233545   6.198   1.168  13.301  0.1423 -0.1363  0.1482
 3117TIP3    H133546   6.255   1.109  13.252  0.1123 -1.1849  1.3263
 3117TIP3    H233547   6.194   1.247  13.247 -0.9908 -1.6799 -2.2252
 3118TIP3   OH233548   4.728   7.990  13.331 -0.0903  0.2300 -0.8548
 3118TIP3    H133549   4.690   8.069  13.293  1.5488  1.1687 -0.6106
 3118TIP3    H233550   4.688   7.919  13.282 -0.9352  1.2456 -1.6872
 3119TIP3   OH233551   5.222   0.151  12.804 -0.1288 -0.4702  0.4622
 3119TIP3    H133552   5.306   0.108  12.786 -0.0937  0.2221 -1.1984
 3119TIP3    H233553   5.247   0.238  12.835 -0.2161 -0.1094 -0.4526
 3120TIP3   OH233554   2.365   8.113  14.725 -0.1365 -0.1883 -0.0946
 3120TIP3    H133555   2.316   8.145  14.649 -0.3289  0.4963  0.3124
 3120TIP3    H233556   2.402   8.192  14.765  2.7380 -0.7899 -1.3335
 3121TIP3   OH233557   5.618   2.556  13.429  0.6689 -0.0888 -0.0718
 3121TIP3    H133558   5.545   2.610  13.460  0.5765 -0.4122  0.2811
 3121TIP3    H233559   5.580   2.470  13.416  1.5034 -0.9529  2.5983
 3122TIP3   OH233560   0.403   1.772  14.962 -0.2430  0.0394 -0.4606
 3122TIP3    H133561   0.385   1.777  15.056 -0.2929 -1.0377 -0.3988
 3122TIP3    H233562   0.381   1.682  14.938 -0.9034  0.4891 -1.6535
 3123TIP3   OH233563   3.382   8.389  14.157 -0.0532  0.2005  0.0016
 3123TIP3    H133564   3.341   8.463  14.111 -1.4591 -1.6872 -1.9586
 3123TIP3    H233565   3.350   8.397  14.247 -0.6626  1.6252 -0.3019
 3124TIP3   OH233566   5.282   5.086  14.734 -0.0364  0.3905 -0.0806
 3124TIP3    H133567   5.201   5.136  14.745 -0.3364 -0.1566  0.2445
 3124TIP3    H233568   5.257   4.995  14.750  0.6709  0.2294  0.1701
 3125TIP3   OH233569   7.177   4.762  14.631 -0.1640  0.4952 -0.0915
 3125TIP3    H133570   7.250   4.824  14.632 -0.6122  1.0363 -0.4079
 3125TIP3    H233571   7.149   4.759  14.539 -1.2810  1.1951  0.1965
 3126TIP3   OH233572   3.954   0.523  14.520 -0.4274  0.6216 -0.0441
 3126TIP3    H133573   3.926   0.567  14.600 -2.2432 -0.1190 -0.2207
 3126TIP3    H233574   3.991   0.593  14.466  1.3410  1.0324  1.6197
 3127TIP3   OH233575   2.310   1.380  14.026 -0.0795  0.0772  0.7551
 3127TIP3    H133576   2.374   1.324  14.070  1.2821 -0.2279 -1.4967
 3127TIP3    H233577   2.244   1.319  13.992  1.2682 -0.2203 -1.4740
 3128TIP3   OH233578   3.958   4.472  13.734 -0.3656  0.2445 -0.1938
 3128TIP3    H133579   3.929   4.395  13.684  2.0300 -0.5148 -0.5146
 3128TIP3    H233580   4.041   4.446  13.774 -0.0636  2.2958  0.6733
 3129TIP3   OH233581   2.631   2.849  14.876  0.3951 -0.1979  0.0853
 3129TIP3    H133582   2.695   2.879  14.812 -0.4421  0.2567 -0.5564
 3129TIP3    H233583   2.561   2.914  14.873  1.3099  1.1150  3.1044
 3130TIP3   OH233584   1.588   5.170  14.018 -0.0670  0.1996  0.3088
 3130TIP3    H133585   1.541   5.158  13.935 -1.2538  2.8082  0.5065
 3130TIP3    H233586   1.648   5.096  14.022 -1.0539 -0.8497 -2.1275
 3131TIP3   OH233587   2.984   7.461  15.163 -0.7110  0.1326 -0.0447
 3131TIP3    H133588   3.039   7.501  15.230 -0.8154 -1.3084  0.9428
 3131TIP3    H233589   2.915   7.526  15.147 -0.4344  0.6832  0.9113
 3132TIP3   OH233590   1.629   2.762  13.669  0.7102 -0.0679  0.7301
 3132TIP3    H133591   1.672   2.847  13.672 -1.6168  1.3780 -1.9873
 3132TIP3    H233592   1.564   2.766  13.740  0.3376  0.6035  0.3587
 3133TIP3   OH233593   0.958   2.713  13.719 -0.2185  0.1333  0.1382
 3133TIP3    H133594   0.891   2.765  13.674 -0.0656  0.9011  0.7808
 3133TIP3    H233595   1.037   2.726  13.666 -0.2503  0.3251  0.1365
 3134TIP3   OH233596   6.196   1.754  13.945 -0.0134 -0.3461  0.0952
 3134TIP3    H133597   6.269   1.812  13.920 -0.7428  0.6617  0.2588
 3134TIP3    H233598   6.209   1.740  14.039 -0.8214  1.0071  0.4289
 3135TIP3   OH233599   1.336   6.545  14.461  0.5948 -0.7382 -0.2358
 3135TIP3    H133600   1.427   6.532  14.486  1.0428  0.0842 -1.3254
 3135TIP3    H233601   1.319   6.477  14.395  0.8501 -0.0760 -1.0025
 3136TIP3   OH233602   7.741   3.823  14.515 -0.2846  0.2727 -0.1807
 3136TIP3    H133603   7.797   3.845  14.440 -1.6396  1.2153 -0.9635
 3136TIP3    H233604   7.716   3.732  14.500  1.6761 -0.4419  0.6304
 3137TIP3   OH233605   0.494   7.925  14.980 -0.4932  0.4489 -0.1439
 3137TIP3    H133606   0.559   7.969  14.925 -0.8047  0.2848 -0.6517
 3137TIP3    H233607   0.544   7.857  15.026 -0.7399 -1.5100 -2.5668
 3138TIP3   OH233608   3.028   4.527  13.830 -0.4604 -0.3265  0.5818
 3138TIP3    H133609   2.948   4.578  13.840 -1.5395 -1.2426 -2.2772
 3138TIP3    H233610   3.050   4.499  13.919 -1.9258  1.9190  1.7452
 3139TIP3   OH233611   6.088   3.227  14.845  0.0193  0.3887  0.2405
 3139TIP3    H133612   6.067   3.281  14.922 -0.1314  0.5257  0.1045
 3139TIP3    H233613   6.106   3.290  14.776 -2.3384  0.3211 -0.5274
 3140TIP3   OH233614   2.747   1.778  14.040  0.0421 -0.7305 -0.0349
 3140TIP3    H133615   2.746   1.788  13.945  0.1034 -0.4297 -0.0037
 3140TIP3    H233616   2.668   1.824  14.070 -0.2687 -1.2850  0.0155
 3141TIP3   OH233617   3.601   3.605  13.953  0.4380 -0.8071 -0.1797
 3141TIP3    H133618   3.514   3.646  13.950  0.5279 -0.4275  1.4013
 3141TIP3    H233619   3.655   3.660  13.896 -0.2214 -0.7115 -0.7272
 3142TIP3   OH233620   4.559   0.312  14.892  0.5502  0.1657  0.0750
 3142TIP3    H133621   4.600   0.229  14.916  3.1020  1.9020  2.2982
 3142TIP3    H233622   4.627   0.360  14.844 -0.7451  1.1443 -0.8511
 3143TIP3   OH233623   6.669   6.102  13.320  0.8117  0.5392  0.0066
 3143TIP3    H133624   6.604   6.032  13.319 -0.0049  1.2262  1.6091
 3143TIP3    H233625   6.736   6.073  13.258  0.0987 -1.2589  0.0154
 3144TIP3   OH233626   1.102   0.833  15.022  0.3512 -0.0096  0.1392
 3144TIP3    H133627   1.180   0.886  15.007 -0.1056  0.2535 -1.5175
 3144TIP3    H233628   1.133   0.742  15.013  0.6002  0.0683  0.1907
 3145TIP3   OH233629   3.480   5.177  14.071 -0.2449 -0.5294 -0.1330
 3145TIP3    H133630   3.489   5.163  14.166  1.0584 -0.2984 -0.2017
 3145TIP3    H233631   3.533   5.107  14.032  0.9029  0.5837 -0.6311
 3146TIP3   OH233632   4.407   1.193  14.195  0.9580  0.4812  0.5497
 3146TIP3    H133633   4.499   1.195  14.168  0.9198  0.7248  0.4359
 3146TIP3    H233634   4.410   1.196  14.291  1.0917 -0.3116  0.5748
 3147TIP3   OH233635   6.242   2.674  13.461  0.0083  0.3733  0.0342
 3147TIP3    H133636   6.263   2.659  13.369 -0.8653  0.2687 -0.1589
 3147TIP3    H233637   6.251   2.587  13.502  0.0501  0.3515 -0.0211
 3148TIP3   OH233638   0.709   5.664  13.125  0.3665 -0.5623  0.2583
 3148TIP3    H133639   0.801   5.686  13.113  0.1379  0.7282  0.6618
 3148TIP3    H233640   0.664   5.749  13.124 -0.9936 -1.2356 -1.3357
 3149TIP3   OH233641   3.497   8.155  14.099  0.8491  0.3435 -0.0102
 3149TIP3    H133642   3.506   8.250  14.088  0.4804  0.2110 -1.8921
 3149TIP3    H233643   3.412   8.143  14.141  1.5923  0.8808  1.7264
 3150TIP3   OH233644   0.314   2.278  15.395  0.3174  0.3233  0.0234
 3150TIP3    H133645   0.305   2.356  15.449  0.0165  0.5400 -0.3445
 3150TIP3    H233646   0.262   2.295  15.317 -0.9917 -0.8403  0.5932
 3151TIP3   OH233647   6.100   2.823  13.129  0.3296  0.0703 -0.3588
 3151TIP3    H133648   6.060   2.898  13.173 -1.6034 -1.1150  0.0269
 3151TIP3    H233649   6.066   2.825  13.040  0.8394  0.0570 -0.5560
 3152TIP3   OH233650   1.816   6.778  12.814 -0.4264 -0.5682  0.2398
 3152TIP3    H133651   1.827   6.838  12.887 -3.2778  1.1199 -0.5714
 3152TIP3    H233652   1.776   6.700  12.852  1.1735 -1.0868  0.9353
 3153TIP3   OH233653   7.954   6.372  13.797  0.1377  0.1144 -0.5309
 3153TIP3    H133654   7.947   6.378  13.893  1.5247  0.1888 -0.4231
 3153TIP3    H233655   8.024   6.309  13.782  0.0946  0.2886 -1.5064
 3154TIP3   OH233656   2.232   2.406  14.774  0.1066 -0.0835  0.3824
 3154TIP3    H133657   2.212   2.318  14.743 -2.1015 -0.4252  2.4276
 3154TIP3    H233658   2.277   2.394  14.857  0.1912  0.7019  0.4650
 3155TIP3   OH233659   3.408   3.075  13.416  0.4711 -0.2299 -0.4123
 3155TIP3    H133660   3.330   3.020  13.408  0.6943 -0.3749 -2.0138
 3155TIP3    H233661   3.374   3.160  13.445 -0.2650 -0.3615 -0.8396
 3156TIP3   OH233662   3.602   4.846  13.592  0.6055 -0.6668  0.1193
 3156TIP3    H133663   3.529   4.798  13.632  0.3575 -2.3287 -2.1338
 3156TIP3    H233664   3.561   4.904  13.528  1.0914  0.9065  1.1686
 3157TIP3   OH233665   4.379   2.489  13.111  0.0091  0.3628  0.3035
 3157TIP3    H133666   4.454   2.519  13.059 -0.3511 -1.7645 -1.6340
 3157TIP3    H233667   4.307   2.487  13.049 -0.6733 -1.4215  1.0838
 3158TIP3   OH233668   1.074   3.900  14.267 -0.1550 -0.5468 -0.4399
 3158TIP3    H133669   1.014   3.966  14.232 -0.3746 -1.5588 -2.0848
 3158TIP3    H233670   1.160   3.941  14.264 -0.3684 -0.1207 -0.8554
 3159TIP3   OH233671   5.105   7.024  13.577  0.0773  0.1177 -0.1941
 3159TIP3    H133672   5.112   7.007  13.483  1.0626 -1.2299  0.0910
 3159TIP3    H233673   5.193   7.052  13.602 -0.2634  0.7886  0.2759
 3160TIP3   OH233674   5.796   1.424  13.547 -0.4383 -0.8025  0.6330
 3160TIP3    H133675   5.849   1.503  13.558 -2.4026  1.0029 -1.6582
 3160TIP3    H233676   5.855   1.362  13.505  0.5632  0.2646  0.3983
 3161TIP3   OH233677   3.567   0.220  14.066  0.4111  0.1339  0.1745
 3161TIP3    H133678   3.494   0.179  14.019  0.9309  0.9501 -1.4062
 3161TIP3    H233679   3.530   0.243  14.151 -1.2748  0.7693 -0.6859
 3162TIP3   OH233680   2.528   2.891  13.277 -0.2576  0.5537  0.0133
 3162TIP3    H133681   2.612   2.921  13.311  0.6322 -1.7316 -0.0089
 3162TIP3    H233682   2.531   2.912  13.184  0.1183  0.8163  0.0799
 3163TIP3   OH233683   4.177   1.692  14.067 -0.6262 -0.2747 -0.0037
 3163TIP3    H133684   4.245   1.670  14.003 -0.7496  0.1215 -0.2781
 3163TIP3    H233685   4.210   1.657  14.150  0.9331  1.7067  0.2965
 3164TIP3   OH233686   7.022   3.116  15.056 -0.2953 -0.0166 -0.2169
 3164TIP3    H133687   6.964   3.072  15.119  1.5113 -0.6602  1.1074
 3164TIP3    H233688   7.056   3.045  15.001 -1.1078  0.4195 -1.3111
 3165TIP3   OH233689   5.533   0.705  14.416 -0.4847  0.2260  0.1254
 3165TIP3    H133690   5.566   0.752  14.339 -0.3187  1.7348  1.0600
 3165TIP3    H233691   5.440   0.691  14.398 -0.8892  2.2532  0.3791
 3166TIP3   OH233692   2.990   0.755  14.252  0.3150 -0.0336  0.0582
 3166TIP3    H133693   2.934   0.720  14.183  1.5831 -0.2134 -0.9150
 3166TIP3    H233694   3.046   0.682  14.277 -0.2108 -0.0064  1.4030
 3167TIP3   OH233695   4.639   7.443  14.373 -0.2036 -0.0179  0.2392
 3167TIP3    H133696   4.706   7.456  14.441  0.3208 -0.6195 -0.1531
 3167TIP3    H233697   4.664   7.362  14.330  0.0091  0.8220 -1.2897
 3168TIP3   OH233698   3.656   7.958  14.758  0.9107  0.3532  0.2745
 3168TIP3    H133699   3.721   8.026  14.741  2.2070 -1.2804 -1.7691
 3168TIP3    H233700   3.683   7.919  14.841  1.8765  0.4345  0.0069
 3169TIP3   OH233701   3.379   2.725  13.126  0.1712  0.3037 -0.4874
 3169TIP3    H133702   3.289   2.709  13.154  0.3305  0.4986  0.1367
 3169TIP3    H233703   3.383   2.819  13.108  0.5579  0.5032  0.6065
 3170TIP3   OH233704   0.920   4.108  14.164  0.7067  0.2796  0.2162
 3170TIP3    H133705   0.885   4.196  14.154  0.8155  0.3770  0.6584
 3170TIP3    H233706   0.935   4.077  14.075  1.2433  0.9358  0.0743
 3171TIP3   OH233707   4.479   5.367  13.238  0.2562 -0.1790  0.1448
 3171TIP3    H133708   4.456   5.276  13.257  0.2716 -0.2261 -0.0603
 3171TIP3    H233709   4.447   5.382  13.149 -0.5520  0.2868  0.4984
 3172TIP3   OH233710   4.272   0.165  14.095  0.2270  0.2363 -0.3219
 3172TIP3    H133711   4.295   0.257  14.080  0.3886  0.0004 -1.6962
 3172TIP3    H233712   4.342   0.116  14.050  0.2192 -0.5630  0.5096
 3173TIP3   OH233713   3.875   0.726  13.649 -0.0733  0.2737 -0.0789
 3173TIP3    H133714   3.864   0.641  13.692  0.1218  0.5613  0.5481
 3173TIP3    H233715   3.944   0.769  13.698  1.3542 -0.0443 -1.7025
 3174TIP3   OH233716   1.737   1.674  13.671 -0.0393  0.3453  0.0463
 3174TIP3    H133717   1.707   1.742  13.731 -1.9664 -1.6737  1.5489
 3174TIP3    H233718   1.769   1.604  13.728 -1.3608 -1.4070 -1.2335
 3175TIP3   OH233719   1.671   8.108  13.372 -0.0204 -0.1576 -0.4920
 3175TIP3    H133720   1.675   8.190  13.322 -1.2990 -0.9083 -1.9275
 3175TIP3    H233721   1.630   8.132  13.455 -1.9499  0.4431 -1.5370
 3176TIP3   OH233722   6.063   1.074  13.020 -0.4295  0.0565 -0.2099
 3176TIP3    H133723   6.114   1.026  12.955  0.8863  0.4726  0.4877
 3176TIP3    H233724   6.091   1.038  13.104 -1.5758  0.0342  0.1834
 3177TIP3   OH233725   2.938   7.874  14.681  0.1796 -0.3343  0.3619
 3177TIP3    H133726   2.930   7.950  14.623  2.5569 -1.3957 -1.5571
 3177TIP3    H233727   2.927   7.910  14.769 -2.7383  1.4920 -0.6110
 3178TIP3   OH233728   5.310   6.681  13.697 -0.1394  0.1128 -0.3059
 3178TIP3    H133729   5.304   6.600  13.747 -0.0052  1.3595  1.8286
 3178TIP3    H233730   5.281   6.749  13.757  0.6744  1.7853 -1.7197
 3179TIP3   OH233731   2.110   3.055  13.972  0.1337 -0.2293 -0.2770
 3179TIP3    H133732   2.129   3.135  13.924  2.3873  0.0484  0.9208
 3179TIP3    H233733   2.195   3.010  13.979 -0.4451 -1.1541  1.7735
 3180TIP3   OH233734   0.150   5.881  13.118  0.0754  0.0479 -0.5350
 3180TIP3    H133735   0.210   5.858  13.047 -0.8858 -2.6000 -0.5917
 3180TIP3    H233736   0.130   5.798  13.160 -1.9142  1.1286  0.8082
 3181TIP3   OH233737   3.409   5.585  14.041  0.3797 -0.0083 -0.1918
 3181TIP3    H133738   3.334   5.533  14.071 -0.1389  1.4602  1.2670
 3181TIP3    H233739   3.383   5.675  14.060  1.9771  0.6406 -0.9609
 3182TIP3   OH233740   6.152   6.213  13.863 -0.1928  0.2303  0.4664
 3182TIP3    H133741   6.075   6.157  13.870 -0.3118  0.3290 -0.0265
 3182TIP3    H233742   6.130   6.277  13.795  0.1287  0.5714  0.6794
 3183TIP3   OH233743   6.818   3.787  14.868  0.3278 -0.0373 -0.1334
 3183TIP3    H133744   6.798   3.843  14.793 -0.9439  2.0287  1.6325
 3183TIP3    H233745   6.889   3.832  14.913  0.2895 -0.6282  0.5277
 3184TIP3   OH233746   0.656   1.889  13.560 -0.1364 -0.2457 -0.4623
 3184TIP3    H133747   0.628   1.972  13.600 -1.0360 -0.0806 -1.3936
 3184TIP3    H233748   0.643   1.902  13.466  2.4198 -0.4521 -0.9128
 3185TIP3   OH233749   3.713   5.560  13.232 -0.5429 -0.4804  0.0577
 3185TIP3    H133750   3.630   5.535  13.273 -1.1907 -1.5565 -1.7840
 3185TIP3    H233751   3.720   5.503  13.156  2.6839 -1.5143  0.9868
 3186TIP3   OH233752   7.052   5.648  14.528  0.4181  0.5186 -0.1115
 3186TIP3    H133753   7.135   5.606  14.506  0.2625 -0.8799  1.6975
 3186TIP3    H233754   7.077   5.733  14.565  1.0106  0.3626 -0.1354
 3187TIP3   OH233755   4.378   7.509  14.309 -0.2817  0.1810 -0.2549
 3187TIP3    H133756   4.355   7.545  14.394 -0.6855  2.2090 -1.1550
 3187TIP3    H233757   4.470   7.484  14.317 -0.1484  0.9097  0.6092
 3188TIP3   OH233758   4.620   4.200  14.671 -0.4803 -0.7154  0.7223
 3188TIP3    H133759   4.638   4.131  14.607 -0.8383 -0.6831  0.5870
 3188TIP3    H233760   4.600   4.277  14.618  0.5621 -0.3283  0.8675
 3189TIP3   OH233761   6.985   3.030  13.809  0.0007 -0.1064  0.0942
 3189TIP3    H133762   6.932   3.024  13.888  0.5925  1.1687  0.6200
 3189TIP3    H233763   6.952   3.108  13.764  0.4731 -0.1176 -0.2828
 3190TIP3   OH233764   3.454   3.310  12.640  0.3753  0.1570 -0.1193
 3190TIP3    H133765   3.537   3.263  12.633  0.1484 -0.4644  1.0514
 3190TIP3    H233766   3.466   3.389  12.588  1.9143  0.3639  0.5052
 3191TIP3   OH233767   2.611   4.489  14.769  0.4241 -0.2787  0.3950
 3191TIP3    H133768   2.588   4.558  14.706  0.9742  1.7585  2.3068
 3191TIP3    H233769   2.542   4.494  14.835  1.0297 -0.8877  1.0837
 3192TIP3   OH233770   7.538   0.192  13.639 -0.2010 -0.1376  0.1431
 3192TIP3    H133771   7.577   0.209  13.725 -0.8448 -1.3386  0.6937
 3192TIP3    H233772   7.509   0.101  13.643 -0.1497 -0.2440 -1.3976
 3193TIP3   OH233773   7.668   3.181  13.705  0.0782 -0.7101 -0.2677
 3193TIP3    H133774   7.723   3.258  13.691  0.4336 -0.9314 -0.1162
 3193TIP3    H233775   7.585   3.202  13.662  0.1825 -0.2580 -0.2521
 3194TIP3   OH233776   7.632   4.973  15.237 -0.5039  0.7493 -0.4437
 3194TIP3    H133777   7.603   4.923  15.162  2.5259 -1.1523 -0.4951
 3194TIP3    H233778   7.556   4.975  15.295 -1.7418 -1.0682 -1.8842
 3195TIP3   OH233779   2.960   5.918  13.097 -0.3585 -0.6832 -0.5812
 3195TIP3    H133780   2.915   5.859  13.157  1.4562 -0.4079  1.1415
 3195TIP3    H233781   3.016   5.860  13.045  0.1769 -0.6613 -0.0393
 3196TIP3   OH233782   3.709   5.861  13.722  0.6944 -0.0385  0.5557
 3196TIP3    H133783   3.690   5.808  13.800 -2.3526 -0.7273 -0.5185
 3196TIP3    H233784   3.765   5.805  13.668  2.6420  0.3584  2.0812
 3197TIP3   OH233785   3.665   7.350  14.501  0.1686 -0.1016 -0.8085
 3197TIP3    H133786   3.713   7.432  14.507  0.1457 -0.1591  0.4799
 3197TIP3    H233787   3.594   7.358  14.565 -0.4163 -0.7507 -1.3481
 3198TIP3   OH233788   7.337   1.492  15.067 -0.2774  0.3015  0.2783
 3198TIP3    H133789   7.419   1.472  15.023  1.4245  1.7420  2.5387
 3198TIP3    H233790   7.302   1.568  15.020 -0.1743 -0.1555 -0.5394
 3199TIP3   OH233791   6.953   2.901  14.282  0.1996  0.0977 -0.2542
 3199TIP3    H133792   6.927   2.966  14.346 -1.0243 -0.4704 -0.1388
 3199TIP3    H233793   7.048   2.909  14.276  0.0843  1.8635 -0.2406
 3200TIP3   OH233794   0.252   0.927  12.967  0.2484 -0.0608 -0.6145
 3200TIP3    H133795   0.194   0.906  12.894 -1.1072 -0.4365  0.5287
 3200TIP3    H233796   0.194   0.961  13.035  1.4851  0.3494  0.2738
 3201TIP3   OH233797   6.541   7.060  13.031 -0.5668  0.1799  0.3716
 3201TIP3    H133798   6.471   7.125  13.021 -0.7154 -0.0696 -0.2437
 3201TIP3    H233799   6.544   7.016  12.946 -1.5066 -1.6493  1.2377
 3202TIP3   OH233800   3.440   6.431  13.838 -0.0331  0.2273 -0.3468
 3202TIP3    H133801   3.508   6.476  13.787 -0.2715  1.8418  0.6617
 3202TIP3    H233802   3.488   6.363  13.886  0.6369  0.4025 -0.7511
 3203TIP3   OH233803   7.486   1.880  14.686 -0.1211  0.3426 -0.4013
 3203TIP3    H133804   7.534   1.893  14.603 -0.6307 -1.9786 -1.1355
 3203TIP3    H233805   7.395   1.901  14.664 -0.4633 -1.4121 -0.8231
 3204TIP3   OH233806   4.757   2.640  13.225  0.2194  0.3469  0.4175
 3204TIP3    H133807   4.851   2.652  13.240  0.2053  0.6150  0.3075
 3204TIP3    H233808   4.745   2.546  13.219  0.2938  0.2431  1.6431
 3205TIP3   OH233809   2.337   0.913  14.808  0.4490  0.5120  0.0719
 3205TIP3    H133810   2.370   0.972  14.876 -0.8249  1.1942  0.1321
 3205TIP3    H233811   2.243   0.909  14.824  0.1916  0.3487 -1.3950
 3206TIP3   OH233812   7.872   6.314  15.153  0.0218 -0.1173  0.1616
 3206TIP3    H133813   7.824   6.300  15.071 -0.0419  2.0146 -0.2211
 3206TIP3    H233814   7.964   6.302  15.129  0.0573  1.1275 -0.4185
 3207TIP3   OH233815   6.168   4.337  14.623 -0.1327 -0.1106 -0.3247
 3207TIP3    H133816   6.217   4.419  14.628 -0.6138  0.2733 -1.6373
 3207TIP3    H233817   6.106   4.341  14.696 -0.1080  0.6606 -0.3446
 3208TIP3   OH233818   4.281   5.180  14.540  0.5587  0.3189  0.0975
 3208TIP3    H133819   4.342   5.112  14.510 -0.6851 -0.2683 -1.1841
 3208TIP3    H233820   4.208   5.132  14.578 -0.3185  0.9073 -0.7931
 3209TIP3   OH233821   3.323   7.910  15.023 -0.3985 -0.0530  0.1618
 3209TIP3    H133822   3.348   7.994  14.984 -1.3107 -0.3523 -1.1149
 3209TIP3    H233823   3.404   7.876  15.061  0.6282  0.0967 -1.7708
 3210TIP3   OH233824   7.610   3.461  14.230 -0.2446 -0.1904 -0.0615
 3210TIP3    H133825   7.585   3.466  14.322 -1.9399  0.6216 -0.5208
 3210TIP3    H233826   7.554   3.392  14.194 -0.3821  0.2413 -0.6931
 3211TIP3   OH233827   1.006   0.848  13.371  0.7778 -0.1674  0.1715
 3211TIP3    H133828   0.985   0.767  13.417  0.6064  1.0207  2.3346
 3211TIP3    H233829   1.037   0.820  13.285 -0.0753 -2.4617  0.5428
 3212TIP3   OH233830   3.407   4.704  13.719 -0.0149 -0.0999 -0.2143
 3212TIP3    H133831   3.424   4.722  13.812 -0.6762 -1.1879  0.1336
 3212TIP3    H233832   3.312   4.699  13.713  0.0754 -1.4209 -0.6800
 3213TIP3   OH233833   7.100   2.602  13.450 -0.0388  0.2494 -0.0920
 3213TIP3    H133834   7.082   2.606  13.356  1.2686  3.2462 -0.3141
 3213TIP3    H233835   7.021   2.564  13.488 -0.4169 -1.4942 -2.4008
 3214TIP3   OH233836   0.353   6.061  13.609 -0.2075  0.0330  0.2066
 3214TIP3    H133837   0.299   6.138  13.629 -1.6471 -0.9904  0.4659
 3214TIP3    H233838   0.364   6.063  13.514 -1.2293 -0.0307  0.0666
 3215TIP3   OH233839   7.029   0.326  14.345  0.0586 -0.1245 -0.0398
 3215TIP3    H133840   6.962   0.388  14.316  1.0407  1.1656  0.3158
 3215TIP3    H233841   7.100   0.336  14.281 -0.8023 -2.9477 -1.6149
 3216TIP3   OH233842   0.307   1.272  13.703 -0.0049  0.2167  0.0578
 3216TIP3    H133843   0.381   1.309  13.655 -0.9323  0.5260 -1.1929
 3216TIP3    H233844   0.230   1.301  13.654 -1.1735  2.0452  2.7303
 3217TIP3   OH233845   6.532   5.832  14.614 -0.6165  0.3263 -0.3116
 3217TIP3    H133846   6.512   5.811  14.705  0.7331 -0.0405 -0.0650
 3217TIP3    H233847   6.551   5.926  14.614  0.0213  0.2071 -0.0657
 3218TIP3   OH233848   6.377   6.363  12.958  0.1592  0.1399 -0.3273
 3218TIP3    H133849   6.395   6.300  13.029  0.1591  1.1105  0.5598
 3218TIP3    H233850   6.298   6.329  12.916 -1.0801  0.6178  1.4790
 3219TIP3   OH233851   2.022   6.863  14.973 -0.1398  0.3330  0.2154
 3219TIP3    H133852   1.964   6.921  15.023  0.0971  0.6921  0.0781
 3219TIP3    H233853   2.033   6.786  15.029 -0.6721  0.3025  0.2845
 3220TIP3   OH233854   2.882   5.610  13.205  0.0849 -0.3472 -0.1641
 3220TIP3    H133855   2.833   5.589  13.125 -0.1357  0.3427 -0.2220
 3220TIP3    H233856   2.827   5.676  13.249  1.3316  1.0639 -0.6315
 3221TIP3   OH233857   0.418   7.117  14.425 -0.1319 -0.2464  0.2570
 3221TIP3    H133858   0.505   7.076  14.421 -0.0644 -0.3220  1.9443
 3221TIP3    H233859   0.379   7.083  14.505 -0.9793  1.2310  0.4980
 3222TIP3   OH233860   0.464   0.605  14.082  0.7894  0.1476  0.2971
 3222TIP3    H133861   0.414   0.575  14.006 -0.0443  2.5216 -0.1788
 3222TIP3    H233862   0.400   0.653  14.135  2.0792  1.3882  0.7924
 3223TIP3   OH233863   3.223   3.032  13.788 -0.1809  0.4713  0.0158
 3223TIP3    H133864   3.290   3.088  13.749 -0.8492  2.0121  0.9740
 3223TIP3    H233865   3.213   2.960  13.726  3.5114 -0.7510  0.6255
 3224TIP3   OH233866   2.779   2.589  14.486 -0.0253 -1.0627 -0.4046
 3224TIP3    H133867   2.865   2.627  14.468 -0.2198 -0.3775  0.0894
 3224TIP3    H233868   2.792   2.534  14.564 -0.3356  0.1940  0.5625
 3225TIP3   OH233869   3.766   5.388  14.567 -0.5796 -0.6245  0.7312
 3225TIP3    H133870   3.813   5.469  14.590 -0.5418 -0.3798 -0.1356
 3225TIP3    H233871   3.801   5.365  14.480 -2.1897 -0.3287 -0.0252
 3226TIP3   OH233872   2.080   5.225  14.515  0.0573 -0.3411  0.0406
 3226TIP3    H133873   2.136   5.197  14.587  1.4874  1.8279 -0.1315
 3226TIP3    H233874   2.012   5.278  14.557 -0.1954 -0.6029 -0.0352
 3227TIP3   OH233875   0.175   7.731  15.058 -0.1499 -0.5208  0.0425
 3227TIP3    H133876   0.139   7.810  15.098 -0.3462 -0.5621 -0.0510
 3227TIP3    H233877   0.266   7.753  15.039 -0.0997 -0.4447  0.3615
 3228TIP3   OH233878   4.632   1.330  13.067 -0.0455  0.4052 -0.0258
 3228TIP3    H133879   4.689   1.401  13.037  0.8083  0.1791  1.0390
 3228TIP3    H233880   4.571   1.317  12.994  0.4469  1.5133 -0.6632
 3229TIP3   OH233881   7.674   5.334  13.487 -0.1475  0.1170 -0.4151
 3229TIP3    H133882   7.583   5.309  13.503 -0.2307 -0.0519 -1.1042
 3229TIP3    H233883   7.692   5.402  13.551 -1.0890  0.8807 -0.9417
 3230TIP3   OH233884   2.949   3.396  14.283  0.3126 -0.1277  0.0853
 3230TIP3    H133885   2.888   3.406  14.210  0.3664  1.6533  0.2435
 3230TIP3    H233886   3.004   3.321  14.259 -2.0791 -1.9985  0.0849
 3231TIP3   OH233887   1.685   4.620  13.277 -0.2786  0.1823  0.0477
 3231TIP3    H133888   1.703   4.571  13.196  0.6648 -0.8817  0.8666
 3231TIP3    H233889   1.624   4.564  13.325  0.2612  0.1413  0.6867
 3232TIP3   OH233890   3.813   1.489  14.583 -0.8995  0.5467 -0.0165
 3232TIP3    H133891   3.760   1.563  14.614 -1.1542  0.4550 -0.2273
 3232TIP3    H233892   3.875   1.474  14.653 -2.3652 -0.5579  1.1033
 3233TIP3   OH233893   8.370   3.399  12.865  0.1508 -0.4056 -0.1369
 3233TIP3    H133894   8.277   3.391  12.883 -0.1255  1.5589 -0.4993
 3233TIP3    H233895   8.405   3.311  12.883 -1.5005 -0.8095  1.4688
 3234TIP3   OH233896   5.418   2.860  15.326 -0.4846  0.5118 -0.2152
 3234TIP3    H133897   5.393   2.931  15.267 -0.9695 -0.3712 -1.1069
 3234TIP3    H233898   5.342   2.802  15.327  0.3998 -0.6846 -0.5796
 3235TIP3   OH233899   0.639   0.784  13.000 -0.0582 -0.2203 -0.0699
 3235TIP3    H133900   0.692   0.812  12.926 -2.2737  2.2135 -0.8894
 3235TIP3    H233901   0.580   0.718  12.964  0.3202 -0.6583  0.0981
 3236TIP3   OH233902   3.136   5.025  14.578 -0.5911  0.6534 -0.3708
 3236TIP3    H133903   3.177   5.088  14.518  2.7814  0.1281  1.1251
 3236TIP3    H233904   3.140   4.941  14.531  0.2203  0.5883 -0.2011
 3237TIP3   OH233905   6.131   1.584  13.768  0.1714  0.6459  0.0447
 3237TIP3    H133906   6.145   1.650  13.836  1.9691 -0.6019  0.9589
 3237TIP3    H233907   6.206   1.594  13.709  0.7426 -0.8521  0.4667
 3238TIP3   OH233908   5.524   6.067  14.510  0.1191  0.2254  0.0912
 3238TIP3    H133909   5.556   6.150  14.546 -0.6797  1.0471 -1.0205
 3238TIP3    H233910   5.600   6.028  14.467  1.5127 -1.4776  3.6613
 3239TIP3   OH233911   4.957   3.158  13.113  0.3336 -0.1699 -0.5625
 3239TIP3    H133912   5.041   3.194  13.143 -0.5660 -0.2721  2.4458
 3239TIP3    H233913   4.892   3.223  13.141 -0.8242 -1.4332 -0.2184
 3240TIP3   OH233914   0.806   6.621  13.604  0.5353 -0.0188 -0.3020
 3240TIP3    H133915   0.757   6.603  13.524  1.2052 -0.6456 -0.5769
 3240TIP3    H233916   0.860   6.697  13.583 -1.3884  1.6919  0.4772
 3241TIP3   OH233917   2.932   6.371  13.608 -0.1831  0.3250 -0.6908
 3241TIP3    H133918   2.901   6.328  13.529  0.9418 -1.8731 -0.0480
 3241TIP3    H233919   3.026   6.384  13.593 -0.3180  1.6508 -0.4541
 3242TIP3   OH233920   6.102   0.223  12.408 -0.3055  0.0725  0.3201
 3242TIP3    H133921   6.056   0.154  12.456  0.0253 -0.2916  0.1279
 3242TIP3    H233922   6.052   0.302  12.425 -0.6416 -0.2000  0.6197
 3243TIP3   OH233923   7.625   3.296  15.004  0.2764 -0.0902 -0.2374
 3243TIP3    H133924   7.610   3.223  14.944 -2.4043  0.4463 -0.3373
 3243TIP3    H233925   7.683   3.260  15.072 -2.3548 -2.9538  0.7167
 3244TIP3   OH233926   7.873   5.377  14.161  0.2654  0.3308  0.5602
 3244TIP3    H133927   7.957   5.330  14.156  0.0417  0.0240 -0.4640
 3244TIP3    H233928   7.896   5.464  14.193  0.8816  0.0217  0.9790
 3245TIP3   OH233929   5.821   4.635  12.956  0.5320 -0.6308 -0.1794
 3245TIP3    H133930   5.913   4.651  12.978  0.8237 -0.1993 -1.5867
 3245TIP3    H233931   5.776   4.715  12.981  0.6818 -0.5436 -0.1856
 3246TIP3   OH233932   2.821   5.037  13.942  0.0945  0.3906  0.0749
 3246TIP3    H133933   2.880   5.067  14.011 -0.3406  1.1458  0.1299
 3246TIP3    H233934   2.735   5.034  13.984  0.0494 -0.5401 -0.0503
 3247TIP3   OH233935   1.172   0.010  13.220  0.0322  0.1432  0.3041
 3247TIP3    H133936   1.127  -0.066  13.183  0.2580  0.3552 -0.4214
 3247TIP3    H233937   1.182   0.070  13.146  1.8874 -0.0855  0.3237
 3248TIP3   OH233938   4.255   5.211  13.945  0.5638 -0.2183 -0.5695
 3248TIP3    H133939   4.274   5.122  13.916 -0.8283 -0.0994 -1.9867
 3248TIP3    H233940   4.330   5.263  13.914  1.1330 -0.7906 -0.1831
 3249TIP3   OH233941   7.379   1.964  14.927 -0.8138  0.4080  0.1273
 3249TIP3    H133942   7.290   1.945  14.957 -0.9381 -0.8363 -0.9540
 3249TIP3    H233943   7.401   1.892  14.868  1.0672  0.4832  0.6681
 3250TIP3   OH233944   3.894   8.218  14.175  0.1986  0.1033  0.1407
 3250TIP3    H133945   3.832   8.264  14.118  0.9565  1.2200  0.1952
 3250TIP3    H233946   3.971   8.275  14.179  1.2964 -1.3018 -0.0150
 3251TIP3   OH233947   2.498   7.384  14.065 -0.2299 -0.3654  0.3378
 3251TIP3    H133948   2.446   7.420  14.137  0.1379  0.3379  0.2618
 3251TIP3    H233949   2.520   7.461  14.011 -0.7116 -0.9051 -0.6630
 3252TIP3   OH233950   1.054   3.367  13.514  0.2489 -0.4200 -0.1994
 3252TIP3    H133951   0.976   3.319  13.541  0.7301 -0.1816  1.8080
 3252TIP3    H233952   1.127   3.309  13.539  0.7384 -0.6996 -2.1625
 3253TIP3   OH233953   0.888   6.302  12.975  0.3953  0.4428 -0.5116
 3253TIP3    H133954   0.951   6.235  13.001 -1.2263 -0.5990  0.9273
 3253TIP3    H233955   0.940   6.365  12.925  2.5789 -0.2999  0.6855
 3254TIP3   OH233956   4.535   4.135  14.922 -0.2685  0.2164 -0.7979
 3254TIP3    H133957   4.618   4.141  14.970 -1.6947  1.6180  1.7176
 3254TIP3    H233958   4.554   4.173  14.836  1.6123  0.7826 -0.1744
 3255TIP3   OH233959   1.918   6.538  14.078 -0.3616 -0.2396 -0.0129
 3255TIP3    H133960   1.967   6.456  14.081  0.1518  0.0907  1.4941
 3255TIP3    H233961   1.910   6.558  13.984  1.0255 -1.1003 -0.3396
 3256TIP3   OH233962   8.157   2.593  14.726 -0.4618 -0.4933  0.3506
 3256TIP3    H133963   8.123   2.526  14.667 -1.1672 -0.6362  0.9109
 3256TIP3    H233964   8.101   2.588  14.804  0.3127 -0.1612  0.9475
 3257TIP3   OH233965   5.588   2.676  14.434 -0.2042 -0.3280  0.4413
 3257TIP3    H133966   5.651   2.609  14.459 -0.8266 -1.7034 -1.3754
 3257TIP3    H233967   5.567   2.722  14.515  2.6182 -0.2144  1.2103
 3258TIP3   OH233968   8.053   3.976  13.667  0.4586 -0.5211 -0.3143
 3258TIP3    H133969   7.974   3.990  13.614 -0.0638  1.6494  0.9349
 3258TIP3    H233970   8.069   3.882  13.660 -2.3444 -1.0856 -0.4857
 3259TIP3   OH233971   6.000   2.872  14.259  0.6593 -0.1097  0.0815
 3259TIP3    H133972   6.001   2.798  14.320 -1.6858  0.1016  0.4855
 3259TIP3    H233973   6.012   2.949  14.315 -1.2816  0.0685  0.3295
 3260TIP3   OH233974   3.805   4.088  13.254  0.0803  0.3772 -0.6091
 3260TIP3    H133975   3.900   4.079  13.255  0.0287 -0.2067  0.0810
 3260TIP3    H233976   3.778   4.067  13.344 -0.4610  3.2798 -0.0112
 3261TIP3   OH233977   6.665   3.672  13.379  0.0224 -0.1404 -0.7978
 3261TIP3    H133978   6.689   3.594  13.430  0.3703 -0.1043 -0.9050
 3261TIP3    H233979   6.656   3.741  13.445  1.5495  0.1713 -0.8716
 3262TIP3   OH233980   4.683   8.198  13.106 -0.1940  0.1358  0.8372
 3262TIP3    H133981   4.631   8.278  13.111 -0.3769  0.0554  0.2332
 3262TIP3    H233982   4.773   8.229  13.098 -0.1537  0.2738  1.6822
 3263TIP3   OH233983   6.951   5.876  14.982 -0.7831  0.3111 -0.5132
 3263TIP3    H133984   6.993   5.930  14.916 -1.3829  1.2243 -0.1663
 3263TIP3    H233985   6.947   5.931  15.060  0.8562 -1.1067  0.6382
 3264TIP3   OH233986   4.018   4.005  14.863  0.2878 -0.4514  0.1765
 3264TIP3    H133987   4.089   3.948  14.892  1.1197  0.9522  1.0246
 3264TIP3    H233988   4.059   4.065  14.801 -0.2469  0.1752  0.4223
 3265TIP3   OH233989   7.876   3.330  14.139 -0.2463 -0.0806  0.0942
 3265TIP3    H133990   7.840   3.409  14.100 -2.1607 -1.5862 -1.4218
 3265TIP3    H233991   7.964   3.355  14.167 -0.6275  2.4429 -0.6924
 3266TIP3   OH233992   1.871   7.162  14.658 -0.2301 -0.2514  0.0637
 3266TIP3    H133993   1.785   7.184  14.623 -0.4909 -1.1698  0.0923
 3266TIP3    H233994   1.872   7.066  14.661  0.5518 -0.2391  0.6609
 3267TIP3   OH233995   6.738   1.627  13.716  0.4666 -0.2240 -0.3166
 3267TIP3    H133996   6.701   1.689  13.653  1.3394  1.3863  0.6883
 3267TIP3    H233997   6.741   1.544  13.669  0.2109  0.7123 -2.0689
 3268TIP3   OH233998   3.598   5.739  14.792 -0.4155 -0.0343  0.4623
 3268TIP3    H133999   3.680   5.699  14.766 -1.3344 -1.5234 -0.2990
 3268TIP3    H234000   3.620   5.830  14.809  0.8429  0.3714 -2.6499
 3269TIP3   OH234001   1.927   6.300  14.745 -0.0972 -0.1107  0.1131
 3269TIP3    H134002   1.980   6.226  14.714 -2.2300 -1.6400 -0.0580
 3269TIP3    H234003   1.965   6.376  14.701  1.5181 -1.2291 -0.5273
 3270TIP3   OH234004   1.284   6.900  15.145 -0.1686  0.1183  0.2777
 3270TIP3    H134005   1.263   6.831  15.208  1.0254 -0.9357 -0.4158
 3270TIP3    H234006   1.217   6.891  15.077  0.3280 -0.7868 -0.1093
 3271TIP3   OH234007   6.419   8.135  14.325  0.4822 -0.5555  0.2370
 3271TIP3    H134008   6.402   8.050  14.365 -1.0538 -0.4069 -0.0411
 3271TIP3    H234009   6.359   8.195  14.368  1.0255  0.2506 -0.0904
 3272TIP3   OH234010   3.405   0.119  13.877  0.0976  0.7373  0.3608
 3272TIP3    H134011   3.379   0.028  13.866  0.3113  0.6177  0.8172
 3272TIP3    H234012   3.323   0.168  13.867  0.0758  0.5508 -0.4718
 3273TIP3   OH234013   0.039   3.780  15.005 -0.2866  0.4001 -0.0380
 3273TIP3    H134014  -0.027   3.724  15.047 -2.2580  2.3408 -0.3632
 3273TIP3    H234015   0.089   3.816  15.078  0.6982 -1.3556  0.1989
 3274TIP3   OH234016   8.234   5.901  13.707 -0.5554 -0.2104  0.5282
 3274TIP3    H134017   8.252   5.809  13.725  0.3547  0.4900  4.0089
 3274TIP3    H234018   8.277   5.918  13.624  1.7537 -2.3087  1.1693
 3275TIP3   OH234019   2.822   4.768  13.224  0.0778 -0.0295 -0.3714
 3275TIP3    H134020   2.811   4.822  13.302  0.1237  0.6160 -0.7985
 3275TIP3    H234021   2.735   4.731  13.208  0.6792 -2.5747  1.6527
 3276TIP3   OH234022   4.787   5.317  12.963 -0.3044  0.5742  0.1549
 3276TIP3    H134023   4.860   5.377  12.947 -0.4862  0.8934  0.5112
 3276TIP3    H234024   4.710   5.374  12.971 -0.7203  0.1931 -0.9460
 3277TIP3   OH234025   7.013   0.349  13.752  0.3365  0.4657 -0.0868
 3277TIP3    H134026   7.062   0.296  13.689  0.0444  0.4344 -0.2888
 3277TIP3    H234027   6.922   0.341  13.724  0.0056 -0.8162  1.2437
 3278TIP3   OH234028   6.342   8.240  15.201 -0.3581 -0.0177 -0.4088
 3278TIP3    H134029   6.419   8.228  15.146 -0.6992  0.5687 -1.0350
 3278TIP3    H234030   6.283   8.169  15.175 -0.3262 -0.0275 -0.4572
 3279TIP3   OH234031   0.211   8.346  14.413 -0.2462  0.2960 -0.3920
 3279TIP3    H134032   0.278   8.397  14.368 -0.0893  2.0014  1.5991
 3279TIP3    H234033   0.257   8.306  14.487 -1.2207  0.7966  0.5220
 3280TIP3   OH234034   6.198   8.347  13.528  0.3146 -0.0753  0.4463
 3280TIP3    H134035   6.216   8.253  13.537 -0.2127 -0.0187  2.5985
 3280TIP3    H234036   6.195   8.380  13.618  1.6782  2.2660 -0.2769
 3281TIP3   OH234037   5.916   7.770  14.657 -0.4629  0.0943  0.0190
 3281TIP3    H134038   5.944   7.696  14.711  3.4802  0.3798 -1.2987
 3281TIP3    H234039   5.865   7.731  14.587  1.3632 -1.4742 -0.5304
 3282TIP3   OH234040   0.989   0.271  13.739 -0.3749 -1.0798 -0.4475
 3282TIP3    H134041   1.034   0.269  13.654  1.0312 -1.7093  0.2829
 3282TIP3    H234042   1.033   0.204  13.791 -1.8310 -1.3466  0.4974
 3283TIP3   OH234043   1.868   4.438  13.822  0.1154  0.4284  0.6225
 3283TIP3    H134044   1.829   4.384  13.891  0.0439 -0.2857  0.0320
 3283TIP3    H234045   1.963   4.429  13.834  0.1037  0.4107  0.7008
 3284TIP3   OH234046   5.401   3.385  13.691  0.1938  0.4374 -0.1384
 3284TIP3    H134047   5.324   3.364  13.743  0.4406  0.3945  0.2125
 3284TIP3    H234048   5.370   3.381  13.600  0.0310 -0.6307 -0.0479
 3285TIP3   OH234049   0.128   5.577  14.069  0.2287  0.6821  0.4367
 3285TIP3    H134050   0.160   5.659  14.030  1.0373  0.3214  0.3288
 3285TIP3    H234051   0.067   5.542  14.004  0.4386  0.8364  0.1532
 3286TIP3   OH234052   6.745   8.033  13.983 -0.0931 -0.0497 -0.9411
 3286TIP3    H134053   6.716   7.946  14.008 -0.3970  0.1156 -0.7147
 3286TIP3    H234054   6.785   8.022  13.897 -1.7697 -0.0910 -1.7384
 3287TIP3   OH234055   4.394   4.508  14.710 -0.0781 -0.3440  0.3379
 3287TIP3    H134056   4.464   4.520  14.774  0.6840 -1.7701 -0.1718
 3287TIP3    H234057   4.339   4.585  14.720  1.0247  0.3473  1.4405
 3288TIP3   OH234058   7.855   8.431  14.230  0.0318  0.0451  0.0096
 3288TIP3    H134059   7.853   8.399  14.140 -1.3445 -0.6315  0.2541
 3288TIP3    H234060   7.937   8.398  14.266  1.3995  1.6577 -1.4309
 3289TIP3   OH234061   6.399   0.046  14.310 -0.0943 -0.0821  0.1799
 3289TIP3    H134062   6.366  -0.034  14.269  0.4710 -0.4933  0.5047
 3289TIP3    H234063   6.368   0.042  14.400 -2.8541  1.6910 -0.5707
 3290TIP3   OH234064   3.843   3.171  14.401  0.2394 -0.0360 -0.0907
 3290TIP3    H134065   3.924   3.148  14.357  0.8023 -1.7716  1.6814
 3290TIP3    H234066   3.774   3.142  14.342  0.9276 -4.6008  0.9581
 3291TIP3   OH234067   7.693   3.506  14.820 -0.0878 -0.2036 -0.1888
 3291TIP3    H134068   7.755   3.440  14.789 -1.4599 -0.9333 -1.5861
 3291TIP3    H234069   7.643   3.461  14.889  1.1250  0.5036  1.2004
 3292TIP3   OH234070   3.986   4.836  14.445  0.3061 -0.1388  0.1785
 3292TIP3    H134071   3.981   4.754  14.394  0.1905 -0.4675  0.7164
 3292TIP3    H234072   3.988   4.807  14.536  1.3615  0.4111  0.3448
 3293TIP3   OH234073   7.251   1.625  14.272 -0.2868 -0.2248 -0.5616
 3293TIP3    H134074   7.288   1.701  14.316 -0.3992 -0.6772  0.3355
 3293TIP3    H234075   7.208   1.575  14.342 -2.3391  0.1232 -1.4724
 3294TIP3   OH234076   6.215   3.649  13.943 -0.4272  0.5866 -0.2186
 3294TIP3    H134077   6.303   3.612  13.952 -0.4952  0.4789  0.0220
 3294TIP3    H234078   6.177   3.642  14.031 -0.9159  0.0270 -0.4711
 3295TIP3   OH234079   6.298   4.612  13.575  0.3876  0.6069  0.2925
 3295TIP3    H134080   6.360   4.685  13.568  1.1773  0.0198  0.9850
 3295TIP3    H234081   6.280   4.605  13.669  1.0221 -0.6364  0.3474
 3296TIP3   OH234082   0.976   6.832  14.403  0.1774  0.1261  0.4585
 3296TIP3    H134083   0.904   6.824  14.466 -1.2807  0.6928 -1.0578
 3296TIP3    H234084   1.003   6.742  14.387 -0.1089 -0.0923  1.1279
 3297TIP3   OH234085   8.423   1.335  13.136 -0.0325 -0.2022  0.5574
 3297TIP3    H134086   8.349   1.316  13.079 -0.1887  2.5161 -0.3159
 3297TIP3    H234087   8.500   1.315  13.084 -0.1896  0.8904 -0.1485
 3298TIP3   OH234088   8.253   5.843  13.193  0.7213  0.0447  0.4524
 3298TIP3    H134089   8.253   5.810  13.103 -0.5206 -0.7972  0.7324
 3298TIP3    H234090   8.321   5.910  13.194 -0.0155  0.8930 -1.4349
 3299TIP3   OH234091   5.907   4.381  13.208  0.1945 -0.0144 -0.1339
 3299TIP3    H134092   5.850   4.331  13.149 -1.1010  1.6881 -0.4090
 3299TIP3    H234093   5.981   4.323  13.225 -0.5933 -1.4888 -1.4786
 3300TIP3   OH234094   3.750   6.833  13.655 -0.5381  0.3345  0.4581
 3300TIP3    H134095   3.772   6.921  13.684  0.1209  0.2246  0.3172
 3300TIP3    H234096   3.834   6.785  13.657 -0.9432 -0.3818  0.8703
 3301TIP3   OH234097   6.993   1.108  15.345  0.2184 -0.2053 -0.2526
 3301TIP3    H134098   7.044   1.164  15.287  0.5743  0.8008  0.9810
 3301TIP3    H234099   7.040   1.113  15.429  0.1266 -2.1823 -0.0512
 3302TIP3   OH234100   3.567   6.300  14.240  0.2346  0.0316  0.1524
 3302TIP3    H134101   3.647   6.248  14.227 -0.3568 -0.6438 -0.9673
 3302TIP3    H234102   3.593   6.370  14.299  2.0032  0.6198 -1.2505
 3303TIP3   OH234103   2.655   7.666  13.432  0.2916  0.3361  0.3971
 3303TIP3    H134104   2.628   7.609  13.505 -2.1296  1.0777  0.1576
 3303TIP3    H234105   2.743   7.636  13.410 -0.0486 -1.8545  1.7047
 3304TIP3   OH234106   0.756   6.916  13.056  0.3628  0.3928  0.1045
 3304TIP3    H134107   0.706   6.954  12.984 -0.2715  0.8813  0.7920
 3304TIP3    H234108   0.847   6.935  13.035  0.2487 -0.2280 -1.0043
 3305TIP3   OH234109   8.155   6.321  15.081 -0.1851  0.4518 -0.3918
 3305TIP3    H134110   8.157   6.410  15.045  0.0608  0.0006 -1.5440
 3305TIP3    H234111   8.247   6.295  15.085 -0.3074 -0.1330 -1.0879
 3306TIP3   OH234112   0.165   1.004  13.989  0.2844  0.2114 -0.2739
 3306TIP3    H134113   0.175   0.942  13.917 -0.6819 -0.1192 -0.1369
 3306TIP3    H234114   0.075   1.036  13.980 -0.8220 -1.8142  2.3166
 3307TIP3   OH234115   7.663   4.349  14.599  0.0859  0.2198  0.7309
 3307TIP3    H134116   7.574   4.373  14.627  0.6063  2.7092  0.4633
 3307TIP3    H234117   7.652   4.265  14.555 -2.6450  1.5726 -1.5685
 3308TIP3   OH234118   3.809   0.949  14.747 -0.0658 -0.2983 -0.0295
 3308TIP3    H134119   3.764   0.892  14.808  0.3215 -2.1654 -1.3968
 3308TIP3    H234120   3.900   0.918  14.748  0.0804  0.0506 -1.0415
 3309TIP3   OH234121   5.510   3.403  14.068  0.1297 -0.0893  0.4943
 3309TIP3    H134122   5.593   3.355  14.060  0.3074  0.4566 -1.8724
 3309TIP3    H234123   5.447   3.337  14.097  1.0109 -0.9967  0.4237
 3310TIP3   OH234124   4.862   0.749  12.898 -0.1170  0.0806 -0.2776
 3310TIP3    H134125   4.877   0.838  12.866 -0.4782  0.1503 -0.2543
 3310TIP3    H234126   4.927   0.696  12.851  1.3265  0.6115  1.0341
 3311TIP3   OH234127   6.461   3.552  14.190 -0.6967  0.1386 -0.8510
 3311TIP3    H134128   6.482   3.546  14.097 -0.9183  0.6416 -0.9373
 3311TIP3    H234129   6.390   3.489  14.203  0.3092 -0.9875 -0.7178
 3312TIP3   OH234130   8.040   3.672  13.660 -0.3893 -0.6830  0.1225
 3312TIP3    H134131   8.125   3.628  13.666 -0.3056 -0.4917  0.3630
 3312TIP3    H234132   8.020   3.697  13.750 -0.2512  0.1187 -0.0653
 3313TIP3   OH234133   5.467   1.697  14.140  0.1478 -0.3104 -0.3596
 3313TIP3    H134134   5.387   1.646  14.126 -0.2826  0.0385  0.7160
 3313TIP3    H234135   5.522   1.641  14.194  0.3625 -0.2808 -0.5438
 3314TIP3   OH234136   0.425   1.230  14.968  0.2798 -0.3462  0.9321
 3314TIP3    H134137   0.476   1.154  14.938  0.3934 -0.1131  0.5154
 3314TIP3    H234138   0.403   1.211  15.059  0.9205 -0.5546  1.0459
 3315TIP3   OH234139   2.768   4.130  13.900  0.4120 -0.5729  0.4001
 3315TIP3    H134140   2.846   4.126  13.844  0.5294 -3.3226  0.6097
 3315TIP3    H234141   2.696   4.107  13.842  0.0974 -0.4500  0.7414
 3316TIP3   OH234142   5.034   3.095  14.081  0.1233  0.1345 -0.0547
 3316TIP3    H134143   5.083   3.017  14.055 -2.6864 -2.1417  0.9556
 3316TIP3    H234144   4.952   3.090  14.033  0.4024  3.4188 -1.1582
 3317TIP3   OH234145   5.591   0.224  12.693 -0.2588 -0.5961 -0.1077
 3317TIP3    H134146   5.655   0.261  12.754 -0.3349 -0.0465 -0.3509
 3317TIP3    H234147   5.574   0.136  12.726  1.7648 -1.3322 -0.8853
 3318TIP3   OH234148   6.248   1.634  13.171  0.2504  0.7516 -0.1240
 3318TIP3    H134149   6.213   1.594  13.092 -1.2348  1.1504  0.3114
 3318TIP3    H234150   6.234   1.569  13.240  1.1734  0.5667 -0.0900
 3319TIP3   OH234151   4.044   0.107  14.758 -0.0058  0.1825 -0.0461
 3319TIP3    H134152   4.134   0.128  14.733 -0.6374 -0.9317 -3.9205
 3319TIP3    H234153   4.045   0.013  14.775 -0.3408  0.2594  0.4099
 3320TIP3   OH234154   7.280   5.548  15.248 -0.5276  0.3659  0.0225
 3320TIP3    H134155   7.337   5.472  15.264 -1.6616 -0.3406  0.8460
 3320TIP3    H234156   7.243   5.532  15.162 -1.5266 -0.5505  0.5953
 3321TIP3   OH234157   4.907   8.214  14.673  0.6012  0.6919 -0.1611
 3321TIP3    H134158   4.845   8.286  14.684  0.1579  0.1485  1.1763
 3321TIP3    H234159   4.972   8.246  14.610  0.6260  2.4003  0.6828
 3322TIP3   OH234160   3.536   3.620  13.418  0.3961  0.0985 -0.4358
 3322TIP3    H134161   3.603   3.570  13.463  0.6790  1.1059  0.2864
 3322TIP3    H234162   3.558   3.612  13.325  0.8863 -0.4611 -0.2732
 3323TIP3   OH234163   0.590   3.106  13.715 -0.2140 -0.1244  0.3928
 3323TIP3    H134164   0.517   3.060  13.674 -0.6533 -0.1532  1.1778
 3323TIP3    H234165   0.621   3.045  13.782 -0.2566  0.3742  0.8712
 3324TIP3   OH234166   2.055   3.802  14.941 -0.3954  0.2533  0.0560
 3324TIP3    H134167   1.983   3.815  15.003 -3.4390 -2.9148 -2.4088
 3324TIP3    H234168   2.034   3.859  14.867 -1.3037 -1.7004 -1.2731
 3325TIP3   OH234169   0.755   6.467  14.195 -0.0388  0.5105 -0.5594
 3325TIP3    H134170   0.844   6.484  14.164 -0.1611 -0.6952 -1.6313
 3325TIP3    H234171   0.719   6.405  14.132 -1.2497  0.0883  0.5090
 3326TIP3   OH234172   1.851   6.086  14.901  0.2272 -0.1045 -0.8350
 3326TIP3    H134173   1.827   6.169  14.859  1.3395 -0.1677 -1.6534
 3326TIP3    H234174   1.810   6.089  14.987  2.3923  2.4686  0.2002
 3327TIP3   OH234175   3.306   4.617  12.623  0.4516  0.0194 -0.2374
 3327TIP3    H134176   3.307   4.626  12.718  0.4479  0.3607 -0.2702
 3327TIP3    H234177   3.301   4.522  12.608 -0.0359 -0.0126  0.1063
 3328TIP3   OH234178   4.824   4.740  14.126  0.0455  0.3617  0.3733
 3328TIP3    H134179   4.900   4.684  14.137 -0.3927 -0.4991 -0.8156
 3328TIP3    H234180   4.756   4.682  14.092  0.3825  2.0548 -3.7384
 3329TIP3   OH234181   7.661   4.072  14.552 -0.0401 -0.3073 -0.0100
 3329TIP3    H134182   7.597   4.027  14.607 -0.7313 -0.6531 -1.0690
 3329TIP3    H234183   7.725   4.005  14.531 -0.2111 -0.3873 -0.2806
 3330TIP3   OH234184   5.183   8.184  14.170 -0.0310  0.2486 -0.3448
 3330TIP3    H134185   5.260   8.240  14.177  0.0413  0.2755 -1.2357
 3330TIP3    H234186   5.111   8.245  14.151  0.4926 -0.0632 -4.3647
 3331TIP3   OH234187   7.399   2.859  14.837 -0.2070  0.0177 -0.1838
 3331TIP3    H134188   7.307   2.878  14.850 -0.6493 -1.6977 -0.5484
 3331TIP3    H234189   7.400   2.790  14.771  1.2203 -1.2657  1.0998
 3332TIP3   OH234190   7.462   5.737  14.731  0.4087  0.2911  0.1362
 3332TIP3    H134191   7.515   5.812  14.758  0.2668  0.0787  1.0533
 3332TIP3    H234192   7.414   5.712  14.810 -0.8492  0.3004 -0.5953
 3333TIP3   OH234193   1.936   5.509  14.113  0.0380 -0.2356 -0.1434
 3333TIP3    H134194   1.973   5.426  14.082 -0.4296 -0.3652 -0.3562
 3333TIP3    H234195   1.844   5.490  14.129 -0.1535  0.3396 -0.5429
 3334TIP3   OH234196   8.442   4.231  14.139 -0.1089  0.5495  0.4578
 3334TIP3    H134197   8.394   4.313  14.149 -0.3250  0.5096 -0.2413
 3334TIP3    H234198   8.401   4.187  14.065  1.4884  0.8694 -0.6572
 3335TIP3   OH234199   4.607   4.800  14.706  0.1142 -0.1568  0.3088
 3335TIP3    H134200   4.652   4.767  14.628 -1.2017 -0.3464 -0.4014
 3335TIP3    H234201   4.634   4.741  14.777 -0.2110 -1.1914 -0.4106
 3336TIP3   OH234202   0.815   3.229  13.575 -0.5884  0.3644 -0.3667
 3336TIP3    H134203   0.857   3.150  13.540 -1.3571 -0.3413  0.2356
 3336TIP3    H234204   0.731   3.197  13.609 -1.2653  1.5931 -0.8340
 3337TIP3   OH234205   5.303   7.345  13.768 -0.2584 -0.6708 -0.4092
 3337TIP3    H134206   5.283   7.437  13.750  0.3372 -0.5305 -0.3827
 3337TIP3    H234207   5.317   7.306  13.682 -1.0663 -0.8749 -0.4560
 3338TIP3   OH234208   6.909   7.989  15.056 -0.0148  0.1154  0.7996
 3338TIP3    H134209   6.911   7.897  15.083 -2.3739  0.8166  3.9341
 3338TIP3    H234210   6.820   8.004  15.025  0.5092  1.2311 -0.2651
 3339TIP3   OH234211   1.904   5.284  14.731 -0.2352 -0.1236  0.6551
 3339TIP3    H134212   1.873   5.324  14.812 -0.2412  0.8347  0.1930
 3339TIP3    H234213   1.951   5.205  14.760 -2.9012 -1.5612  1.3694
 3340TIP3   OH234214   5.891   5.233  14.108 -0.1498  0.0953 -0.3816
 3340TIP3    H134215   5.891   5.174  14.184 -0.6011  0.3756 -0.1578
 3340TIP3    H234216   5.981   5.262  14.100 -0.0938  0.0484  0.0415
 3341TIP3   OH234217   8.045   3.304  13.903  0.2145  0.5190 -0.3710
 3341TIP3    H134218   7.956   3.304  13.936  0.2305  1.2853 -0.2971
 3341TIP3    H234219   8.099   3.278  13.977  0.0671  0.2559 -0.3586
 3342TIP3   OH234220   5.593   6.672  13.622  0.0198  0.3954 -0.0328
 3342TIP3    H134221   5.500   6.649  13.629  0.3314 -1.2138 -0.6785
 3342TIP3    H234222   5.635   6.590  13.596  1.7225  0.9346  0.9283
 3343TIP3   OH234223   5.745   8.041  13.532 -0.4832  0.0888 -0.3107
 3343TIP3    H134224   5.672   8.028  13.593  0.3716  0.7029  0.8868
 3343TIP3    H234225   5.764   7.953  13.499 -3.4127  0.1777 -2.7211
 3344TIP3   OH234226   2.205   6.977  14.803  0.2179  0.3962 -0.1724
 3344TIP3    H134227   2.172   6.941  14.885  2.4766  0.6953  0.9515
 3344TIP3    H234228   2.286   7.021  14.827  0.6851  0.9468 -2.4994
 3345TIP3   OH234229   6.811   5.799  14.419 -0.2357  0.9316  0.1252
 3345TIP3    H134230   6.879   5.865  14.407 -0.6393  1.7109  1.8271
 3345TIP3    H234231   6.816   5.775  14.511 -0.6217 -0.8674 -0.2872
 3346TIP3   OH234232   6.283   6.129  15.061  0.3182  0.4307 -0.4454
 3346TIP3    H134233   6.257   6.037  15.049 -0.4721  0.5799  0.0741
 3346TIP3    H234234   6.252   6.152  15.148  1.4654  0.8844 -0.1401
 3347TIP3   OH234235   4.961   4.429  15.074 -0.0104  0.3197 -0.9760
 3347TIP3    H134236   4.893   4.420  15.007  1.4883 -0.2156 -2.4967
 3347TIP3    H234237   5.001   4.343  15.079  0.3176  0.5219  0.1943
 3348TIP3   OH234238   2.080   1.364  14.962  0.3091  0.0839 -0.7758
 3348TIP3    H134239   2.009   1.428  14.966  0.5952  0.3926 -0.5631
 3348TIP3    H234240   2.041   1.282  14.995 -0.2864 -0.0732 -1.8344
 3349TIP3   OH234241   8.114   7.692  14.344 -0.0006 -0.0304 -0.7032
 3349TIP3    H134242   8.201   7.657  14.364 -0.1848  0.3350  0.8921
 3349TIP3    H234243   8.069   7.619  14.301  0.8666 -0.4510 -0.9328
 3350TIP3   OH234244   8.167   2.720  14.355  0.5837 -0.2662  0.0976
 3350TIP3    H134245   8.124   2.791  14.402  2.0816  1.4476 -0.9826
 3350TIP3    H234246   8.116   2.711  14.274  1.6557  1.1929 -0.7993
 3351TIP3   OH234247   1.332   5.480  14.942  0.3914  0.0384 -0.4155
 3351TIP3    H134248   1.254   5.463  14.891  0.1392 -0.2305  0.0525
 3351TIP3    H234249   1.402   5.433  14.896  0.8884  2.5221 -2.4433
 3352TIP3   OH234250   7.379   0.081  15.070  0.6047 -0.7407 -0.3045
 3352TIP3    H134251   7.467   0.042  15.065 -0.1203 -2.7537  1.0882
 3352TIP3    H234252   7.322   0.015  15.031 -0.2394  0.9052 -1.9513
 3353TIP3   OH234253   2.276   7.040  14.281  0.6222  0.2099  0.2672
 3353TIP3    H134254   2.220   7.018  14.355  0.3187 -0.6418 -0.1943
 3353TIP3    H234255   2.317   7.123  14.305 -1.5416  1.3496  0.2208
 3354TIP3   OH234256   1.381   3.263  13.290 -0.7186  0.1385 -0.3058
 3354TIP3    H134257   1.409   3.300  13.206  1.9445  1.5859  1.0669
 3354TIP3    H234258   1.299   3.218  13.271 -1.1556  1.9377 -3.3071
 3355TIP3   OH234259   7.621   1.030  13.553 -0.2004 -0.0132  0.1570
 3355TIP3    H134260   7.671   1.109  13.574  1.1439 -1.1795  1.6001
 3355TIP3    H234261   7.645   0.967  13.621  0.6256 -2.4826 -2.2338
 3356TIP3   OH234262   4.176   3.557  14.099  0.0413  0.5476 -0.3553
 3356TIP3    H134263   4.139   3.645  14.109  0.0556  0.6229 -0.9472
 3356TIP3    H234264   4.163   3.536  14.006  0.0597 -0.0645 -0.2221
 3357TIP3   OH234265   6.454   3.171  14.152  0.1543 -0.0965 -0.4179
 3357TIP3    H134266   6.498   3.091  14.180  0.0238 -0.0799 -0.1674
 3357TIP3    H234267   6.365   3.163  14.185  0.0744  0.0451 -0.5940
 3358TIP3   OH234268   5.397   5.127  14.435  0.2113 -0.2206  0.1851
 3358TIP3    H134269   5.389   5.092  14.524  2.7376 -0.1260  0.5381
 3358TIP3    H234270   5.481   5.094  14.404 -0.3542  0.2153 -1.9817
 3359TIP3   OH234271   4.206   8.090  13.133  0.5767 -0.3406  0.2674
 3359TIP3    H134272   4.134   8.096  13.071  2.4366 -3.1233 -2.4537
 3359TIP3    H234273   4.199   8.170  13.186 -2.3761  1.1732 -2.1087
 3360TIP3   OH234274   0.261   4.708  13.161 -0.3669 -0.3483 -0.1725
 3360TIP3    H134275   0.266   4.689  13.067 -1.2915 -3.1660  0.2559
 3360TIP3    H234276   0.171   4.687  13.185 -0.4766  1.4450  1.1774
 3361TIP3   OH234277   6.858   4.228  14.351 -0.4135  0.0195  0.3085
 3361TIP3    H134278   6.918   4.188  14.288 -1.0903 -1.5161  0.5776
 3361TIP3    H234279   6.912   4.289  14.401  0.6453 -0.4277 -0.2591
 3362TIP3   OH234280   0.439   4.364  14.253  0.2817 -0.3267 -0.1257
 3362TIP3    H134281   0.412   4.367  14.345  0.6540  2.1082 -0.0270
 3362TIP3    H234282   0.363   4.328  14.207 -0.3561 -0.4760  1.0067
 3363TIP3   OH234283   6.044   3.376  14.383  0.1572  0.2755 -0.2054
 3363TIP3    H134284   5.965   3.424  14.407 -0.7153 -0.6919 -1.0429
 3363TIP3    H234285   6.104   3.391  14.456 -0.7783  1.0555  0.4347
 3364TIP3   OH234286   5.060   4.310  14.536  0.4134  0.0431 -0.1703
 3364TIP3    H134287   5.064   4.382  14.598 -0.2263 -0.0519 -0.0070
 3364TIP3    H234288   5.091   4.347  14.453  0.6730  0.3360  0.0587
 3365TIP3   OH234289   0.516   2.683  14.754  0.8516 -0.0268  0.1718
 3365TIP3    H134290   0.462   2.758  14.729 -0.0956 -0.6086  0.4186
 3365TIP3    H234291   0.535   2.639  14.672 -1.4426 -1.3904  0.2743
 3366TIP3   OH234292   4.686   2.946  15.061 -0.0562 -0.4077  0.0804
 3366TIP3    H134293   4.695   3.041  15.053 -0.5467 -0.2908  0.8640
 3366TIP3    H234294   4.605   2.925  15.015  0.3168 -0.5154 -0.5338
 3367TIP3   OH234295   0.334   7.299  13.040  0.1067 -0.0582  0.1481
 3367TIP3    H134296   0.242   7.321  13.026  0.0298  0.4514  1.3243
 3367TIP3    H234297   0.368   7.371  13.091  1.1438 -0.3047 -0.1807
 3368TIP3   OH234298   0.383   2.015  15.462  0.4411  0.9367  0.4049
 3368TIP3    H134299   0.400   2.008  15.556  0.9989 -0.2710  0.2316
 3368TIP3    H234300   0.340   2.100  15.452 -1.4983  0.2127  2.0262
 3369TIP3   OH234301   5.085   4.898  14.807  0.4957  0.4250 -0.2289
 3369TIP3    H134302   5.143   4.847  14.863  1.7532  0.0619 -1.8050
 3369TIP3    H234303   5.003   4.903  14.856  0.5364 -2.5099  0.2951
 3370TIP3   OH234304   2.469   6.204  13.553 -0.4412 -0.2403 -0.0184
 3370TIP3    H134305   2.432   6.147  13.485 -0.5174 -0.2322  0.0155
 3370TIP3    H234306   2.539   6.252  13.509 -0.0792 -0.6877  0.0624
 3371TIP3   OH234307   4.172   7.373  14.806  0.1827 -0.1424  0.2583
 3371TIP3    H134308   4.150   7.401  14.717  0.9728  1.2155  0.4553
 3371TIP3    H234309   4.197   7.281  14.797 -0.5356 -0.2493 -0.7807
 3372TIP3   OH234310   4.077   3.319  14.472 -0.3213 -0.7581  0.1295
 3372TIP3    H134311   4.003   3.309  14.532 -0.0438  2.7861  1.3124
 3372TIP3    H234312   4.037   3.320  14.385 -1.8711  1.5468  0.7590
 3373TIP3   OH234313   3.096   3.241  13.569  0.8188  0.2825  0.0492
 3373TIP3    H134314   3.049   3.316  13.533 -0.8338 -0.3210  0.8627
 3373TIP3    H234315   3.187   3.269  13.572  0.3163  2.0558 -0.1598
 3374TIP3   OH234316   6.857   0.528  15.054  0.5132  0.0445 -0.2619
 3374TIP3    H134317   6.774   0.498  15.092  0.4848  0.5974  0.1280
 3374TIP3    H234318   6.913   0.450  15.053 -0.8893 -1.0466 -3.0712
 3375TIP3   OH234319   0.013   7.988  13.359 -0.1132  0.0111 -0.0004
 3375TIP3    H134320   0.012   8.015  13.451  1.8045 -2.3785  0.8139
 3375TIP3    H234321   0.103   8.001  13.331  0.0116 -1.9870 -0.6500
 3376TIP3   OH234322   5.870   4.654  13.275  0.1993 -0.0728 -0.1631
 3376TIP3    H134323   5.818   4.681  13.199  1.4842  0.2056 -0.9880
 3376TIP3    H234324   5.859   4.559  13.280 -1.9434  0.1728  0.9067
 3377TIP3   OH234325   2.869   8.386  13.002  0.1697 -0.5467 -0.0131
 3377TIP3    H134326   2.829   8.473  13.002  0.8053 -0.2425 -0.8327
 3377TIP3    H234327   2.816   8.335  13.064 -0.1715  0.4332  0.5257
 3378TIP3   OH234328   6.290   2.754  14.321 -0.1006 -0.1483  0.2338
 3378TIP3    H134329   6.309   2.720  14.408  3.9422  0.7253 -0.1273
 3378TIP3    H234330   6.305   2.679  14.263  0.1949  0.0316  0.0764
 3379TIP3   OH234331   0.727   0.127  13.879  0.0561 -0.3745  0.3723
 3379TIP3    H134332   0.784   0.186  13.928 -0.6027  0.7218 -0.1366
 3379TIP3    H234333   0.737   0.153  13.788 -0.3171 -0.9976  0.1470
 3380TIP3   OH234334   8.286   7.440  14.063  0.0832 -0.6507  0.1224
 3380TIP3    H134335   8.352   7.464  14.128 -1.3111 -1.6234  1.9731
 3380TIP3    H234336   8.252   7.356  14.093 -2.1499 -0.0777 -0.6415
 3381TIP3   OH234337   4.889   0.142  14.430  0.0356  0.7301 -0.6165
 3381TIP3    H134338   4.978   0.153  14.396 -0.2067  1.6333 -0.9774
 3381TIP3    H234339   4.883   0.204  14.503 -0.6732  1.5815 -1.3601
 3382TIP3   OH234340   7.639   0.869  13.767 -0.2295  0.2292 -0.1809
 3382TIP3    H134341   7.578   0.804  13.801  0.1824 -0.4173 -0.6591
 3382TIP3    H234342   7.705   0.878  13.835 -0.9262  1.0452  0.4060
 3383TIP3   OH234343   1.279   0.686  15.310 -0.3016  0.2777 -0.2481
 3383TIP3    H134344   1.291   0.642  15.226  0.3994 -0.2786  0.1279
 3383TIP3    H234345   1.189   0.667  15.335 -0.1135 -0.6696 -0.2550
 3384TIP3   OH234346   3.356   5.665  13.736 -0.1661  0.0639 -0.1182
 3384TIP3    H134347   3.320   5.748  13.768 -0.6972 -0.3764  0.4595
 3384TIP3    H234348   3.444   5.661  13.775 -0.9893 -0.7085  1.8270
 3385TIP3   OH234349   6.632   0.165  13.185 -0.6526 -0.3556  0.3692
 3385TIP3    H134350   6.603   0.075  13.175  0.2433 -0.4385 -2.6230
 3385TIP3    H234351   6.727   0.162  13.174 -0.5286  0.8782  0.8796
 3386TIP3   OH234352   1.963   7.498  14.694  0.2490  0.2720  0.4210
 3386TIP3    H134353   1.891   7.457  14.646  1.2825 -1.3320  0.1824
 3386TIP3    H234354   2.028   7.519  14.627 -0.6169  3.3488  0.3645
 3387TIP3   OH234355   5.777   3.310  14.004  0.2878 -0.5348  0.3981
 3387TIP3    H134356   5.804   3.359  13.926 -2.4665  0.1401 -0.2262
 3387TIP3    H234357   5.808   3.221  13.988  0.3855 -0.2495 -1.1317
 3388TIP3   OH234358   2.899   6.523  13.819  0.2590 -0.2547  0.0211
 3388TIP3    H134359   2.910   6.463  13.746  2.6707  0.4735 -0.3094
 3388TIP3    H234360   2.981   6.516  13.869  0.2802  2.0742  0.4505
 3389TIP3   OH234361   0.564   2.590  14.042  0.0165 -0.1665 -0.0669
 3389TIP3    H134362   0.531   2.680  14.035  0.8615  0.2578  1.0307
 3389TIP3    H234363   0.607   2.573  13.958 -0.6621  0.2174 -0.5069
 3390TIP3   OH234364   7.075   1.168  12.885 -0.6216  0.1401 -0.0630
 3390TIP3    H134365   7.016   1.242  12.895 -0.3741  0.4582 -0.8927
 3390TIP3    H234366   7.037   1.098  12.938 -0.5839  1.0207  1.1523
 3391TIP3   OH234367   4.867   0.448  13.498 -0.2882  0.5071  0.1368
 3391TIP3    H134368   4.948   0.413  13.534  0.5226  1.7850 -0.3617
 3391TIP3    H234369   4.798   0.410  13.552  0.6921  0.0083  1.0734
 3392TIP3   OH234370   8.194   1.791  13.298 -0.2052 -0.0479 -0.2557
 3392TIP3    H134371   8.152   1.744  13.226  0.3022  1.9462 -1.9696
 3392TIP3    H234372   8.202   1.881  13.266  1.6828  0.5254  1.6052
 3393TIP3   OH234373   2.925   5.202  15.282 -0.0166  0.2686  0.0513
 3393TIP3    H134374   2.847   5.194  15.336  0.9332 -1.0335  1.3194
 3393TIP3    H234375   2.950   5.295  15.290 -0.1003  0.1818  1.6114
 3394TIP3   OH234376   1.890   2.193  13.961 -0.0870  0.2614 -0.3993
 3394TIP3    H134377   1.918   2.164  14.048 -0.4704  1.4218  0.1430
 3394TIP3    H234378   1.865   2.113  13.916  1.5462 -0.5357  0.0138
 3395TIP3   OH234379   3.253   4.049  14.920  0.5119  0.2607 -0.4347
 3395TIP3    H134380   3.194   4.074  14.992  0.0096 -1.3146 -0.2510
 3395TIP3    H234381   3.335   4.026  14.963 -0.2983 -2.3479 -0.0797
 3396TIP3   OH234382   7.716   8.111  14.813  0.2021 -0.1064 -0.1651
 3396TIP3    H134383   7.787   8.172  14.833  0.3959  0.0247 -1.2075
 3396TIP3    H234384   7.651   8.127  14.882  1.7315 -1.1921  1.6237
 3397TIP3   OH234385   6.311   4.544  14.731  0.3473  0.3969  0.0877
 3397TIP3    H134386   6.403   4.570  14.739  0.6172 -0.4925 -0.0265
 3397TIP3    H234387   6.262   4.626  14.737  1.2366  1.0845 -1.5152
 3398TIP3   OH234388   4.410   3.986  14.646 -0.8369  0.1548 -0.2096
 3398TIP3    H134389   4.347   3.985  14.718 -0.9451 -1.1175 -0.3085
 3398TIP3    H234390   4.494   3.965  14.688 -0.9979 -1.1797 -0.5266
 3399TIP3   OH234391   8.242   5.609  13.492  0.2074  0.2813 -0.4000
 3399TIP3    H134392   8.261   5.593  13.585  0.0320 -2.9955 -0.8216
 3399TIP3    H234393   8.323   5.586  13.447 -0.4795 -0.6085 -1.2149
 3400TIP3   OH234394   2.525   7.501  15.093 -0.6916  0.2379 -0.1007
 3400TIP3    H134395   2.431   7.516  15.100 -0.9150 -0.4637 -1.4203
 3400TIP3    H234396   2.549   7.462  15.178 -1.9796 -1.5111 -0.4776
 3401TIP3   OH234397   6.153   7.564  13.046  0.8721  0.7060 -0.2033
 3401TIP3    H134398   6.178   7.478  13.082  0.8043  1.4394  1.7417
 3401TIP3    H234399   6.070   7.548  13.002 -0.0056  0.0259  1.5824
 3402TIP3   OH234400   1.251   0.556  15.062 -0.3362  0.1359  0.5379
 3402TIP3    H134401   1.204   0.481  15.025 -0.4147  0.3331  0.2333
 3402TIP3    H234402   1.325   0.569  15.002  0.2779 -0.3561  1.1736
 3403TIP3   OH234403   0.602   2.862  12.615 -0.2137 -0.0403  0.2656
 3403TIP3    H134404   0.693   2.833  12.615 -0.4272 -0.7723  1.2617
 3403TIP3    H234405   0.563   2.818  12.691 -0.8417  2.0039  1.2060
 3404TIP3   OH234406   1.627   6.731  13.641  0.2396  0.6101  0.0441
 3404TIP3    H134407   1.625   6.650  13.590 -0.4462  0.5386  0.1698
 3404TIP3    H234408   1.668   6.707  13.724  1.1039  0.6639 -0.3641
 3405TIP3   OH234409   1.673   6.122  15.129  0.0514 -0.2312  0.3687
 3405TIP3    H134410   1.599   6.162  15.084 -0.9012 -1.3756  0.8766
 3405TIP3    H234411   1.712   6.194  15.178 -1.4966  0.1541  1.1017
 3406TIP3   OH234412   2.904   5.412  13.002 -0.6682 -0.4674  0.3324
 3406TIP3    H134413   2.990   5.441  13.032 -1.2398  1.2760  0.3859
 3406TIP3    H234414   2.896   5.449  12.914 -1.5781 -0.1377  0.5450
 3407TIP3   OH234415   2.547   0.461  14.555  0.5143 -0.0167 -0.1212
 3407TIP3    H134416   2.536   0.519  14.630 -0.3883  0.9747 -0.9908
 3407TIP3    H234417   2.458   0.442  14.526  0.8496 -0.3118 -0.9911
 3408TIP3   OH234418   4.882   3.450  14.903 -0.1339 -0.1748 -0.3855
 3408TIP3    H134419   4.971   3.438  14.869  0.7677  0.6440  1.5369
 3408TIP3    H234420   4.862   3.367  14.947  1.1109  0.7373  2.1092
 3409TIP3   OH234421   4.274   4.967  13.843  0.1295  0.0704  0.5432
 3409TIP3    H134422   4.244   4.920  13.766 -0.7438  0.3715  0.6947
 3409TIP3    H234423   4.231   4.925  13.917  0.4617  0.1923  0.8146
 3410TIP3   OH234424   2.875   7.797  14.082 -0.5147 -0.1132  0.5705
 3410TIP3    H134425   2.834   7.872  14.038 -0.9024  0.0286  1.1687
 3410TIP3    H234426   2.913   7.833  14.162  0.6728 -0.2731  0.1008
 3411TIP3   OH234427   0.801   7.297  13.079 -0.1690 -0.2298  0.8810
 3411TIP3    H134428   0.878   7.295  13.021 -0.9742 -0.2307 -0.2220
 3411TIP3    H234429   0.742   7.231  13.043 -0.7882 -0.0698  1.5787
 3412TIP3   OH234430   2.169   5.495  14.728  0.2350 -0.0786  0.4154
 3412TIP3    H134431   2.255   5.482  14.768  0.4661  0.5882  0.1515
 3412TIP3    H234432   2.161   5.423  14.664  1.6920  1.2420 -1.3578
 3413TIP3   OH234433   6.887   5.929  13.243  0.1256  0.0677 -0.0723
 3413TIP3    H134434   6.912   5.917  13.334 -0.8572  2.2170  0.5413
 3413TIP3    H234435   6.959   5.978  13.204 -0.2340  0.7043  0.0420
 3414TIP3   OH234436   4.577   0.563  14.040  0.7439  0.0610  0.4488
 3414TIP3    H134437   4.549   0.496  13.977 -1.2174  0.6440  0.6190
 3414TIP3    H234438   4.604   0.514  14.117 -2.9969 -0.6757  1.5385
 3415TIP3   OH234439   0.294   2.716  14.497 -0.4859 -0.3499 -0.2055
 3415TIP3    H134440   0.339   2.792  14.460  0.0039 -0.6556 -0.2577
 3415TIP3    H234441   0.307   2.647  14.432  2.0984 -1.4733  1.3566
 3416TIP3   OH234442   6.918   1.884  13.197  0.0035  0.7427  0.0845
 3416TIP3    H134443   6.966   1.833  13.131 -0.3514  0.5205 -0.0042
 3416TIP3    H234444   6.949   1.974  13.185 -0.8016  0.8887 -1.0804
 3417TIP3   OH234445   2.106   6.117  14.635  0.4189  0.4838  0.1860
 3417TIP3    H134446   2.142   6.088  14.719  1.1449 -0.0427 -0.2870
 3417TIP3    H234447   2.104   6.038  14.582  0.1104  0.8421 -0.3386
 3418TIP3   OH234448   6.946   4.308  13.238 -0.7069 -0.0756  0.1202
 3418TIP3    H134449   6.973   4.368  13.307 -0.7421 -0.1377  0.1881
 3418TIP3    H234450   6.954   4.359  13.157 -0.1253 -0.1766  0.1092
 3419TIP3   OH234451   5.639   8.223  14.172 -0.3774 -0.2457 -0.1422
 3419TIP3    H134452   5.677   8.136  14.186  1.2379  0.4304 -0.1268
 3419TIP3    H234453   5.701   8.283  14.212 -1.4322  0.9445 -0.2279
 3420TIP3   OH234454   7.439   2.085  13.818  0.0814 -0.4705  0.6429
 3420TIP3    H134455   7.361   2.110  13.769  0.4126 -0.5395  0.0757
 3420TIP3    H234456   7.413   2.006  13.865  0.1503 -1.1680 -0.4571
 3421TIP3   OH234457   5.134   4.004  15.209  0.0516 -0.4547 -0.8895
 3421TIP3    H134458   5.063   4.021  15.271  0.0174  1.0779 -1.2954
 3421TIP3    H234459   5.151   4.089  15.169  4.3160  0.1105  1.4656
 3422TIP3   OH234460   4.824   0.757  12.473  0.4383 -0.2682 -0.2364
 3422TIP3    H134461   4.881   0.734  12.546 -1.5205  0.5264  1.6678
 3422TIP3    H234462   4.763   0.684  12.465 -0.2177  0.2510 -0.1304
 3423TIP3   OH234463   2.414   3.219  13.385 -0.0120  0.0896 -0.0082
 3423TIP3    H134464   2.493   3.166  13.388 -0.6232 -0.9564 -1.2199
 3423TIP3    H234465   2.431   3.284  13.317 -0.1198 -0.0325 -0.1539
 3424TIP3   OH234466   5.477   4.414  14.703  0.0554  0.2799 -0.2170
 3424TIP3    H134467   5.572   4.409  14.701  0.0847 -0.9119  1.6708
 3424TIP3    H234468   5.447   4.340  14.650  0.2044 -0.3913  0.6301
 3425TIP3   OH234469   4.338   4.449  13.121  0.1113  0.3540 -1.0915
 3425TIP3    H134470   4.426   4.483  13.133 -0.0297  0.4408 -0.1909
 3425TIP3    H234471   4.304   4.496  13.045  0.6529  0.6943 -1.1301
 3426TIP3   OH234472   5.092   0.767  14.324 -0.1169  0.2035 -0.1049
 3426TIP3    H134473   5.084   0.857  14.355  0.5074  0.3819 -0.4437
 3426TIP3    H234474   5.117   0.776  14.232 -1.1172 -0.3150 -0.4493
 3427TIP3   OH234475   1.406   1.162  13.819  0.8356  0.4562 -0.4849
 3427TIP3    H134476   1.350   1.239  13.829 -0.1467 -0.3035  0.0591
 3427TIP3    H234477   1.473   1.172  13.887 -0.5013 -0.1554  0.9970
 3428TIP3   OH234478   6.133   0.494  15.041 -0.4587  0.5368  0.3197
 3428TIP3    H134479   6.057   0.436  15.036 -1.3187  1.5058  1.4645
 3428TIP3    H234480   6.186   0.457  15.112  1.6821 -1.7947 -2.2731
 3429TIP3   OH234481   1.665   6.821  14.281 -0.5780 -0.3487  0.0269
 3429TIP3    H134482   1.611   6.889  14.322  0.4387  0.6229 -0.2031
 3429TIP3    H234483   1.717   6.785  14.354 -0.0710  0.1389 -0.0832
 3430TIP3   OH234484   0.406   5.759  13.635  0.4653 -0.1953 -0.6650
 3430TIP3    H134485   0.394   5.838  13.688  1.0750 -0.2419 -0.4456
 3430TIP3    H234486   0.426   5.791  13.547  4.0321  0.0250  0.0769
 3431TIP3   OH234487   0.458   3.967  14.616  0.5978 -0.6799  0.3746
 3431TIP3    H134488   0.540   3.959  14.665  0.5221 -0.4486  0.5405
 3431TIP3    H234489   0.392   3.984  14.683  0.7083  1.1515  0.0692
 3432TIP3   OH234490   2.800   5.114  13.258  0.1706  0.4141  1.2472
 3432TIP3    H134491   2.886   5.090  13.223 -0.5267 -2.0255  1.0818
 3432TIP3    H234492   2.760   5.167  13.189  0.6936 -0.3091  0.3612
 3433TIP3   OH234493   8.379   4.806  13.365  0.4111  0.2230  0.0945
 3433TIP3    H134494   8.298   4.762  13.392  0.6266  0.9234  2.0114
 3433TIP3    H234495   8.355   4.851  13.283 -0.4201 -1.5668 -0.6973
 3434TIP3   OH234496   4.434   1.893  13.747  0.4178  0.5749  0.2185
 3434TIP3    H134497   4.473   1.812  13.778 -1.3140 -0.6434 -0.5905
 3434TIP3    H234498   4.376   1.921  13.817 -1.3036 -0.6149 -0.6445
 3435TIP3   OH234499   0.807   6.957  12.758 -0.5415  0.4456  0.4197
 3435TIP3    H134500   0.893   6.927  12.789 -0.9567 -1.7071 -0.3594
 3435TIP3    H234501   0.762   6.877  12.733 -2.0394  1.7151 -1.0987
 3436TIP3   OH234502   2.691   5.496  14.546  0.0417 -0.3712 -0.0594
 3436TIP3    H134503   2.617   5.553  14.568  1.0732  0.3796  1.7158
 3436TIP3    H234504   2.653   5.425  14.495 -1.5517  1.0597 -0.9452
 3437TIP3   OH234505   1.434   4.446  13.372  0.4474 -0.4926 -0.1979
 3437TIP3    H134506   1.481   4.430  13.455  1.4095  0.9050 -0.4327
 3437TIP3    H234507   1.452   4.369  13.319  2.3064 -0.1275 -0.1666
 3438TIP3   OH234508   3.405   3.095  12.859  0.4147 -0.0049 -0.0140
 3438TIP3    H134509   3.407   3.151  12.782  1.8855  0.0395  0.0252
 3438TIP3    H234510   3.463   3.022  12.838 -1.1509 -1.3433  0.0899
 3439TIP3   OH234511   0.031   7.266  14.221  0.1695  0.6983 -0.4269
 3439TIP3    H134512  -0.006   7.222  14.145  2.9002 -0.8269 -1.0192
 3439TIP3    H234513   0.115   7.301  14.190  1.8469 -0.8272  2.0362
 3440TIP3   OH234514   8.059   3.134  14.809  0.2425 -0.3710  0.5021
 3440TIP3    H134515   8.102   3.204  14.761 -1.3428 -1.8406 -3.4963
 3440TIP3    H234516   8.102   3.054  14.779 -1.8162 -1.4779  0.3081
 3441TIP3   OH234517   4.511   7.133  14.375  0.5168  0.0483  0.1178
 3441TIP3    H134518   4.454   7.057  14.388  0.1011  0.4482  0.6753
 3441TIP3    H234519   4.490   7.164  14.286 -1.3635  1.1777  0.8969
 3442TIP3   OH234520   7.306   4.483  13.263 -0.3117 -0.5549  0.0992
 3442TIP3    H134521   7.267   4.413  13.315  0.0093 -1.8593 -1.3389
 3442TIP3    H234522   7.235   4.516  13.207 -1.1569  2.1195  2.4994
 3443TIP3   OH234523   0.363   6.841  13.121 -0.0469 -0.7609 -0.4990
 3443TIP3    H134524   0.361   6.916  13.062  0.6645 -0.1807  0.1986
 3443TIP3    H234525   0.380   6.766  13.064  2.2791 -0.0208 -0.8917
 3444TIP3   OH234526   5.486   0.553  13.524  0.1018  0.3210 -0.3577
 3444TIP3    H134527   5.447   0.616  13.464 -3.5496 -0.7236  0.6128
 3444TIP3    H234528   5.466   0.587  13.611 -1.2389 -1.6658  0.1800
 3445TIP3   OH234529   7.831   3.408  13.624  0.0718 -0.4242  0.3778
 3445TIP3    H134530   7.924   3.392  13.638  0.2909 -0.2538 -0.8262
 3445TIP3    H234531   7.826   3.498  13.592 -0.4169 -0.6907 -0.3391
 3446TIP3   OH234532   5.700   1.525  14.042  0.4211  0.3660 -0.8105
 3446TIP3    H134533   5.664   1.456  14.097  1.4471 -1.0527 -1.8240
 3446TIP3    H234534   5.668   1.504  13.954 -0.3230  1.9680 -0.9487
 3447TIP3   OH234535   3.747   1.815  14.269 -0.2091 -0.5426 -0.2956
 3447TIP3    H134536   3.679   1.863  14.314  0.8584  0.1061  0.6790
 3447TIP3    H234537   3.709   1.729  14.252 -1.2897 -0.1634  0.1376
 3448TIP3   OH234538   1.314   3.985  14.623 -0.2043  0.2073  0.2447
 3448TIP3    H134539   1.320   4.053  14.690  0.8942  1.7503 -1.3384
 3448TIP3    H234540   1.224   3.952  14.631 -0.2224  0.5880  2.2003
 3449TIP3   OH234541   6.796   3.021  14.009  0.0207 -0.0837  0.2520
 3449TIP3    H134542   6.800   3.022  14.105 -0.0355  1.3372  0.2701
 3449TIP3    H234543   6.702   3.017  13.989  0.0278 -0.2643  0.2541
 3450TIP3   OH234544   3.287   6.140  13.777 -0.0254  0.0156  0.8140
 3450TIP3    H134545   3.201   6.180  13.787  0.8691  1.8446  1.6939
 3450TIP3    H234546   3.341   6.179  13.846  1.7276 -0.4743 -0.1903
 3451TIP3   OH234547   7.216   1.483  14.500 -0.1540 -0.0476  0.2228
 3451TIP3    H134548   7.294   1.461  14.552  0.0637  0.6052  0.1871
 3451TIP3    H234549   7.156   1.411  14.515  1.6582 -2.3098 -2.2954
 3452TIP3   OH234550   6.501   4.634  13.049  0.1157  1.1357  0.5491
 3452TIP3    H134551   6.483   4.596  12.963 -0.6078  1.5472  0.5082
 3452TIP3    H234552   6.501   4.559  13.109  1.3690  0.7435  0.1079
 3453TIP3   OH234553   0.516   2.396  15.162  0.2646  0.7120 -0.2220
 3453TIP3    H134554   0.509   2.482  15.119  0.9643  0.5420 -0.6782
 3453TIP3    H234555   0.593   2.403  15.218 -0.3574  0.7647  0.6418
 3454TIP3   OH234556   1.483   0.687  12.825 -0.5591  0.1968  0.3136
 3454TIP3    H134557   1.539   0.738  12.884 -1.6048  0.7848  0.8140
 3454TIP3    H234558   1.528   0.602  12.817  0.4153  0.6696  0.6718
 3455TIP3   OH234559   4.011   1.306  14.699 -0.0580  0.1691 -0.2221
 3455TIP3    H134560   3.990   1.213  14.712 -1.3039  0.5013  0.2472
 3455TIP3    H234561   4.029   1.312  14.605 -2.3873 -0.1334 -0.7610
 3456TIP3   OH234562   1.627   4.038  13.720  0.1923  0.0437 -0.0572
 3456TIP3    H134563   1.607   3.964  13.776  1.1541  0.4720  0.8831
 3456TIP3    H234564   1.557   4.101  13.738 -0.2971 -0.3875 -0.4198
 3457TIP3   OH234565   4.386   0.039  13.503 -0.9438 -0.0737 -0.2342
 3457TIP3    H134566   4.383  -0.038  13.560 -1.5178  0.1161  0.0021
 3457TIP3    H234567   4.298   0.047  13.468 -0.7245  0.1131 -0.7505
 3458TIP3   OH234568   3.545   5.910  14.124  0.2555 -0.5877 -0.6392
 3458TIP3    H134569   3.511   5.928  14.037  1.2465  0.8376 -0.7577
 3458TIP3    H234570   3.467   5.907  14.180 -0.2414  0.3532 -1.2614
 3459TIP3   OH234571   7.679   2.298  14.822 -0.4449  0.2888 -0.1651
 3459TIP3    H134572   7.646   2.387  14.808  2.2433  1.7317  1.7295
 3459TIP3    H234573   7.732   2.280  14.744 -1.0945  0.2318 -0.6114
 3460TIP3   OH234574   4.505   6.324  14.415 -0.4894 -0.0893 -0.0348
 3460TIP3    H134575   4.409   6.330  14.407 -0.6387 -0.2943  1.3309
 3460TIP3    H234576   4.519   6.252  14.477  0.6023 -0.8689 -1.1375
 3461TIP3   OH234577   6.765   1.638  13.363  0.1851 -0.1041 -0.1697
 3461TIP3    H134578   6.853   1.666  13.337  0.2231  0.1559  0.2308
 3461TIP3    H234579   6.759   1.547  13.333  0.1963  0.1974 -1.1472
 3462TIP3   OH234580   2.251   6.483  14.548 -0.3714 -0.2519  0.2682
 3462TIP3    H134581   2.343   6.489  14.572 -0.3197  1.6519 -0.2390
 3462TIP3    H234582   2.226   6.393  14.569  1.2218 -0.3922  1.7130
 3463TIP3   OH234583   0.685   3.354  13.964  0.0268  0.2597  0.2460
 3463TIP3    H134584   0.627   3.411  13.912  1.1700 -0.5171 -2.0054
 3463TIP3    H234585   0.769   3.400  13.963  0.3423 -0.3172  0.4611
 3464TIP3   OH234586   1.708   3.188  13.851 -0.7087  0.0877 -0.0263
 3464TIP3    H134587   1.633   3.129  13.841  0.1049 -0.9061 -0.3215
 3464TIP3    H234588   1.726   3.219  13.763 -0.9735  0.5902  0.0933
 3465TIP3   OH234589   2.063   7.950  13.122  0.0248  0.4627 -0.5725
 3465TIP3    H134590   2.120   7.884  13.161  0.8271  0.9166 -0.9536
 3465TIP3    H234591   2.095   7.959  13.032 -1.1455  0.1685 -1.0349
 3466TIP3   OH234592   8.113   5.203  14.777  0.1917  0.1285  0.2998
 3466TIP3    H134593   8.181   5.232  14.838  1.7156 -0.2775 -1.1339
 3466TIP3    H234594   8.159   5.192  14.693 -1.6569 -0.1274 -0.7363
 3467TIP3   OH234595   4.246   7.086  13.819  0.2607  0.1237  0.3458
 3467TIP3    H134596   4.158   7.056  13.840 -0.2766  1.9810  0.8694
 3467TIP3    H234597   4.267   7.044  13.736 -1.4364  0.2951 -0.1856
 3468TIP3   OH234598   7.582   8.297  14.229 -0.0320 -0.1080  0.3745
 3468TIP3    H134599   7.499   8.325  14.189  0.1520 -0.1219 -0.0199
 3468TIP3    H234600   7.638   8.374  14.222  0.3721 -0.4641 -0.4253
 3469TIP3   OH234601   6.013   6.252  14.944  0.5527  0.2042 -0.0667
 3469TIP3    H134602   6.091   6.262  14.998  0.9310  1.9046 -0.8511
 3469TIP3    H234603   6.004   6.336  14.899 -0.8438 -0.4881 -1.1755
 3470TIP3   OH234604   0.501   6.155  14.634  0.0929 -0.0590 -0.0297
 3470TIP3    H134605   0.577   6.164  14.577 -1.0257  0.6590 -1.4374
 3470TIP3    H234606   0.452   6.082  14.597 -0.4951  0.2218  0.1849
 3471TIP3   OH234607   0.498   4.537  13.356  0.6119  0.2335  0.1663
 3471TIP3    H134608   0.571   4.575  13.307  1.3601  0.2402  1.2376
 3471TIP3    H234609   0.427   4.529  13.292  1.1445  1.3952 -0.6100
 3472TIP3   OH234610   7.221   5.882  14.107 -0.3147 -0.1624  0.2658
 3472TIP3    H134611   7.234   5.915  14.018 -0.4744  0.2042  0.3757
 3472TIP3    H234612   7.306   5.894  14.150 -0.2120 -0.4269  0.1341
 3473TIP3   OH234613   0.112   5.171  13.903  0.2301 -0.4856  0.7399
 3473TIP3    H134614   0.143   5.158  13.814 -0.8508  0.9885  0.1021
 3473TIP3    H234615   0.191   5.183  13.955  0.8542  1.8761 -0.6052
 3474TIP3   OH234616   7.310   2.748  13.572  0.4268  0.4033  0.0111
 3474TIP3    H134617   7.337   2.804  13.500 -0.6554  0.9543  0.0079
 3474TIP3    H234618   7.244   2.689  13.534 -1.4414  1.8328  0.8635
 3475TIP3   OH234619   8.032   5.232  15.358  0.5154 -0.3262  0.0064
 3475TIP3    H134620   7.987   5.161  15.312 -0.8730  0.5102  0.0036
 3475TIP3    H234621   7.966   5.301  15.365  1.4230  0.4598  1.1844
 3476TIP3   OH234622   2.759   0.069  15.058 -0.4769  0.3005  0.6908
 3476TIP3    H134623   2.727   0.138  14.999 -1.3675  0.5862  1.4893
 3476TIP3    H234624   2.755   0.108  15.145 -0.7025 -0.6496  1.1207
 3477TIP3   OH234625   3.971   4.130  13.716  0.3820 -0.5969 -0.0278
 3477TIP3    H134626   3.938   4.065  13.779 -0.4758 -0.1634 -0.0153
 3477TIP3    H234627   4.059   4.151  13.747 -0.7524  1.1686  2.3305
 3478TIP3   OH234628   4.205   3.220  14.123 -0.3631 -0.4073  0.4822
 3478TIP3    H134629   4.213   3.142  14.178 -0.6726 -0.9521 -0.2311
 3478TIP3    H234630   4.117   3.252  14.140  0.0410  0.2812  1.3951
 3479TIP3   OH234631   5.439   1.715  13.812  0.3534  0.1234 -0.1860
 3479TIP3    H134632   5.472   1.800  13.784 -2.8010  1.5166 -0.0461
 3479TIP3    H234633   5.427   1.724  13.907 -0.9969 -0.0610 -0.3224
 3480TIP3   OH234634   0.830   4.004  14.485 -0.3638  0.3621 -0.4803
 3480TIP3    H134635   0.805   4.061  14.413 -0.7028  1.0785  0.1958
 3480TIP3    H234636   0.762   4.017  14.551 -0.5417 -0.9483 -0.3810
 3481TIP3   OH234637   2.659   6.969  14.408  0.3180  0.5103  0.3449
 3481TIP3    H134638   2.735   6.964  14.350  0.1080 -0.3616  0.1423
 3481TIP3    H234639   2.674   7.049  14.459  0.8354  0.9313 -0.4354
 3482TIP3   OH234640   7.325   5.016  15.291  0.4604  0.1656 -0.4386
 3482TIP3    H134641   7.249   5.073  15.302  0.6147  0.1928  0.5462
 3482TIP3    H234642   7.288   4.927  15.294  0.7777 -0.0001  3.6730
 3483TIP3   OH234643   6.445   2.825  13.994  0.0889 -0.3605 -0.2365
 3483TIP3    H134644   6.385   2.780  13.935 -0.8750 -0.8742  1.0746
 3483TIP3    H234645   6.394   2.839  14.074  2.1872 -2.4733  1.6509
 3484TIP3   OH234646   6.855   5.351  14.057 -0.0930  0.1500 -0.0609
 3484TIP3    H134647   6.932   5.295  14.068 -0.2657  0.0346  0.6644
 3484TIP3    H234648   6.874   5.428  14.112 -0.1648  0.4708 -0.4842
 3485TIP3   OH234649   5.960   5.427  14.696 -0.5070  0.1821 -0.1411
 3485TIP3    H134650   5.896   5.359  14.673  0.2632 -0.6642  0.1231
 3485TIP3    H234651   6.020   5.383  14.757  0.6548  0.7755 -0.8217
 3486TIP3   OH234652   7.000   1.133  13.874 -0.4409  0.6204 -0.1465
 3486TIP3    H134653   7.053   1.086  13.809 -4.0396  0.6696 -3.4508
 3486TIP3    H234654   7.014   1.084  13.955  1.9735 -1.3400 -1.5898
 3487TIP3   OH234655   7.737   7.566  13.617  0.3936  0.2770  0.0280
 3487TIP3    H134656   7.817   7.609  13.646 -0.3714  0.4991  1.9384
 3487TIP3    H234657   7.757   7.472  13.620  1.0414  0.3763 -0.9812
 3488TIP3   OH234658   5.948   1.775  12.588  0.3822  0.0666  0.0140
 3488TIP3    H134659   5.994   1.709  12.640  1.0563  0.7498  0.3062
 3488TIP3    H234660   6.017   1.831  12.555 -0.1737  0.5478 -0.3446
 3489TIP3   OH234661   3.650   4.383  13.889  0.1717 -0.0469  0.2932
 3489TIP3    H134662   3.713   4.439  13.934  1.0406 -0.3807 -0.4820
 3489TIP3    H234663   3.640   4.422  13.802 -0.2314 -0.3476  0.1999
 3490TIP3   OH234664   1.672   2.208  14.281  0.2337 -0.2487 -0.3144
 3490TIP3    H134665   1.702   2.150  14.211  2.9699 -1.6602  1.8439
 3490TIP3    H234666   1.622   2.151  14.339  0.0333  0.3605  0.1206
 3491TIP3   OH234667   2.944   4.164  12.973 -0.1849 -0.5079  0.4693
 3491TIP3    H134668   2.872   4.170  12.910 -0.4097  0.2127  0.7971
 3491TIP3    H234669   2.954   4.070  12.988 -0.3355 -0.6757 -0.4014
 3492TIP3   OH234670   4.257   6.273  15.303  0.3744  0.1939  1.0527
 3492TIP3    H134671   4.178   6.240  15.261  0.9531  0.2370 -0.0954
 3492TIP3    H234672   4.224   6.327  15.375 -0.6484  0.4459  0.4237
 3493TIP3   OH234673   1.268   4.207  13.612  0.1535 -0.2599 -0.2326
 3493TIP3    H134674   1.275   4.302  13.602  2.9645 -0.3702 -0.1263
 3493TIP3    H234675   1.224   4.177  13.532 -1.6493  1.1591  0.1691
 3494TIP3   OH234676   6.454   3.272  13.910 -0.4355  0.2674 -0.0773
 3494TIP3    H134677   6.429   3.365  13.914  1.3578  0.8571 -1.4549
 3494TIP3    H234678   6.451   3.243  14.001 -1.1873  1.6132  0.3603
 3495TIP3   OH234679   5.261   6.125  14.491 -0.4876 -0.0544 -0.2924
 3495TIP3    H134680   5.229   6.148  14.578 -0.2698 -0.0423 -0.2135
 3495TIP3    H234681   5.354   6.105  14.505  0.3862  3.0259 -1.0249
 3496TIP3   OH234682   2.437   1.229  14.532 -0.1442  0.3827 -0.1360
 3496TIP3    H134683   2.466   1.318  14.510 -0.4975  0.9524  1.5398
 3496TIP3    H234684   2.398   1.238  14.619  1.6000 -1.8006  0.9661
 3497TIP3   OH234685   5.287   0.590  14.394  0.2790  0.4340 -0.5060
 3497TIP3    H134686   5.225   0.652  14.356  1.8431  3.1017  0.9677
 3497TIP3    H234687   5.235   0.512  14.412 -2.0727  1.6800 -1.4577
 3498TIP3   OH234688   6.770   7.716  13.519  0.0793  0.0869 -0.0323
 3498TIP3    H134689   6.689   7.698  13.472 -0.2662  2.5930 -0.5164
 3498TIP3    H234690   6.793   7.806  13.496  3.4033 -0.7227 -0.4491
 3499TIP3   OH234691   3.426   7.580  14.839 -0.0735  0.2056 -0.2983
 3499TIP3    H134692   3.521   7.572  14.833 -0.1819 -2.5543  0.6542
 3499TIP3    H234693   3.408   7.597  14.931 -0.4989  2.3588 -0.7100
 3500TIP3   OH234694   0.550   2.301  14.724  0.0748  0.2065  0.0112
 3500TIP3    H134695   0.508   2.315  14.639  0.0338 -0.0072 -0.0037
 3500TIP3    H234696   0.478   2.272  14.781  0.2323 -0.2893 -0.0478
 3501TIP3   OH234697   0.573   1.548  13.450 -0.2457  0.1733 -0.1321
 3501TIP3    H134698   0.648   1.604  13.428  1.0266 -1.0424  0.9125
 3501TIP3    H234699   0.573   1.481  13.381  1.0363 -1.0934  1.0311
 3502TIP3   OH234700   3.188   7.529  14.017  0.2506 -0.2762  0.2488
 3502TIP3    H134701   3.094   7.549  14.022  0.6692  1.6109  1.3906
 3502TIP3    H234702   3.231   7.611  14.040  2.1964 -1.2645  0.2952
 3503TIP3   OH234703   8.110   1.453  14.512 -0.0459 -0.3757 -0.1571
 3503TIP3    H134704   8.054   1.514  14.560 -0.1769 -0.5491 -0.0883
 3503TIP3    H234705   8.162   1.508  14.453  1.0599 -0.0048  1.1069
 3504TIP3   OH234706   6.549   0.116  13.593  0.0744 -0.3939  0.4809
 3504TIP3    H134707   6.575   0.041  13.648 -1.7150 -0.8546  0.7812
 3504TIP3    H234708   6.499   0.077  13.522  1.5277  0.3028 -0.9722
 3505TIP3   OH234709   4.739   3.002  13.001 -0.4707 -0.1936  0.2101
 3505TIP3    H134710   4.752   2.908  12.994 -1.3505 -0.4423  1.4583
 3505TIP3    H234711   4.821   3.041  12.971  0.6483 -1.4293  1.5631
 3506TIP3   OH234712   5.320   3.834  15.052 -0.3353 -0.5988  0.6837
 3506TIP3    H134713   5.266   3.892  15.105  1.1376  1.7173 -0.2135
 3506TIP3    H234714   5.281   3.839  14.964 -0.8187 -1.8244  0.8171
 3507TIP3   OH234715   6.623   3.700  12.787 -0.1021  0.5643 -0.1993
 3507TIP3    H134716   6.678   3.643  12.841  0.7979  1.3020 -0.3216
 3507TIP3    H234717   6.542   3.650  12.776  0.4098 -0.4076  0.2525
 3508TIP3   OH234718   1.199   4.665  12.929 -0.1373  0.1576  0.3670
 3508TIP3    H134719   1.256   4.714  12.870 -0.1320 -0.6866 -0.3488
 3508TIP3    H234720   1.254   4.641  13.003  0.7325 -1.4625 -0.7503
 3509TIP3   OH234721   7.366   4.592  14.393  0.1181  0.5563  0.7110
 3509TIP3    H134722   7.450   4.632  14.417  0.0426 -0.6955  3.4651
 3509TIP3    H234723   7.356   4.519  14.454 -1.9050 -0.8163 -1.0933
 3510TIP3   OH234724   5.436   2.011  14.763 -0.0693  0.6486 -0.4541
 3510TIP3    H134725   5.424   2.014  14.857 -3.0335 -0.9393 -0.6857
 3510TIP3    H234726   5.376   2.077  14.728 -2.6523 -1.9660 -1.3396
 3511TIP3   OH234727   1.049   6.117  14.395 -0.2609  0.4351 -0.0706
 3511TIP3    H134728   1.087   6.149  14.476 -0.2545 -0.7602  0.4241
 3511TIP3    H234729   1.006   6.035  14.419 -1.5982  0.8178 -0.9666
 3512TIP3   OH234730   1.199   1.689  14.043  0.4634 -0.0271 -0.0366
 3512TIP3    H134731   1.206   1.723  14.132  1.9876 -0.3194 -0.0138
 3512TIP3    H234732   1.281   1.715  14.000 -0.2997  0.2325 -1.4070
 3513TIP3   OH234733   7.091   4.690  13.179  0.0365  0.4433  0.2920
 3513TIP3    H134734   7.057   4.631  13.246 -0.1049 -1.1344 -1.0963
 3513TIP3    H234735   7.124   4.766  13.228 -2.2311  0.4609  1.9292
 3514TIP3   OH234736   4.474   2.432  14.645 -0.7168  0.1142 -0.0128
 3514TIP3    H134737   4.392   2.450  14.599 -0.8318 -0.7164 -0.1485
 3514TIP3    H234738   4.447   2.396  14.730 -0.4995  1.1041  0.4911
 3515TIP3   OH234739   6.458   4.844  13.557 -0.2555  0.1256  1.1486
 3515TIP3    H134740   6.411   4.922  13.587  2.8281  2.5285  0.2971
 3515TIP3    H234741   6.457   4.850  13.462  1.1835 -0.0820  1.0989
 3516TIP3   OH234742   7.152   1.462  13.698 -0.5534  0.0846 -0.5194
 3516TIP3    H134743   7.113   1.549  13.705 -0.9981 -0.0867 -0.8258
 3516TIP3    H234744   7.142   1.425  13.786  1.6517  1.1629  0.2562
 3517TIP3   OH234745   8.060   0.199  13.322 -0.0403  0.4384  0.5964
 3517TIP3    H134746   8.042   0.140  13.395 -0.9549  0.3598  0.3279
 3517TIP3    H234747   7.991   0.266  13.328  0.1439  0.6823  0.0687
 3518TIP3   OH234748   1.315   0.448  13.893  0.7985 -0.3052 -0.3167
 3518TIP3    H134749   1.254   0.519  13.911  0.7964 -0.6294  1.0774
 3518TIP3    H234750   1.334   0.455  13.799 -2.9626 -1.4736 -1.3276
 3519TIP3   OH234751   0.123   3.695  14.360  0.0484  0.0189 -0.2302
 3519TIP3    H134752   0.163   3.656  14.283  1.7262  0.6535  0.2798
 3519TIP3    H234753   0.196   3.713  14.420 -0.7485  2.7186  0.0855
 3520TIP3   OH234754   7.055   6.406  13.612 -0.2234  0.6970  0.5557
 3520TIP3    H134755   6.967   6.444  13.621  0.0908  1.0769  2.4493
 3520TIP3    H234756   7.054   6.331  13.672 -0.0119 -0.8294 -1.2393
 3521TIP3   OH234757   0.425   7.600  13.979  0.3839  0.2360  0.2343
 3521TIP3    H134758   0.495   7.539  14.001  0.9250  0.5379 -0.5928
 3521TIP3    H234759   0.350   7.544  13.959 -0.0272 -0.0588  2.4003
 3522TIP3   OH234760   4.677   2.428  14.277  0.0474 -0.5035 -0.4229
 3522TIP3    H134761   4.669   2.471  14.362 -0.3841 -0.9328 -0.2443
 3522TIP3    H234762   4.765   2.391  14.277  0.4567  0.4331 -0.6085
 3523TIP3   OH234763   6.233   3.974  15.015 -0.1131 -0.3083  0.3182
 3523TIP3    H134764   6.230   4.025  14.934 -1.0120 -0.2066  0.4027
 3523TIP3    H234765   6.216   3.884  14.987  1.7347 -0.6474  0.1328
 3524TIP3   OH234766   4.368   4.955  14.688  0.0322  0.2682  0.7696
 3524TIP3    H134767   4.338   4.931  14.600  2.1514  1.1460 -0.2754
 3524TIP3    H234768   4.444   4.898  14.704  0.4997  1.0571  1.4373
 3525TIP3   OH234769   2.912   2.335  13.111  0.3743 -0.1193  0.2039
 3525TIP3    H134770   2.959   2.252  13.119 -1.2378 -0.9765  1.5478
 3525TIP3    H234771   2.877   2.350  13.199 -0.4835  1.2904 -0.3513
 3526TIP3   OH234772   7.684   3.636  13.814  0.0895 -0.0551 -0.4144
 3526TIP3    H134773   7.677   3.722  13.856  0.2487 -0.2446  0.0110
 3526TIP3    H234774   7.704   3.655  13.723 -1.2151  0.3955 -0.6259
 3527TIP3   OH234775   3.295   4.949  13.461  0.2570 -0.4270 -0.2480
 3527TIP3    H134776   3.238   4.873  13.449 -0.0953  0.0073 -1.4507
 3527TIP3    H234777   3.332   4.965  13.374  0.8222  0.3895  0.1321
 3528TIP3   OH234778   5.711   7.858  13.855 -0.0953 -0.4403 -0.2543
 3528TIP3    H134779   5.773   7.796  13.817 -1.0040 -0.2156 -2.2541
 3528TIP3    H234780   5.762   7.939  13.865  0.5392 -0.9111  0.3763
 3529TIP3   OH234781   3.216   4.596  12.880  0.2476  0.2700  0.2683
 3529TIP3    H134782   3.232   4.502  12.888  1.8460  0.5881  1.3081
 3529TIP3    H234783   3.131   4.610  12.921  0.1215 -0.6855  0.3465
 3530TIP3   OH234784   2.555   8.089  14.404 -0.1283 -0.4975  0.2402
 3530TIP3    H134785   2.478   8.040  14.379 -1.6661  1.7733  0.2068
 3530TIP3    H234786   2.556   8.087  14.500  0.3956 -1.3718  0.2294
 3531TIP3   OH234787   0.617   2.511  14.290  0.1301  0.6679  0.5866
 3531TIP3    H134788   0.711   2.529  14.297 -0.2006  2.7435  0.4629
 3531TIP3    H234789   0.590   2.557  14.211 -1.0449  0.3117  0.7622
 3532TIP3   OH234790   4.667   1.212  14.104  0.6424 -0.0164  0.3034
 3532TIP3    H134791   4.720   1.227  14.183  0.4803  1.1345  0.2238
 3532TIP3    H234792   4.714   1.258  14.035  0.1265  0.0593 -0.0023
 3533TIP3   OH234793   2.067   7.028  13.635 -0.0955  0.2536 -0.2029
 3533TIP3    H134794   2.031   7.116  13.641 -0.6546  0.0761 -0.8242
 3533TIP3    H234795   2.150   7.032  13.683  0.6966  1.5415 -1.6063
 3534TIP3   OH234796   2.599   6.963  13.611 -0.3724  0.0304 -0.1458
 3534TIP3    H134797   2.572   6.872  13.603  0.0047 -0.2250  1.2229
 3534TIP3    H234798   2.689   6.965  13.579  0.1088 -0.3799  1.1294
 3535TIP3   OH234799   3.541   3.292  14.681  0.1484  0.0648 -0.0689
 3535TIP3    H134800   3.562   3.329  14.595  1.3432 -1.5125 -0.5074
 3535TIP3    H234801   3.472   3.228  14.664  0.0399  0.0986  0.2321
 3536TIP3   OH234802   0.545   1.362  14.433  0.5910  0.4397 -0.0537
 3536TIP3    H134803   0.498   1.362  14.350 -1.4560 -0.0398  1.0398
 3536TIP3    H234804   0.546   1.270  14.460 -0.1386  0.7626  1.1546
 3537TIP3   OH234805   6.848   2.823  13.691 -0.5715  0.1723 -0.2451
 3537TIP3    H134806   6.848   2.775  13.609  0.2061 -1.0851  0.4617
 3537TIP3    H234807   6.929   2.873  13.690 -0.1593 -0.4867  0.1163
 3538TIP3   OH234808   8.234   2.075  13.239 -0.0549 -0.2228 -0.3379
 3538TIP3    H134809   8.312   2.099  13.289  0.1669 -1.5014 -0.0342
 3538TIP3    H234810   8.227   2.143  13.171  1.3773 -0.1354 -0.4274
 3539TIP3   OH234811   6.887   4.880  14.126  0.0972 -0.4233  0.4479
 3539TIP3    H134812   6.817   4.915  14.071  0.1546 -0.6372  0.2342
 3539TIP3    H234813   6.966   4.925  14.096 -0.3912  2.7310  3.1877
 3540TIP3   OH234814   3.593   1.691  14.554 -0.0242 -0.2852  0.3455
 3540TIP3    H134815   3.672   1.732  14.591  0.4971 -3.1014  2.8287
 3540TIP3    H234816   3.532   1.686  14.628 -0.5573 -2.5554 -0.1603
 3541TIP3   OH234817   6.125   0.334  13.847 -0.6053  0.0703 -0.0184
 3541TIP3    H134818   6.050   0.286  13.811 -1.9321  0.5978  1.9171
 3541TIP3    H234819   6.189   0.266  13.868 -0.1786 -0.3282 -2.3597
 3542TIP3   OH234820   2.890   5.452  14.356 -0.1479 -0.5781  0.0333
 3542TIP3    H134821   2.838   5.409  14.425 -0.2504  0.6250  0.7265
 3542TIP3    H234822   2.904   5.541  14.388  0.8323 -0.3470 -0.9681
 3543TIP3   OH234823   1.264   2.414  13.367  0.3694 -0.0583 -0.2277
 3543TIP3    H134824   1.191   2.386  13.312 -1.0249  1.3945  0.8086
 3543TIP3    H234825   1.249   2.507  13.382  1.7446 -0.0025  1.0413
 3544TIP3   OH234826   5.283   6.113  13.992  0.0049 -0.3072  0.0071
 3544TIP3    H134827   5.207   6.110  13.934  0.5651 -0.1431 -0.7543
 3544TIP3    H234828   5.260   6.177  14.059 -0.8491 -0.8607  0.2565
 3545TIP3   OH234829   0.727   1.039  13.887  0.3122 -0.2191 -0.0270
 3545TIP3    H134830   0.716   1.082  13.972  2.0206  0.0150  0.0984
 3545TIP3    H234831   0.716   0.946  13.906 -3.1357  0.0042 -0.2555
 3546TIP3   OH234832   1.059   7.443  13.445  0.8448  0.1374  0.0788
 3546TIP3    H134833   1.133   7.503  13.436  1.4595 -0.3760  1.4463
 3546TIP3    H234834   1.048   7.432  13.540 -1.1578  0.3981 -0.0816
 3547TIP3   OH234835   3.034   6.917  13.609 -0.3954  0.3289 -0.3366
 3547TIP3    H134836   2.997   6.922  13.697 -0.1867 -1.0481 -0.1441
 3547TIP3    H234837   2.959   6.902  13.551 -0.6028  1.8419 -0.4830
 3548TIP3   OH234838   0.902   1.675  13.991 -0.6228 -0.0991 -0.0751
 3548TIP3    H134839   0.854   1.745  13.947  0.4244 -0.1286 -1.3220
 3548TIP3    H234840   0.993   1.705  13.992 -0.0986 -1.5710 -0.9312
 3549TIP3   OH234841   4.995   2.673  14.970  0.5248  0.0649 -0.0358
 3549TIP3    H134842   5.023   2.746  15.025 -0.7365  0.1752  0.4913
 3549TIP3    H234843   5.043   2.684  14.889  1.7236  0.4339  0.7056
 3550TIP3   OH234844   6.167   0.611  14.378 -0.1577 -0.4596  0.1435
 3550TIP3    H134845   6.182   0.517  14.383  2.0460 -0.3605 -2.3041
 3550TIP3    H234846   6.253   0.650  14.392 -0.7219  1.0905 -0.4331
 3551TIP3   OH234847   2.235   4.004  13.714 -0.3181  0.3567 -0.6403
 3551TIP3    H134848   2.243   3.928  13.772  0.6100  1.9133  1.3812
 3551TIP3    H234849   2.148   4.038  13.732 -0.5930  0.0165 -1.2809
 3552TIP3   OH234850   0.905   6.583  14.963  0.4629 -0.1926 -0.5711
 3552TIP3    H134851   0.924   6.510  14.904  2.0148 -0.2319 -0.0698
 3552TIP3    H234852   0.902   6.543  15.050 -0.6498  0.0498 -0.4835
 3553TIP3   OH234853   4.264   3.909  14.850  0.0639 -0.1192  0.7727
 3553TIP3    H134854   4.341   3.896  14.905  1.0724 -0.2345 -0.6167
 3553TIP3    H234855   4.243   3.821  14.818 -0.3318 -0.0125  0.7387
 3554TIP3   OH234856   5.961   6.761  14.807 -0.0635  0.6249 -0.4116
 3554TIP3    H134857   5.953   6.856  14.798 -0.2320  0.7627  0.9672
 3554TIP3    H234858   5.882   6.726  14.764  0.8094  0.9736 -2.4213
 3555TIP3   OH234859   4.503   6.533  14.107 -0.3819 -0.0248 -0.1721
 3555TIP3    H134860   4.554   6.452  14.111  0.1957  0.3152 -0.5423
 3555TIP3    H234861   4.480   6.541  14.014 -0.6440  0.1118 -0.0938
 3556TIP3   OH234862   1.726   4.684  13.823 -0.2768  0.1418  0.2079
 3556TIP3    H134863   1.734   4.670  13.918 -0.4027 -1.1818  0.0435
 3556TIP3    H234864   1.742   4.597  13.785  2.5585  1.1401 -1.1588
 3557TIP3   OH234865   7.323   4.361  12.528 -0.1730  0.2463 -0.6624
 3557TIP3    H134866   7.281   4.322  12.452 -1.1847 -1.4219  0.6719
 3557TIP3    H234867   7.253   4.368  12.593  0.9084  0.4890  0.5220
 3558TIP3   OH234868   6.699   4.352  14.866 -1.2761 -0.4993 -0.0445
 3558TIP3    H134869   6.658   4.428  14.825 -1.3196  0.0843  1.0438
 3558TIP3    H234870   6.681   4.279  14.806 -1.9900  0.1772 -0.6648
 3559TIP3   OH234871   4.661   6.496  14.565  0.2704  0.2808  0.0951
 3559TIP3    H134872   4.611   6.452  14.496 -0.3562  0.2242  0.5845
 3559TIP3    H234873   4.736   6.438  14.581  0.1421  0.0392 -0.1704
 3560TIP3   OH234874   1.632   0.695  14.980  0.5870 -0.2741  0.7049
 3560TIP3    H134875   1.658   0.644  15.056  0.5794 -0.8701  0.3086
 3560TIP3    H234876   1.697   0.675  14.913  1.1764  1.0208  0.8598
 3561TIP3   OH234877   6.833   7.710  14.956  0.1699 -0.2765  0.1006
 3561TIP3    H134878   6.899   7.721  14.888 -0.7170  0.2197 -0.7177
 3561TIP3    H234879   6.825   7.615  14.967 -1.9891 -0.5931 -2.9267
 3562TIP3   OH234880   0.524   4.027  14.345 -0.0177 -0.0338 -0.5211
 3562TIP3    H134881   0.508   3.999  14.435  1.9936 -0.7816 -0.3464
 3562TIP3    H234882   0.597   4.089  14.352  1.4259 -1.5070 -1.7583
 3563TIP3   OH234883   6.910   3.653  14.437 -0.4461 -0.1608  0.2447
 3563TIP3    H134884   6.891   3.578  14.493  0.8721 -1.8438 -1.4359
 3563TIP3    H234885   6.858   3.639  14.358  0.1917  0.4251 -0.2920
 3564TIP3   OH234886   6.590   7.954  13.049  0.6925 -0.1744  0.6463
 3564TIP3    H134887   6.613   7.877  12.996  0.0978 -0.0151  0.1551
 3564TIP3    H234888   6.653   8.021  13.022  0.2163 -0.0078 -0.0594
 3565TIP3   OH234889   5.621   0.726  12.695 -0.1629 -0.0692 -0.0013
 3565TIP3    H134890   5.588   0.637  12.686 -1.0423  0.2408  0.0884
 3565TIP3    H234891   5.714   0.720  12.672 -0.1642 -1.0444  0.2190
 3566TIP3   OH234892   8.068   0.887  15.186 -0.0795  0.7368  0.4369
 3566TIP3    H134893   8.070   0.836  15.267 -0.0905  0.5293  0.3055
 3566TIP3    H234894   7.981   0.927  15.185 -1.7841 -2.6134 -1.5463
 3567TIP3   OH234895   0.174   6.135  13.000 -0.0475  0.0307 -0.2868
 3567TIP3    H134896   0.222   6.113  12.920 -0.5551  0.3200 -0.6713
 3567TIP3    H234897   0.194   6.063  13.060 -1.7047 -1.5342 -1.5186
 3568TIP3   OH234898   7.764   4.057  13.544 -0.2759  0.4511  0.2794
 3568TIP3    H134899   7.682   4.025  13.582 -0.6509  1.2931  0.1848
 3568TIP3    H234900   7.738   4.100  13.463  0.3211  0.2696 -0.0107
 3569TIP3   OH234901   5.098   3.045  14.937  0.5691 -0.0084  0.1122
 3569TIP3    H134902   5.132   3.030  14.849  0.4181 -0.3452  0.1101
 3569TIP3    H234903   5.130   3.132  14.961  0.1710  0.3041 -0.4740
 3570TIP3   OH234904   2.370   4.336  13.874  0.0235 -0.8784 -0.0136
 3570TIP3    H134905   2.284   4.358  13.837  0.6989 -0.5736 -1.4652
 3570TIP3    H234906   2.420   4.418  13.869  0.8136 -1.3721 -0.4270
 3571TIP3   OH234907   2.985   1.651  14.620  0.2185 -0.0947 -0.3840
 3571TIP3    H134908   3.035   1.590  14.674  1.1032 -0.2552 -1.3532
 3571TIP3    H234909   2.942   1.709  14.682 -0.1708 -1.3366  0.5390
 3572TIP3   OH234910   7.947   3.068  13.318  0.3710  0.2928  0.0808
 3572TIP3    H134911   7.986   2.999  13.264 -0.2603 -0.1164  0.1401
 3572TIP3    H234912   7.896   3.021  13.383 -0.1303  0.8183  0.0747
 3573TIP3   OH234913   5.640   0.994  13.016  0.5802 -0.8061  0.0105
 3573TIP3    H134914   5.642   1.001  12.920 -0.2061  0.7851  0.0730
 3573TIP3    H234915   5.577   1.061  13.043  1.2262 -0.8322  1.6735
 3574TIP3   OH234916   4.962   2.243  14.758  0.0996 -0.0154 -0.4204
 3574TIP3    H134917   4.952   2.317  14.698  0.6627  0.8996  0.5761
 3574TIP3    H234918   4.931   2.277  14.842  1.0041 -0.7001  0.2048
 3575TIP3   OH234919   6.664   6.670  14.647  0.2710  0.0054 -0.0233
 3575TIP3    H134920   6.657   6.765  14.661 -0.5830 -0.1461  0.6582
 3575TIP3    H234921   6.656   6.633  14.735 -0.8950 -0.7762 -0.4418
 3576TIP3   OH234922   2.697   4.426  12.980 -0.2583  0.4496  0.5100
 3576TIP3    H134923   2.788   4.403  12.999 -0.5288  0.6260  2.1092
 3576TIP3    H234924   2.704   4.494  12.913  0.6825 -1.2163 -1.1909
 3577TIP3   OH234925   3.195   8.030  14.603 -0.0374  0.7943  0.3200
 3577TIP3    H134926   3.109   7.990  14.610  0.0677  0.2967 -0.9302
 3577TIP3    H234927   3.254   7.966  14.643 -0.1379  0.6986  0.3155
 3578TIP3   OH234928   3.845   5.110  14.843 -0.4994 -0.7680  0.5701
 3578TIP3    H134929   3.761   5.151  14.826 -1.3448 -3.1852 -1.7904
 3578TIP3    H234930   3.832   5.059  14.923 -0.2159  1.3254  2.0273
 3579TIP3   OH234931   0.777   1.515  14.946  0.3581 -0.0471  0.3344
 3579TIP3    H134932   0.807   1.503  14.856  1.6427  1.9862  0.4375
 3579TIP3    H234933   0.753   1.607  14.951 -0.4221 -0.3120  1.8861
 3580TIP3   OH234934   5.468   7.875  13.999 -0.8627  0.3104 -0.1613
 3580TIP3    H134935   5.453   7.781  13.994 -0.0332  0.1416  0.3409
 3580TIP3    H234936   5.557   7.887  13.966 -0.6254  0.8110  0.6417
 3581TIP3   OH234937   6.766   5.067  14.848  0.0045  0.1373  0.4496
 3581TIP3    H134938   6.853   5.104  14.865 -0.2475  0.9722 -0.0401
 3581TIP3    H234939   6.722   5.132  14.794 -0.2032 -1.1799 -1.0546
 3582TIP3   OH234940   4.021   2.708  14.519  0.0889 -0.3809  0.0986
 3582TIP3    H134941   3.968   2.690  14.442 -0.6773  2.8735 -0.2558
 3582TIP3    H234942   3.958   2.727  14.589  0.6333  2.4442 -0.0463
 3583TIP3   OH234943   0.056   0.992  13.686  0.1083 -0.3169  0.6427
 3583TIP3    H134944   0.150   0.994  13.675  0.4169 -1.9361  2.3880
 3583TIP3    H234945   0.023   0.944  13.610  0.6277  0.5900 -0.1693
 3584TIP3   OH234946   2.882   1.392  12.978  0.0712 -0.2786  0.9519
 3584TIP3    H134947   2.941   1.376  12.903 -1.0885 -2.9428  0.4891
 3584TIP3    H234948   2.926   1.350  13.052 -0.3958 -0.6802  1.0027
 3585TIP3   OH234949   2.089   1.386  13.665 -0.3577  0.0965  0.2247
 3585TIP3    H134950   2.159   1.448  13.644 -1.3114  1.9236  2.0752
 3585TIP3    H234951   2.030   1.391  13.590 -0.4624  1.5521  0.3700
 3586TIP3   OH234952   5.158   3.760  14.292 -0.2231 -0.0982  0.5954
 3586TIP3    H134953   5.129   3.807  14.371 -1.4654  0.1229  0.0280
 3586TIP3    H234954   5.235   3.808  14.263  0.0064  0.0714  1.4387
 3587TIP3   OH234955   8.199   4.486  15.155  0.2741 -0.4038 -0.0529
 3587TIP3    H134956   8.253   4.556  15.118  0.4602 -0.2403  0.5169
 3587TIP3    H234957   8.132   4.532  15.206  1.2954 -0.6403  1.5849
 3588TIP3   OH234958   6.875   5.382  15.196 -0.1242 -0.0265 -0.2363
 3588TIP3    H134959   6.936   5.371  15.269 -0.4913 -0.8689 -0.0561
 3588TIP3    H234960   6.842   5.294  15.178 -1.4429  0.4470 -0.2106
 3589TIP3   OH234961   7.260   6.390  14.716  0.7388  0.0206  0.2712
 3589TIP3    H134962   7.195   6.404  14.647  1.9127  0.0373 -0.8724
 3589TIP3    H234963   7.302   6.475  14.726 -0.6541  0.5350  2.3750
 3590TIP3   OH234964   0.817   5.901  14.636  0.2136 -1.0437  0.1357
 3590TIP3    H134965   0.836   5.892  14.729 -0.3965 -1.2293  0.2504
 3590TIP3    H234966   0.812   5.996  14.622 -0.0577 -1.0213  0.3702
 3591TIP3   OH234967   4.420   4.116  13.987  0.0991  0.1763  0.2799
 3591TIP3    H134968   4.421   4.116  13.891 -1.9339  1.0725  0.1956
 3591TIP3    H234969   4.353   4.051  14.010  0.3704  0.1683  1.0738
 3592TIP3   OH234970   5.151   2.704  14.429  0.0616 -0.3879 -0.5634
 3592TIP3    H134971   5.100   2.753  14.364  1.5472  0.7135 -0.9629
 3592TIP3    H234972   5.234   2.685  14.384 -0.0104 -2.2374  0.0189
 3593TIP3   OH234973   5.465   2.969  13.657  0.2954 -0.0737  0.1538
 3593TIP3    H134974   5.526   2.924  13.598  0.3565 -1.2497  1.0810
 3593TIP3    H234975   5.379   2.935  13.632  0.2028  0.2416  0.0348
 3594TIP3   OH234976   3.027   4.686  14.258 -0.0193 -0.0625 -0.6449
 3594TIP3    H134977   2.935   4.675  14.238  0.2562 -1.1056 -1.4115
 3594TIP3    H234978   3.036   4.779  14.280 -1.6901 -0.4147  1.9162
 3595TIP3   OH234979   3.002   3.854  14.533  0.5909 -0.3057  1.1140
 3595TIP3    H134980   3.029   3.776  14.485 -0.0882  0.2267 -0.2046
 3595TIP3    H234981   3.066   3.921  14.508  1.4791 -0.5546  2.6499
 3596TIP3   OH234982   2.499   6.466  13.072 -0.0945  0.1390  0.4003
 3596TIP3    H134983   2.532   6.550  13.106  1.6356 -0.4326  0.2479
 3596TIP3    H234984   2.569   6.435  13.015 -0.7994 -1.3224  0.2991
 3597TIP3   OH234985   5.641   2.325  15.104 -0.4579  0.0534  0.2361
 3597TIP3    H134986   5.592   2.377  15.168 -2.5086  0.9098 -1.8980
 3597TIP3    H234987   5.639   2.377  15.024  2.5271 -0.7117 -0.4716
 3598TIP3   OH234988   7.858   1.262  13.380 -0.0253 -0.5412 -0.0539
 3598TIP3    H134989   7.823   1.297  13.462  0.4592 -0.6303  0.1935
 3598TIP3    H234990   7.922   1.327  13.352 -0.4241 -0.3455 -0.5434
 3599TIP3   OH234991   3.302   3.861  13.388  0.1647 -0.1913  0.1777
 3599TIP3    H134992   3.240   3.899  13.324  1.0181  1.7146  0.4114
 3599TIP3    H234993   3.383   3.911  13.375  1.5589 -2.3320  0.1884
 3600TIP3   OH234994   6.625   0.391  14.923 -0.1777 -0.2244  0.3276
 3600TIP3    H134995   6.636   0.446  14.846  1.5211  0.1614  0.8036
 3600TIP3    H234996   6.593   0.308  14.889  0.9990 -0.2227 -0.8741
 3601TIP3   OH234997   3.790   1.512  13.230  0.1785 -0.2956 -0.1050
 3601TIP3    H134998   3.719   1.480  13.175  0.4851 -0.1683 -0.5801
 3601TIP3    H234999   3.842   1.433  13.250  0.6809 -0.1797 -0.9068
 3602TIP3   OH235000   6.789   0.744  14.582 -0.1033 -0.2637  0.2200
 3602TIP3    H135001   6.820   0.743  14.492  0.6707  0.3837  0.4587
 3602TIP3    H235002   6.731   0.820  14.587  1.6502  1.1112  0.7961
 3603TIP3   OH235003   2.177   7.502  14.543  0.1835 -0.0082 -0.1981
 3603TIP3    H135004   2.261   7.535  14.512  0.8588 -0.7581  0.7507
 3603TIP3    H235005   2.196   7.468  14.631 -1.1883  0.1231  0.1759
 3604TIP3   OH235006   7.244   1.766  13.619  0.0322  0.3925 -0.2557
 3604TIP3    H135007   7.168   1.752  13.676 -0.0100  0.0670 -0.3941
 3604TIP3    H235008   7.315   1.718  13.662  0.1568  0.6781 -0.1378
 3605TIP3   OH235009   4.412   2.510  13.765 -0.0649 -0.0882 -0.2632
 3605TIP3    H135010   4.379   2.510  13.855 -2.3534 -1.8143 -0.9978
 3605TIP3    H235011   4.354   2.569  13.718  1.0645  0.7410 -0.6537
 3606TIP3   OH235012   2.848   5.980  14.776 -0.5111 -0.0124 -0.5576
 3606TIP3    H135013   2.814   5.926  14.847 -4.3733  0.8434 -1.5052
 3606TIP3    H235014   2.910   6.039  14.818  1.2120 -2.8119  1.0869
 3607TIP3   OH235015   7.517   6.711  13.638 -0.0642 -0.1305  0.1182
 3607TIP3    H135016   7.434   6.750  13.608  0.1141 -0.7391 -1.2615
 3607TIP3    H235017   7.584   6.772  13.606  0.1829 -1.2090 -1.5794
 3608TIP3   OH235018   2.050   8.410  14.596 -0.0410  0.4018  0.2855
 3608TIP3    H135019   1.958   8.398  14.576 -0.0210 -1.2474  0.9914
 3608TIP3    H235020   2.095   8.393  14.514 -0.3637  1.4984 -0.1311
 3609TIP3   OH235021   1.958   2.676  13.064  0.6851 -0.1055  0.0314
 3609TIP3    H135022   2.015   2.665  13.140  0.3270  0.1377  0.3396
 3609TIP3    H235023   1.893   2.606  13.073  0.6722 -0.1068 -0.0753
 3610TIP3   OH235024   7.720   7.224  13.846  0.7434 -0.5719 -0.2456
 3610TIP3    H135025   7.761   7.156  13.899  1.5507  0.1876  0.1366
 3610TIP3    H235026   7.767   7.220  13.763  2.3773  0.9741  0.5349
 3611TIP3   OH235027   4.050   2.224  14.389  0.2016 -0.1486  1.0437
 3611TIP3    H135028   4.023   2.188  14.305  0.2679  0.5532  0.7214
 3611TIP3    H235029   4.125   2.170  14.416  1.0948  0.5236 -0.0243
 3612TIP3   OH235030   6.368   7.406  13.178 -0.1854  0.4775 -0.6366
 3612TIP3    H135031   6.364   7.467  13.251  0.1155  1.1185 -1.1429
 3612TIP3    H235032   6.445   7.352  13.196  0.9435  1.7903 -1.3460
 3613TIP3   OH235033   0.893   0.164  14.426  0.0846 -0.5037  0.0298
 3613TIP3    H135034   0.914   0.122  14.342 -0.3732 -3.9893  1.4900
 3613TIP3    H235035   0.977   0.173  14.471  0.1636  0.0557 -0.2197
 3614TIP3   OH235036   7.095   4.637  12.790 -0.1669  0.2795  0.5335
 3614TIP3    H135037   7.031   4.573  12.759  2.4457 -1.7910 -0.9880
 3614TIP3    H235038   7.062   4.721  12.759 -0.2309 -1.1423 -3.8620
 3615TIP3   OH235039   4.407   2.277  14.862 -0.2068 -0.0118 -0.7294
 3615TIP3    H135040   4.417   2.352  14.921  0.1675  1.0814 -2.1200
 3615TIP3    H235041   4.497   2.247  14.847 -0.3272 -0.4963 -0.4796
 3616TIP3   OH235042   1.490   1.242  13.589 -0.1568 -0.1590  0.6071
 3616TIP3    H135043   1.583   1.237  13.613 -0.0401 -1.4612 -0.0179
 3616TIP3    H235044   1.443   1.215  13.668 -0.0808  1.2966  1.1969
 3617TIP3   OH235045   4.705   5.439  13.453  0.2338 -0.9142  0.2692
 3617TIP3    H135046   4.696   5.462  13.360  1.4754 -0.7323  0.1680
 3617TIP3    H235047   4.619   5.456  13.490  0.3908  1.6671 -0.3048
 3618TIP3   OH235048   0.940   1.843  13.666 -0.2315  0.2818 -0.3441
 3618TIP3    H135049   0.980   1.923  13.699 -1.0973 -0.0071  1.5318
 3618TIP3    H235050   0.846   1.863  13.665 -0.4732 -0.7448  0.3291
 3619TIP3   OH235051   6.139   6.743  15.068 -0.0273 -0.6913  0.1348
 3619TIP3    H135052   6.151   6.667  15.012  2.8889 -1.0151  1.0306
 3619TIP3    H235053   6.185   6.814  15.023  0.0541 -0.2971  0.8191
 3620TIP3   OH235054   1.364   6.790  14.608 -0.1767 -0.2392 -0.0234
 3620TIP3    H135055   1.372   6.722  14.541 -0.5248 -0.2715 -0.0337
 3620TIP3    H235056   1.414   6.757  14.682  0.3273 -0.1411 -0.3172
 3621TIP3   OH235057   6.882   4.477  15.031  0.1412 -0.5391 -0.2921
 3621TIP3    H135058   6.825   4.430  14.970 -1.4357  0.3513  0.4327
 3621TIP3    H235059   6.938   4.531  14.974 -0.6867 -0.4012 -1.0008
 3622TIP3   OH235060   3.166   0.786  13.753 -0.2032  0.4393 -0.0042
 3622TIP3    H135061   3.190   0.775  13.845 -0.9214  1.7634  0.3563
 3622TIP3    H235062   3.074   0.763  13.749 -0.2825  0.7994 -0.3106
 3623TIP3   OH235063   1.688   2.407  13.986  0.5483  0.0324  0.2900
 3623TIP3    H135064   1.761   2.352  13.955 -0.4210 -0.2455 -1.6914
 3623TIP3    H235065   1.712   2.496  13.959 -0.0690 -0.1408 -0.9078
 3624TIP3   OH235066   0.421   2.819  13.974 -0.4855 -0.2961  0.1783
 3624TIP3    H135067   0.375   2.803  13.891  2.7050 -1.1448 -1.6159
 3624TIP3    H235068   0.411   2.912  13.989 -1.5331 -0.2051 -0.9123
 3625TIP3   OH235069   4.515   4.865  15.086 -0.2501  0.1981 -0.1049
 3625TIP3    H135070   4.574   4.792  15.102 -0.2249  0.4719  1.1666
 3625TIP3    H235071   4.430   4.825  15.067 -0.3673 -0.1756  1.1263
 3626TIP3   OH235072   2.893   3.207  14.964  0.2088 -0.0660 -0.6881
 3626TIP3    H135073   2.803   3.190  14.936 -0.2774  0.4769  0.4678
 3626TIP3    H235074   2.897   3.302  14.976  0.4622 -0.2316  0.7550
 3627TIP3   OH235075   0.345   8.013  13.855  0.1320  0.2554  0.0205
 3627TIP3    H135076   0.272   7.971  13.900 -0.9041  1.4924 -0.4548
 3627TIP3    H235077   0.338   7.983  13.764  0.7151 -0.2555  0.1348
 3628TIP3   OH235078   2.192   8.124  14.474  0.1950  0.2969  0.7307
 3628TIP3    H135079   2.134   8.110  14.399  1.1038  0.0804  0.0558
 3628TIP3    H235080   2.199   8.038  14.516  2.4863 -0.4392 -1.0130
 3629TIP3   OH235081   6.088   0.702  14.106  0.5005  0.4282  0.1406
 3629TIP3    H135082   6.123   0.659  14.184  1.0327 -0.4575 -0.5699
 3629TIP3    H235083   6.139   0.666  14.034 -1.7631 -0.8180 -0.9464
 3630TIP3   OH235084   5.757   4.579  13.533 -0.2340 -0.1403  0.1253
 3630TIP3    H135085   5.709   4.621  13.604  0.2190  0.0602  0.3179
 3630TIP3    H235086   5.717   4.615  13.453 -1.6008 -1.3165  0.2327
 3631TIP3   OH235087   8.407   2.122  13.480 -0.5451 -0.3200 -0.5770
 3631TIP3    H135088   8.457   2.153  13.405 -0.3740  3.1058  0.8008
 3631TIP3    H235089   8.473   2.100  13.545 -0.7304  1.0624  0.1020
 3632TIP3   OH235090   4.372   0.511  14.361 -0.3701 -0.1039 -0.1094
 3632TIP3    H135091   4.401   0.584  14.416  0.1057 -0.3504 -0.0289
 3632TIP3    H235092   4.319   0.457  14.419  0.4216 -0.5509  0.2157
 3633TIP3   OH235093   0.509   3.985  13.533 -0.0076  0.1168 -0.3407
 3633TIP3    H135094   0.595   3.946  13.554  0.9223  0.5336 -2.9980
 3633TIP3    H235095   0.455   3.910  13.506 -0.4131 -0.1074  1.0377
 3634TIP3   OH235096   8.171   6.928  15.169  0.3302  0.2091 -0.0578
 3634TIP3    H135097   8.119   7.008  15.175  0.1293  0.0252  0.8434
 3634TIP3    H235098   8.107   6.857  15.168  0.4766  0.0625 -1.5350
 3635TIP3   OH235099   3.413   6.812  14.861 -0.4559 -0.0625 -0.3001
 3635TIP3    H135100   3.419   6.853  14.947 -1.7723 -2.6806  1.1662
 3635TIP3    H235101   3.480   6.856  14.808  0.8745  1.1506  2.2389
 3636TIP3   OH235102   3.008   3.719  12.766  0.3521  0.9835  0.0864
 3636TIP3    H135103   3.068   3.645  12.778 -0.6404  0.4046  1.8115
 3636TIP3    H235104   2.935   3.682  12.716 -0.4085  0.5972  1.4271
 3637TIP3   OH235105   7.961   4.127  13.953 -0.3106  0.2015  0.7122
 3637TIP3    H135106   7.980   4.214  13.917  2.4580 -0.1684  1.0146
 3637TIP3    H235107   7.936   4.144  14.044 -0.5521  0.7290  0.5532
 3638TIP3   OH235108   5.103   0.432  13.036  0.1906  0.6764  0.0416
 3638TIP3    H135109   5.196   0.412  13.022  0.1567 -1.0886  1.8136
 3638TIP3    H235110   5.070   0.454  12.949  1.7452 -1.0893 -1.0833
 3639TIP3   OH235111   5.622   6.735  14.755  1.2512 -0.6403 -0.5147
 3639TIP3    H135112   5.527   6.730  14.764  1.3401 -0.3411  0.7678
 3639TIP3    H235113   5.636   6.758  14.663  0.1010 -0.9323 -0.7783
 3640TIP3   OH235114   0.849   4.708  14.036 -0.2677 -0.2113  0.3633
 3640TIP3    H135115   0.897   4.734  13.958  0.2358 -1.4575  0.2464
 3640TIP3    H235116   0.914   4.712  14.107 -0.1007 -1.3586  0.2985
 3641TIP3   OH235117   0.993   8.389  13.422  0.3970 -0.2068  0.6777
 3641TIP3    H135118   1.038   8.404  13.338 -0.5752 -0.8446  0.0265
 3641TIP3    H235119   0.933   8.463  13.430 -0.7345 -1.0174 -0.0434
 3642TIP3   OH235120   7.984   4.093  14.407 -0.3221  0.1496 -0.4752
 3642TIP3    H135121   7.999   4.165  14.468 -1.5144 -0.5368  0.6630
 3642TIP3    H235122   8.016   4.015  14.453 -1.3907 -0.3994 -0.6319
 3643TIP3   OH235123   0.052   0.887  12.804  0.0284 -0.1460  0.2264
 3643TIP3    H135124  -0.035   0.923  12.788  0.2237  0.6558  0.9056
 3643TIP3    H235125   0.043   0.794  12.784 -0.3642  0.3140 -2.0837
 3644TIP3   OH235126   3.525   7.731  15.161  0.3657  0.2408  0.0640
 3644TIP3    H135127   3.507   7.785  15.238 -1.9482  1.3168 -1.1073
 3644TIP3    H235128   3.448   7.675  15.153  0.7600 -0.1605 -1.1900
 3645TIP3   OH235129   5.158   2.803  14.042 -0.0638 -0.3506  0.0940
 3645TIP3    H135130   5.229   2.851  13.998  1.3957 -1.8254  0.7142
 3645TIP3    H235131   5.193   2.714  14.052 -1.2286 -0.6270  2.1846
 3646TIP3   OH235132   5.927   2.646  13.872  0.0840 -0.1399  0.0139
 3646TIP3    H135133   5.911   2.602  13.956  0.5594 -0.3018  0.0238
 3646TIP3    H235134   5.840   2.666  13.838 -0.1477 -1.1755 -0.0292
 3647TIP3   OH235135   7.919   4.706  13.858  0.1795  0.2033  0.0951
 3647TIP3    H135136   7.848   4.642  13.851 -1.8255  2.0764  1.7723
 3647TIP3    H235137   7.878   4.790  13.837  1.9934  1.3202  0.7494
 3648TIP3   OH235138   7.488   7.685  14.622 -0.0665  0.2521  0.2331
 3648TIP3    H135139   7.527   7.617  14.567 -1.9778 -0.6434 -0.1028
 3648TIP3    H235140   7.506   7.767  14.577  1.0917 -0.1495 -0.0695
 3649TIP3   OH235141   4.647   3.201  14.500  0.1736 -0.5186 -0.2003
 3649TIP3    H135142   4.607   3.285  14.522 -0.4081 -0.4779 -1.3678
 3649TIP3    H235143   4.694   3.217  14.418  1.9175 -0.7808  0.6834
 3650TIP3   OH235144   5.367   2.695  14.237  0.2757 -0.4380 -0.1291
 3650TIP3    H135145   5.456   2.676  14.266  0.6156 -0.6968 -1.2998
 3650TIP3    H235146   5.367   2.675  14.143 -0.6910  0.7262 -0.3988
 3651TIP3   OH235147   4.235   4.520  15.168  0.2352 -0.5917  0.1507
 3651TIP3    H135148   4.263   4.587  15.106  0.5501 -1.8173 -1.0823
 3651TIP3    H235149   4.140   4.514  15.155  0.4590 -1.7449 -1.2035
 3652TIP3   OH235150   7.202   1.276  14.205  0.5605  0.6551 -0.1841
 3652TIP3    H135151   7.271   1.210  14.216 -2.2651 -2.3928  0.7181
 3652TIP3    H235152   7.210   1.331  14.283  1.8493  0.2741 -0.0185
 3653TIP3   OH235153   6.695   1.420  13.573 -0.1584 -0.3177 -0.1128
 3653TIP3    H135154   6.667   1.457  13.489  0.2002 -1.7451 -0.8884
 3653TIP3    H235155   6.726   1.332  13.551  0.1378 -0.6356  1.4938
 3654TIP3   OH235156   8.120   7.687  14.026 -0.4313  0.0020  0.2412
 3654TIP3    H135157   8.090   7.729  14.107  0.3979  0.4013  0.3513
 3654TIP3    H235158   8.151   7.601  14.054  0.3382  0.3406  0.4291
 3655TIP3   OH235159   7.560   8.027  13.655  0.1024 -0.3257 -0.7006
 3655TIP3    H135160   7.471   8.040  13.687 -0.0912  4.0415 -2.3530
 3655TIP3    H235161   7.554   7.950  13.598 -2.0658 -1.3305  0.7635
 3656TIP3   OH235162   2.024   7.213  14.908 -0.1338 -0.2294  0.3511
 3656TIP3    H135163   2.018   7.306  14.932 -0.3803  0.0556 -0.7794
 3656TIP3    H235164   1.952   7.200  14.846  0.5681 -0.9143 -0.3343
 3657TIP3   OH235165   1.881   3.226  13.410 -0.2700  0.0898 -0.1526
 3657TIP3    H135166   1.882   3.228  13.506 -0.5348  3.2740 -0.1126
 3657TIP3    H235167   1.972   3.243  13.385 -0.1463 -1.0235 -0.4973
 3658TIP3   OH235168   2.497   4.261  13.373 -0.0859 -0.3938 -0.3551
 3658TIP3    H135169   2.435   4.228  13.308 -2.2055  0.2936  1.2117
 3658TIP3    H235170   2.539   4.335  13.329 -1.4934  0.0824 -0.9757
 3659TIP3   OH235171   6.588   2.132  13.851  0.1098  0.1645  0.3062
 3659TIP3    H135172   6.612   2.217  13.815 -2.2745  0.3947 -0.9601
 3659TIP3    H235173   6.534   2.091  13.783  0.8163 -2.1879  1.0622
 3660TIP3   OH235174   5.708   5.325  13.054  0.3113  0.1014  0.3497
 3660TIP3    H135175   5.682   5.343  13.144 -2.6027 -0.2723 -0.3133
 3660TIP3    H235176   5.687   5.233  13.040 -1.1469  0.6211 -1.2343
 3661TIP3   OH235177   2.702   1.609  14.446 -0.3398 -0.6275  0.2033
 3661TIP3    H135178   2.779   1.657  14.477 -0.9923  0.2896  0.4405
 3661TIP3    H235179   2.724   1.517  14.460  1.1181 -0.4526 -0.6594
 3662TIP3   OH235180   2.586   2.588  14.878 -0.1564  0.1491  0.1168
 3662TIP3    H135181   2.625   2.675  14.873  0.9080 -0.3340 -0.0943
 3662TIP3    H235182   2.517   2.596  14.944 -0.9147  1.4653 -0.7986
 3663TIP3   OH235183   5.373   7.603  13.945 -0.1236 -0.5712 -0.3646
 3663TIP3    H135184   5.334   7.598  13.858 -0.6459 -0.2256 -0.1586
 3663TIP3    H235185   5.465   7.581  13.932 -0.0747  0.0199 -1.0961
 3664TIP3   OH235186   7.101   5.211  14.176 -0.4446 -0.2755  0.3885
 3664TIP3    H135187   7.087   5.130  14.225 -1.1178 -0.8470 -0.7198
 3664TIP3    H235188   7.195   5.228  14.185 -0.5481 -0.3475  1.8747
 3665TIP3   OH235189   4.472   4.333  14.149  0.1084 -0.5296 -0.2141
 3665TIP3    H135190   4.490   4.293  14.234  0.6832  0.9226  0.3865
 3665TIP3    H235191   4.444   4.260  14.094 -0.7311 -1.4497  1.3341
 3666TIP3   OH235192   1.749   5.142  13.162 -0.0831 -0.2032  0.5515
 3666TIP3    H135193   1.708   5.123  13.246 -2.5507 -0.1115 -0.5502
 3666TIP3    H235194   1.769   5.056  13.124  0.2835 -0.2610  0.8727
 3667TIP3   OH235195   1.443   8.102  13.684 -0.3201 -0.2127  0.2870
 3667TIP3    H135196   1.434   8.175  13.622  1.0764 -0.2796 -0.0213
 3667TIP3    H235197   1.363   8.051  13.672 -0.0937 -0.2168 -1.4655
 3668TIP3   OH235198   7.264   6.129  14.776 -0.2652  0.0544  0.5155
 3668TIP3    H135199   7.169   6.120  14.776 -0.2583 -0.0869 -0.5141
 3668TIP3    H235200   7.280   6.215  14.738  0.0634 -0.6902 -1.1155
 3669TIP3   OH235201   6.679   0.291  13.434 -0.2735 -0.0183 -0.1149
 3669TIP3    H135202   6.652   0.233  13.505  0.5028  1.7260  1.6821
 3669TIP3    H235203   6.649   0.247  13.355 -1.2308 -2.0054  1.2713
 3670TIP3   OH235204   3.438   4.524  15.081 -0.2235  0.3075 -0.0529
 3670TIP3    H135205   3.461   4.431  15.081 -0.7175  0.1776 -0.7467
 3670TIP3    H235206   3.350   4.527  15.043 -0.3266  1.0355  0.2212
 3671TIP3   OH235207   6.986   0.264  15.099 -0.4787 -0.3729  0.1216
 3671TIP3    H135208   6.960   0.301  15.184  0.3132 -1.6977  0.9773
 3671TIP3    H235209   6.999   0.171  15.116 -0.2946 -0.6711 -1.4679
 3672TIP3   OH235210   1.280   4.537  13.996 -0.5251 -0.3469  0.3398
 3672TIP3    H135211   1.295   4.628  14.023  1.5837 -0.7270  0.6779
 3672TIP3    H235212   1.283   4.487  14.077 -0.3424 -0.8484  0.0286
 3673TIP3   OH235213   1.672   6.184  14.142  0.1402 -0.1446  0.3810
 3673TIP3    H135214   1.623   6.235  14.207 -0.7148  0.3992 -0.6544
 3673TIP3    H235215   1.610   6.174  14.069  1.2712 -0.2449 -0.5817
 3674TIP3   OH235216   1.749   4.953  13.908  0.2580  0.2484  0.1065
 3674TIP3    H135217   1.722   4.890  13.842 -2.1436  0.4359  0.8083
 3674TIP3    H235218   1.824   4.912  13.951  0.5089 -0.8242 -1.2879
 3675TIP3   OH235219   3.704   3.724  15.064 -0.4520 -0.3079  0.0511
 3675TIP3    H135220   3.632   3.665  15.086  0.5717 -1.2649  0.9181
 3675TIP3    H235221   3.701   3.730  14.968 -0.6195 -1.7237 -0.0498
 3676TIP3   OH235222   5.365   1.885  13.275  0.1668 -0.0405 -0.3567
 3676TIP3    H135223   5.410   1.883  13.191  0.7575  1.6365 -0.1189
 3676TIP3    H235224   5.279   1.846  13.257  0.9739 -1.5009 -1.2575
 3677TIP3   OH235225   4.840   1.710  14.745 -0.1224  0.0715  0.3425
 3677TIP3    H135226   4.861   1.773  14.675  0.6619 -1.6494 -1.0634
 3677TIP3    H235227   4.914   1.649  14.744 -0.3078 -0.2362  2.4439
 3678TIP3   OH235228   0.613   5.171  14.243  0.1792  0.2437  0.3667
 3678TIP3    H135229   0.628   5.262  14.220 -3.5241  0.7347 -0.6363
 3678TIP3    H235230   0.603   5.126  14.159 -1.4845 -0.3376  0.8344
 3679TIP3   OH235231   3.829   3.234  15.014  0.2416  0.1059 -0.1405
 3679TIP3    H135232   3.914   3.274  15.029  1.6346 -1.9320 -1.9984
 3679TIP3    H235233   3.796   3.277  14.935  0.1394  0.0061 -0.1529
 3680TIP3   OH235234   3.022   5.455  13.829  0.2009  0.6839 -0.9395
 3680TIP3    H135235   3.039   5.449  13.923  0.4182  2.7724 -0.8040
 3680TIP3    H235236   3.099   5.415  13.788  0.6980  0.9149 -0.2403
 3681TIP3   OH235237   5.955   2.294  13.889  0.1447 -0.1940 -0.1808
 3681TIP3    H135238   5.910   2.325  13.810  1.2011 -1.1199 -1.1853
 3681TIP3    H235239   5.934   2.360  13.956  0.4305  1.4282 -1.6075
 3682TIP3   OH235240   4.231   6.345  14.348 -0.2224 -0.2147  0.3660
 3682TIP3    H135241   4.139   6.367  14.335 -0.8803 -2.5425  0.7846
 3682TIP3    H235242   4.244   6.264  14.300  1.2718 -0.6509  1.4332
 3683TIP3   OH235243   7.813   2.779  13.737 -0.1478 -0.0712 -0.0444
 3683TIP3    H135244   7.798   2.688  13.710 -0.7522 -0.8958  2.7424
 3683TIP3    H235245   7.891   2.775  13.792 -0.1025  1.1375  0.0090
 3684TIP3   OH235246   6.192   7.911  13.036 -0.6176  0.4364  0.0460
 3684TIP3    H135247   6.114   7.871  12.997 -0.6034 -0.1315  0.5831
 3684TIP3    H235248   6.259   7.843  13.029 -0.9840 -0.2381  2.3110
 3685TIP3   OH235249   2.946   8.036  14.946  0.0517  0.1117 -0.2246
 3685TIP3    H135250   3.018   8.078  14.994 -0.2206 -0.6484  0.8976
 3685TIP3    H235251   2.870   8.092  14.962 -0.3241 -0.7862  1.3159
 3686TIP3   OH235252   4.518   5.714  14.789  0.6001  0.1546  0.2372
 3686TIP3    H135253   4.505   5.619  14.790  2.7628 -0.1934  1.2510
 3686TIP3    H235254   4.464   5.746  14.862 -1.0202 -0.0979 -0.7933
 3687TIP3   OH235255   3.682   6.575  14.737  0.1592  0.6158 -0.3404
 3687TIP3    H135256   3.652   6.548  14.824  3.2752  1.7826  1.2518
 3687TIP3    H235257   3.758   6.519  14.719 -0.0849  0.7826 -2.0844
 3688TIP3   OH235258   3.225   7.083  15.178  0.1555  0.2305  0.2727
 3688TIP3    H135259   3.142   7.086  15.132  1.1395  2.3062 -1.5202
 3688TIP3    H235260   3.276   7.016  15.133  0.9670  1.9772 -1.5649
 3689TIP3   OH235261   5.774   6.167  12.900 -0.2128 -0.1119  0.2244
 3689TIP3    H135262   5.848   6.107  12.901  0.7824  1.0721  1.2717
 3689TIP3    H235263   5.813   6.254  12.891 -1.3578  0.6504  2.0527
 3690TIP3   OH235264   7.102   7.334  13.070  0.3200  0.1919  0.3491
 3690TIP3    H135265   7.024   7.348  13.016  0.1911  1.9362  0.9015
 3690TIP3    H235266   7.101   7.241  13.092 -0.3735 -0.2759 -1.4999
 3691TIP3   OH235267   8.222   3.097  12.971  0.0338  0.0691 -0.2874
 3691TIP3    H135268   8.169   3.177  12.966  1.8344  1.5743  2.2964
 3691TIP3    H235269   8.307   3.123  12.935  0.8400 -0.4294  1.1646
 3692TIP3   OH235270   7.930   8.295  14.854  0.2371 -0.0647 -0.6554
 3692TIP3    H135271   7.929   8.389  14.873 -0.1329 -0.3704  0.9513
 3692TIP3    H235272   8.015   8.264  14.886 -0.0682 -0.4593 -0.2147
 3693TIP3   OH235273   3.930   2.341  13.446  0.0386  0.1374  0.1001
 3693TIP3    H135274   3.929   2.286  13.524 -0.4477  1.6329  1.1962
 3693TIP3    H235275   3.884   2.290  13.380 -0.2615 -0.8278  1.0208
 3694TIP3   OH235276   3.661   1.749  15.050 -0.2120 -0.4725  0.1761
 3694TIP3    H135277   3.589   1.808  15.028 -0.1391 -0.6500 -0.5834
 3694TIP3    H235278   3.728   1.806  15.088 -0.3545 -0.1502 -0.0511
 3695TIP3   OH235279   6.571   8.236  14.741  0.2060 -0.1239  0.1151
 3695TIP3    H135280   6.565   8.143  14.719 -0.8872  0.4471 -2.3001
 3695TIP3    H235281   6.651   8.265  14.698 -0.4795  0.4426 -0.7957
 3696TIP3   OH235282   3.319   4.726  14.020 -0.5947  0.2417  0.3363
 3696TIP3    H135283   3.253   4.657  14.029  0.7658 -1.1952 -0.3255
 3696TIP3    H235284   3.268   4.806  14.007 -2.2112 -0.9169 -0.8705
 3697TIP3   OH235285   0.794   2.393  14.061 -0.1227 -0.4314  0.3392
 3697TIP3    H135286   0.717   2.446  14.083  1.2675  0.9210  2.4429
 3697TIP3    H235287   0.860   2.457  14.033  0.0202 -1.6443 -2.3825
 3698TIP3   OH235288   1.442   7.036  14.778  0.2903 -0.0287 -0.5696
 3698TIP3    H135289   1.389   7.012  14.701 -2.3909  0.1740  1.0791
 3698TIP3    H235290   1.450   6.954  14.827  1.4995 -0.0333 -0.7578
 3699TIP3   OH235291   8.419   3.934  14.104 -0.1740  0.0169 -0.0275
 3699TIP3    H135292   8.335   3.957  14.145 -0.3639  0.2622 -0.5322
 3699TIP3    H235293   8.475   4.010  14.119  0.2396 -0.4878  1.0381
 3700TIP3   OH235294   3.429   0.351  15.029 -0.0811 -0.5509  0.2875
 3700TIP3    H135295   3.445   0.410  14.956 -0.6288 -0.8254 -0.0639
 3700TIP3    H235296   3.430   0.407  15.106 -0.9630 -0.0148 -0.0757
 3701TIP3   OH235297   0.036   2.296  14.390  0.1037  0.5919 -0.0162
 3701TIP3    H135298   0.065   2.225  14.447  2.1696  1.8705  0.6442
 3701TIP3    H235299   0.044   2.260  14.301 -0.9769 -0.6638  0.3540
 3702TIP3   OH235300   2.322   2.930  14.322  0.3573 -0.0681 -0.1602
 3702TIP3    H135301   2.405   2.922  14.369  0.0906 -0.8831  0.1871
 3702TIP3    H235302   2.345   2.916  14.230  0.5380 -0.7160 -0.0167
 3703TIP3   OH235303   5.284   5.556  13.310 -0.4533  0.0975 -0.2129
 3703TIP3    H135304   5.300   5.495  13.382  0.5585  0.6526  0.0525
 3703TIP3    H235305   5.190   5.548  13.292 -0.4542 -1.0555  0.2433
 3704TIP3   OH235306   8.391   1.557  13.948 -0.6088  0.2411  0.2060
 3704TIP3    H135307   8.414   1.633  13.896 -1.3871 -0.2128 -0.8315
 3704TIP3    H235308   8.423   1.577  14.036 -2.0924  2.3960  0.3233
 3705TIP3   OH235309   4.897   1.946  14.600 -0.4724 -0.5656 -0.4577
 3705TIP3    H135310   4.987   1.944  14.635  0.5551  0.2121 -2.8277
 3705TIP3    H235311   4.847   1.994  14.665  0.6307 -1.6715  1.2909
 3706TIP3   OH235312   4.802   3.017  13.986  0.0009 -0.7565  0.2376
 3706TIP3    H135313   4.784   2.976  14.071 -3.1747  0.9837  0.5196
 3706TIP3    H235314   4.767   2.955  13.922 -0.9392 -0.4498  0.4372
 3707TIP3   OH235315   0.984   1.394  14.660 -0.4563  0.6317  0.1816
 3707TIP3    H135316   0.907   1.363  14.709 -1.5911 -0.1827 -1.9734
 3707TIP3    H235317   0.955   1.397  14.569  1.7231  1.5389 -0.5559
 3708TIP3   OH235318   5.682   4.265  14.875  0.2156  0.2469 -0.2343
 3708TIP3    H135319   5.674   4.282  14.969  1.5895 -1.4754  0.2552
 3708TIP3    H235320   5.639   4.181  14.862 -0.6309  0.8290 -1.3089
 3709TIP3   OH235321   4.546   3.299  13.586 -0.0214  0.0869  0.0990
 3709TIP3    H135322   4.557   3.319  13.679  0.8611 -0.9480  0.2373
 3709TIP3    H235323   4.625   3.250  13.562 -0.1379  0.4951 -1.2504
 3710TIP3   OH235324   3.458   0.533  14.056 -0.3149  0.0522 -0.1117
 3710TIP3    H135325   3.473   0.443  14.029 -1.2083 -0.1743  0.1225
 3710TIP3    H235326   3.524   0.550  14.123 -0.8386 -0.7782  0.6235
 3711TIP3   OH235327   4.264   2.255  13.893  0.2244  0.1551 -0.4402
 3711TIP3    H135328   4.304   2.262  13.806 -1.5804 -0.5814 -1.3909
 3711TIP3    H235329   4.195   2.189  13.882 -0.8789  0.9616  1.2331
 3712TIP3   OH235330   7.186   3.124  14.142 -0.0689 -0.2284 -0.2683
 3712TIP3    H135331   7.177   3.103  14.049 -0.7009  2.3184 -0.8701
 3712TIP3    H235332   7.214   3.216  14.143  0.1813 -0.2757  2.0624
 3713TIP3   OH235333   7.841   2.752  14.613  0.5392  0.1976  0.1857
 3713TIP3    H135334   7.829   2.770  14.707  0.4948 -1.1251  0.4612
 3713TIP3    H235335   7.771   2.690  14.592  0.7490  0.2401 -0.6435
 3714TIP3   OH235336   1.907   4.010  13.975  0.0677 -0.9726 -0.2204
 3714TIP3    H135337   1.832   3.955  13.997 -3.1277  2.3740 -1.6880
 3714TIP3    H235338   1.923   3.992  13.882  1.2529 -1.8008  0.1312
 3715TIP3   OH235339   1.931   0.780  13.854 -0.1189 -0.0025  0.3796
 3715TIP3    H135340   2.013   0.827  13.841  0.3259 -1.2579 -1.6725
 3715TIP3    H235341   1.876   0.841  13.903  1.3008  1.6680 -0.0329
 3716TIP3   OH235342   5.409   8.065  15.022  0.1688 -0.4055  0.5036
 3716TIP3    H135343   5.460   7.985  15.011 -1.0508 -1.1248 -0.0762
 3716TIP3    H235344   5.332   8.037  15.071 -0.5901  0.2929 -0.2844
 3717TIP3   OH235345   3.870   2.159  13.247 -0.2237  0.4620  0.0366
 3717TIP3    H135346   3.905   2.118  13.168 -0.4652  1.1753 -0.4416
 3717TIP3    H235347   3.775   2.153  13.238 -0.3779 -2.6763  1.9477
 3718TIP3   OH235348   6.218   0.917  12.864  0.3522  0.3176  0.6646
 3718TIP3    H135349   6.281   0.891  12.931 -0.1225 -1.2790  0.5300
 3718TIP3    H235350   6.244   0.867  12.786 -0.9363 -0.2073  0.5516
 3719TIP3   OH235351   6.657   7.287  13.945 -0.0540  0.5051 -0.3288
 3719TIP3    H135352   6.688   7.377  13.935 -0.6603  0.8269  0.4958
 3719TIP3    H235353   6.567   7.289  13.912 -0.8921  0.7964  1.7609
 3720TIP3   OH235354   0.503   7.646  15.017  0.1135  0.5823 -0.4351
 3720TIP3    H135355   0.438   7.579  15.038  0.3973  0.3578 -0.2640
 3720TIP3    H235356   0.521   7.633  14.924  0.8432 -0.1795 -0.1925
 3721TIP3   OH235357   3.218   7.339  14.814  0.2554 -0.9560  0.0670
 3721TIP3    H135358   3.271   7.411  14.849  0.2690 -1.6068  1.4087
 3721TIP3    H235359   3.269   7.306  14.740  1.7501 -1.5504  1.3031
 3722TIP3   OH235360   7.767   2.248  13.471 -0.5054 -0.3627  0.7318
 3722TIP3    H135361   7.853   2.263  13.510 -0.1590  1.5649 -0.6126
 3722TIP3    H235362   7.705   2.258  13.544  0.2930  0.2977  1.3346
 3723TIP3   OH235363   6.309   2.812  12.890  0.0899 -0.3970  0.0581
 3723TIP3    H135364   6.243   2.879  12.877  1.3591  0.5337 -2.0215
 3723TIP3    H235365   6.295   2.749  12.819  1.7165  0.0897 -0.7411
 3724TIP3   OH235366   4.102   4.977  15.079 -0.1749  0.4057  0.4350
 3724TIP3    H135367   4.122   5.058  15.032 -0.1817  0.7482  1.0185
 3724TIP3    H235368   4.009   4.984  15.100 -0.8129 -0.8304 -1.5921
 3725TIP3   OH235369   1.798   4.449  14.424  0.0106  0.2432 -0.2225
 3725TIP3    H135370   1.870   4.504  14.393 -1.0314  0.8071 -1.7376
 3725TIP3    H235371   1.815   4.363  14.385  1.5321 -0.5449  1.9876
 3726TIP3   OH235372   7.757   6.841  13.536  0.5282  0.2044  0.2857
 3726TIP3    H135373   7.810   6.785  13.480  1.3093  0.4048  0.8060
 3726TIP3    H235374   7.755   6.925  13.490 -2.9841 -0.9031 -1.9362
 3727TIP3   OH235375   4.408   3.222  13.922 -0.2101  0.4809  0.6821
 3727TIP3    H135376   4.347   3.224  13.995 -2.2249 -2.6261 -0.7136
 3727TIP3    H235377   4.354   3.208  13.845  1.9374  2.3500 -1.3200
 3728TIP3   OH235378   1.320   6.352  12.832 -0.2916 -0.3554 -0.2924
 3728TIP3    H135379   1.224   6.354  12.828 -0.2818 -0.8519 -1.1752
 3728TIP3    H235380   1.347   6.443  12.820 -0.6694 -0.1153  0.6719
 3729TIP3   OH235381   2.864   1.185  13.929 -0.0906  0.1222 -0.0666
 3729TIP3    H135382   2.906   1.132  13.997 -0.6805  0.8248  0.8656
 3729TIP3    H235383   2.821   1.256  13.977 -1.1919  0.1848 -1.1131
 3730TIP3   OH235384   0.566   4.767  14.220 -0.0650  0.6204  0.1809
 3730TIP3    H135385   0.472   4.785  14.210  0.2823  2.1813 -0.5843
 3730TIP3    H235386   0.604   4.788  14.135  1.0735  0.6259  0.6778
 3731TIP3   OH235387   2.974   2.995  13.570 -0.1268  0.3769 -0.0974
 3731TIP3    H135388   3.031   2.960  13.502  0.6252 -1.5922  1.4679
 3731TIP3    H235389   3.002   3.086  13.580  0.6495  0.3094 -1.4687
 3732TIP3   OH235390   2.303   6.903  13.815 -0.3681 -0.5302 -0.1213
 3732TIP3    H135391   2.250   6.872  13.888 -0.5633 -1.9402 -0.8356
 3732TIP3    H235392   2.332   6.990  13.842  0.7345 -1.5450  2.2311
 3733TIP3   OH235393   6.112   7.973  13.516  0.1465 -0.8825  0.1045
 3733TIP3    H135394   6.032   7.943  13.474  0.5424 -0.9940 -0.5800
 3733TIP3    H235395   6.175   7.983  13.445  0.8098 -1.0006  0.6607
 3734TIP3   OH235396   5.986   7.223  13.687 -0.5380 -0.3530 -0.3170
 3734TIP3    H135397   5.903   7.241  13.732 -0.0938 -1.0607  0.8305
 3734TIP3    H235398   5.960   7.184  13.604 -1.3599 -0.9617  0.2062
 3735TIP3   OH235399   2.783   0.345  13.640 -0.2030 -0.4143 -1.1532
 3735TIP3    H135400   2.786   0.331  13.545  1.4782 -0.9813 -1.0549
 3735TIP3    H235401   2.872   0.324  13.670 -0.3404  0.9978  0.3813
 3736TIP3   OH235402   5.899   0.795  13.761 -0.0812  0.9022  0.2003
 3736TIP3    H135403   5.986   0.776  13.724  0.0584  1.0624  0.4460
 3736TIP3    H235404   5.856   0.847  13.694 -0.5100 -0.3591 -0.5433
 3737TIP3   OH235405   1.836   4.259  15.263  0.3306  0.3283  0.1200
 3737TIP3    H135406   1.764   4.199  15.246  0.9102  0.2673 -2.6205
 3737TIP3    H235407   1.815   4.337  15.211  1.0650  1.3125  1.2377
 3738TIP3   OH235408   7.637   1.734  14.996 -0.4022 -0.5573  0.3220
 3738TIP3    H135409   7.609   1.793  15.066 -2.0542 -1.8480  0.8398
 3738TIP3    H235410   7.685   1.665  15.041  2.6273  0.9378 -0.4190
 3739TIP3   OH235411   6.602   1.118  14.757 -0.1757  0.3180  0.8638
 3739TIP3    H135412   6.641   1.068  14.829  0.5141 -0.3380  0.0547
 3739TIP3    H235413   6.521   1.154  14.794  0.3497  0.3044  2.0716
 3740TIP3   OH235414   7.791   2.506  13.665 -0.4445  0.4159  0.2201
 3740TIP3    H135415   7.855   2.438  13.641 -1.9871 -0.7181 -0.9154
 3740TIP3    H235416   7.734   2.463  13.729 -0.6585  1.0968  0.4909
 3741TIP3   OH235417   5.066   7.111  13.250 -0.9125  0.4605  0.6641
 3741TIP3    H135418   4.983   7.104  13.298 -0.7051 -1.0808  0.8377
 3741TIP3    H235419   5.117   7.035  13.278  0.1447  0.8035 -0.2511
 3742TIP3   OH235420   7.585   5.111  14.872 -0.2731  0.2440 -0.0177
 3742TIP3    H135421   7.554   5.162  14.797 -0.9827 -1.5116 -0.9653
 3742TIP3    H235422   7.680   5.103  14.857 -0.5630 -1.0831 -1.4070
 3743TIP3   OH235423   5.384   4.345  12.855  0.1421 -0.2769 -0.0899
 3743TIP3    H135424   5.381   4.407  12.782 -2.1299  0.6750  0.7142
 3743TIP3    H235425   5.456   4.377  12.909 -1.5467  2.4326  0.8132
 3744TIP3   OH235426   4.028   3.020  14.242  0.4624  1.1061 -0.4069
 3744TIP3    H135427   3.971   2.949  14.213  0.7730  0.9568 -0.6615
 3744TIP3    H235428   4.117   2.986  14.228  0.6909  0.3492  2.1911
 3745TIP3   OH235429   5.065   8.426  13.469 -0.0311  0.0242  0.0118
 3745TIP3    H135430   5.107   8.432  13.555 -1.1182 -0.1146  0.5647
 3745TIP3    H235431   4.984   8.379  13.485  1.2098 -2.9570 -1.6207
 3746TIP3   OH235432   7.288   6.096  13.283 -0.0204  0.1979 -0.1717
 3746TIP3    H135433   7.289   6.187  13.314 -1.3156  0.1534  0.0573
 3746TIP3    H235434   7.372   6.085  13.238 -0.0434  1.6535 -0.6122
 3747TIP3   OH235435   0.215   3.958  13.523 -0.0464 -0.4894  0.2477
 3747TIP3    H135436   0.224   4.044  13.482 -1.3637 -0.9634 -1.1152
 3747TIP3    H235437   0.120   3.947  13.535  0.1187 -1.6614  0.5926
 3748TIP3   OH235438   2.155   6.197  13.560 -0.7709  0.1370 -0.2522
 3748TIP3    H135439   2.173   6.106  13.583 -0.8083  0.1333 -0.2362
 3748TIP3    H235440   2.155   6.198  13.464  0.3573  0.3448 -0.2621
 3749TIP3   OH235441   5.426   0.867  14.849  0.3193 -0.1823  0.4092
 3749TIP3    H135442   5.489   0.798  14.828 -0.0778 -0.2511 -0.6088
 3749TIP3    H235443   5.341   0.824  14.846  0.1138  0.2189  0.4012
 3750TIP3   OH235444   8.126   2.423  13.827  0.0847 -0.4080  0.5057
 3750TIP3    H135445   8.179   2.469  13.892 -1.3260 -0.8358  2.0328
 3750TIP3    H235446   8.068   2.367  13.879 -1.7203 -0.0993 -1.0748
 3751TIP3   OH235447   5.489   3.377  13.331  0.4779 -0.2494  0.3264
 3751TIP3    H135448   5.476   3.470  13.312  0.1842 -0.4051 -0.2462
 3751TIP3    H235449   5.419   3.355  13.393 -0.9622 -0.6556 -1.3810
 3752TIP3   OH235450   4.939   2.314  14.321  0.5069 -0.0300 -0.1676
 3752TIP3    H135451   5.020   2.265  14.324  0.2055 -0.5123  2.0978
 3752TIP3    H235452   4.929   2.350  14.409 -0.5825  1.9629 -1.0329
 3753TIP3   OH235453   4.267   1.934  13.979 -0.0434  0.1750 -0.3018
 3753TIP3    H135454   4.256   1.845  14.013  2.3898  0.5976  1.9420
 3753TIP3    H235455   4.260   1.991  14.056 -0.6163  1.8618 -1.5355
 3754TIP3   OH235456   4.137   3.993  14.523  0.4250  0.1779 -0.3252
 3754TIP3    H135457   4.231   3.989  14.541  0.3462 -3.2219  0.0199
 3754TIP3    H235458   4.120   3.917  14.467 -2.4377 -0.7169  1.5387
 3755TIP3   OH235459   1.441   3.565  15.227 -0.5867  0.0476  0.7995
 3755TIP3    H135460   1.533   3.584  15.209 -0.2710 -0.6848  1.6056
 3755TIP3    H235461   1.434   3.470  15.221 -1.7001  0.2024 -1.0803
 3756TIP3   OH235462   6.670   3.030  14.989 -0.1587  0.1979 -0.2595
 3756TIP3    H135463   6.620   3.108  15.013  2.5031  2.1964 -0.7542
 3756TIP3    H235464   6.684   3.038  14.895  0.8947 -0.4029 -0.1681
 3757TIP3   OH235465   5.693   2.061  14.416 -0.4364  0.1013 -0.3873
 3757TIP3    H135466   5.611   2.037  14.459 -0.0029  1.1605  1.1359
 3757TIP3    H235467   5.753   1.990  14.438 -0.6101 -0.0699 -0.4615
 3758TIP3   OH235468   2.267   1.124  13.575  0.1542  0.1120 -0.4213
 3758TIP3    H135469   2.219   1.093  13.499 -0.0441  0.0429 -0.2711
 3758TIP3    H235470   2.279   1.217  13.560  1.2907 -0.1394 -1.1633
 3759TIP3   OH235471   0.683   4.630  14.458  0.3429 -0.0883 -0.1983
 3759TIP3    H135472   0.770   4.669  14.468  1.3667 -2.0720 -0.9158
 3759TIP3    H235473   0.641   4.683  14.391  0.9257  0.9965  0.2715
 3760TIP3   OH235474   2.614   6.585  13.924  0.1830 -0.3629 -0.4298
 3760TIP3    H135475   2.641   6.661  13.872 -0.6507  0.3567  0.1485
 3760TIP3    H235476   2.685   6.521  13.913 -0.2101 -0.4729 -2.8941
 3761TIP3   OH235477   7.187   2.028  13.691  0.0787  0.1188  0.0427
 3761TIP3    H135478   7.190   1.934  13.677 -0.9383  0.0931 -0.0777
 3761TIP3    H235479   7.175   2.065  13.603  3.6549  0.6026 -0.3915
 3762TIP3   OH235480   0.793   2.773  13.510 -0.4438 -0.7155 -0.2404
 3762TIP3    H135481   0.843   2.853  13.490  0.5573 -1.3898 -0.5010
 3762TIP3    H235482   0.702   2.802  13.509 -0.2212  0.0954 -2.0053
 3763TIP3   OH235483   4.308   5.473  15.090  0.2258 -0.2882  0.7537
 3763TIP3    H135484   4.239   5.421  15.049 -0.7901 -0.3005  2.3731
 3763TIP3    H235485   4.362   5.409  15.137  0.8750 -0.1909  0.1578
 3764TIP3   OH235486   1.110   0.024  13.801 -0.1775 -0.2648  0.1877
 3764TIP3    H135487   1.121  -0.016  13.715  0.3938 -0.7305  0.4715
 3764TIP3    H235488   1.190   0.077  13.813 -0.7204  0.6219  0.0010
 3765TIP3   OH235489   5.952   5.049  14.658  0.4783  0.3702 -0.1437
 3765TIP3    H135490   5.900   4.974  14.690  1.8242 -1.0234 -1.0727
 3765TIP3    H235491   5.887   5.116  14.639 -0.6497  0.0400  2.2177
 3766TIP3   OH235492   5.329   8.328  13.703  0.2456  0.0696  0.4791
 3766TIP3    H135493   5.384   8.287  13.770 -1.1808 -2.0623  0.4256
 3766TIP3    H235494   5.301   8.411  13.742  1.6696  0.1491  1.3777
 3767TIP3   OH235495   0.476   8.211  13.406 -0.4259  0.1730  0.0922
 3767TIP3    H135496   0.505   8.151  13.475  0.1131  0.3949  0.0640
 3767TIP3    H235497   0.540   8.282  13.407  1.7044 -1.4727 -2.9447
 3768TIP3   OH235498   6.489   6.308  15.131 -0.0732  1.1033 -0.0764
 3768TIP3    H135499   6.465   6.399  15.112 -0.8786  0.6215 -1.5098
 3768TIP3    H235500   6.425   6.256  15.082  1.2428 -0.2445 -0.4187
 3769TIP3   OH235501   5.023   1.422  14.445  0.8316  0.1429  0.4461
 3769TIP3    H135502   4.968   1.479  14.499  0.6683  2.0205 -1.5593
 3769TIP3    H235503   5.077   1.482  14.394  2.6334 -1.5965  0.1682
 3770TIP3   OH235504   2.271   4.319  14.653  0.4255  0.2580  0.7252
 3770TIP3    H135505   2.331   4.255  14.691  1.4394  2.3945  2.9710
 3770TIP3    H235506   2.211   4.342  14.724 -1.5345  0.0202 -0.7623
 3771TIP3   OH235507   3.065   3.222  12.721 -0.3657  0.2075 -0.1692
 3771TIP3    H135508   3.089   3.204  12.630 -1.1800  1.2757 -0.6148
 3771TIP3    H235509   3.133   3.281  12.752 -0.2635  0.0976 -0.1826
 3772TIP3   OH235510   1.899   3.344  15.023 -0.0240 -0.0256  0.4881
 3772TIP3    H135511   1.856   3.417  14.980 -0.0730 -0.8508 -0.9335
 3772TIP3    H235512   1.831   3.277  15.032  0.4372 -0.5631  0.1087
 3773TIP3   OH235513   3.957   4.454  13.375  0.1526  0.4464 -0.2480
 3773TIP3    H135514   4.052   4.445  13.385 -0.1131 -1.0960  1.5694
 3773TIP3    H235515   3.929   4.369  13.341 -0.6377  0.6351 -0.0823
 3774TIP3   OH235516   3.991   1.211  15.025  0.1822  0.5846 -0.4919
 3774TIP3    H135517   3.932   1.265  14.974  0.3534 -1.6990 -3.4123
 3774TIP3    H235518   3.962   1.221  15.115 -2.8040  1.7476 -1.4755
 3775TIP3   OH235519   5.823   3.863  14.415  0.9104  0.1322  0.6070
 3775TIP3    H135520   5.789   3.952  14.426  0.2902  0.0953 -0.7560
 3775TIP3    H235521   5.745   3.809  14.403  1.3462 -0.1714 -1.1689
 3776TIP3   OH235522   5.734   4.869  14.878  0.2826 -0.5073 -0.4598
 3776TIP3    H135523   5.730   4.809  14.953  1.0213 -1.9236 -1.5062
 3776TIP3    H235524   5.681   4.945  14.905  1.0164 -0.6921  1.7183
 3777TIP3   OH235525   7.255   3.774  14.585 -0.2505  0.1852 -0.5137
 3777TIP3    H135526   7.235   3.685  14.616  0.6738  0.4441  0.9148
 3777TIP3    H235527   7.175   3.823  14.601 -0.1857  0.0180  0.4006
 3778TIP3   OH235528   1.113   3.590  14.966  0.1471  0.1923  0.2474
 3778TIP3    H135529   1.112   3.498  14.995  1.8507 -0.6293 -1.9708
 3778TIP3    H235530   1.152   3.637  15.039  1.5696 -1.2989  0.5192
 3779TIP3   OH235531   3.992   2.328  14.021 -0.2900  0.7595 -0.6294
 3779TIP3    H135532   3.963   2.286  13.940  0.3098 -0.2488 -0.3376
 3779TIP3    H235533   3.959   2.272  14.090  2.2606 -0.4270 -0.2812
 3780TIP3   OH235534   1.216   6.953  14.402  0.1314 -0.3536  0.2038
 3780TIP3    H135535   1.129   6.918  14.418 -0.6032  0.2933 -1.9454
 3780TIP3    H235536   1.273   6.909  14.465 -1.2840 -2.8975 -0.1681
 3781TIP3   OH235537   2.147   0.885  14.532  0.2057  0.1324 -0.2399
 3781TIP3    H135538   2.127   0.979  14.529 -0.2369  0.1195  1.4886
 3781TIP3    H235539   2.217   0.874  14.468  0.5134  1.7188 -0.2194
 3782TIP3   OH235540   3.816   1.807  12.932 -0.0096 -0.1399  0.0936
 3782TIP3    H135541   3.734   1.776  12.892 -0.4953  1.2070 -0.0144
 3782TIP3    H235542   3.884   1.756  12.889 -0.5880  0.6042 -1.8436
 3783TIP3   OH235543   0.656   7.163  12.890 -0.0379  0.4193 -0.2676
 3783TIP3    H135544   0.569   7.123  12.882  1.0910 -2.2333 -0.1539
 3783TIP3    H235545   0.702   7.136  12.811  1.4516 -0.3118  0.8033
 3784TIP3   OH235546   2.332   8.339  13.195 -0.3255 -0.1116 -0.3737
 3784TIP3    H135547   2.334   8.313  13.103 -1.0689 -2.1334  0.1305
 3784TIP3    H235548   2.401   8.288  13.236 -0.3194  0.4077  0.2814
 3785TIP3   OH235549   0.772   5.700  13.970  0.3070  0.2213 -0.2399
 3785TIP3    H135550   0.802   5.791  13.982 -0.1576  0.3188  0.1758
 3785TIP3    H235551   0.683   5.699  14.005 -0.0301 -0.1774 -1.0898
 3786TIP3   OH235552   3.842   1.148  13.531 -0.4095  0.2954 -0.1569
 3786TIP3    H135553   3.892   1.161  13.612 -1.2567 -2.0677  0.8297
 3786TIP3    H235554   3.787   1.072  13.549 -0.9688 -0.0118 -2.8243
 3787TIP3   OH235555   0.848   0.671  14.030  0.9068 -0.2160 -0.2172
 3787TIP3    H135556   0.928   0.710  13.996  1.1434 -0.8562 -0.4086
 3787TIP3    H235557   0.782   0.739  14.021  1.1537 -0.0971 -1.2128
 3788TIP3   OH235558   2.346   4.685  12.985 -0.0685  0.1923  0.2656
 3788TIP3    H135559   2.389   4.759  12.940  0.3019 -0.2263 -0.0899
 3788TIP3    H235560   2.262   4.676  12.941 -1.1276  1.8527  1.8286
 3789TIP3   OH235561   7.430   7.913  13.096 -0.4036  0.1691  0.7053
 3789TIP3    H135562   7.371   7.987  13.085 -1.5483 -0.7044  0.7695
 3789TIP3    H235563   7.385   7.839  13.056  1.2066 -0.2985 -0.3642
 3790TIP3   OH235564   5.546   6.284  14.327  0.3857 -0.3170 -0.4830
 3790TIP3    H135565   5.632   6.244  14.341  0.0702 -0.2613  1.9178
 3790TIP3    H235566   5.484   6.215  14.348 -0.1625  0.0843 -0.7679
 3791TIP3   OH235567   0.825   2.471  13.497 -0.1188  0.2624 -0.6744
 3791TIP3    H135568   0.866   2.440  13.577 -1.5696  0.1631  0.0644
 3791TIP3    H235569   0.836   2.566  13.499  1.1246  0.1530 -1.1188
 3792TIP3   OH235570   7.839   5.151  14.722 -0.1682 -0.7460  0.2822
 3792TIP3    H135571   7.878   5.080  14.672  0.9431  0.2304 -0.2825
 3792TIP3    H235572   7.908   5.177  14.783  0.0230  0.8426 -0.5631
 3793TIP3   OH235573   1.374   3.376  13.787 -0.3385 -0.2983  0.3982
 3793TIP3    H135574   1.290   3.421  13.779 -0.0755 -0.1295 -1.8525
 3793TIP3    H235575   1.364   3.296  13.736  1.4592  0.6904 -1.6543
 3794TIP3   OH235576   1.841   3.571  13.172  0.1294  0.0539 -0.0453
 3794TIP3    H135577   1.867   3.561  13.080 -0.0388 -0.8587 -0.0034
 3794TIP3    H235578   1.772   3.507  13.184 -1.3677  1.6403  0.1609
 3795TIP3   OH235579   3.556   2.150  14.902 -0.2909 -0.2742 -0.0476
 3795TIP3    H135580   3.576   2.212  14.831 -1.8968  0.5698  0.2009
 3795TIP3    H235581   3.629   2.159  14.963  2.0132 -2.2061 -2.2938
 3796TIP3   OH235582   2.528   1.208  14.977  0.0334  0.3078 -0.3514
 3796TIP3    H135583   2.566   1.128  14.940 -0.0364 -0.6329  1.4911
 3796TIP3    H235584   2.562   1.211  15.067 -2.3680  0.6829  0.6074
 3797TIP3   OH235585   5.833   1.131  13.159 -1.0822 -0.0382 -0.1813
 3797TIP3    H135586   5.760   1.086  13.117 -0.9538 -0.6067  0.1942
 3797TIP3    H235587   5.909   1.107  13.107 -0.1908 -4.0163  2.4637
 3798TIP3   OH235588   5.524   5.708  14.910  0.3916 -0.3518  0.2069
 3798TIP3    H135589   5.488   5.748  14.831 -1.2346 -2.1798 -0.0619
 3798TIP3    H235590   5.587   5.772  14.943 -1.1122  1.8296 -0.8690
 3799TIP3   OH235591   1.619   5.592  14.280 -0.3106  0.6438 -0.2264
 3799TIP3    H135592   1.608   5.547  14.196  0.7348 -0.0864 -0.0014
 3799TIP3    H235593   1.712   5.583  14.299 -0.4378  1.2942  0.7408
 3800TIP3   OH235594   3.840   8.406  14.587  0.1760  0.5411 -0.1834
 3800TIP3    H135595   3.874   8.321  14.613  0.8794  0.1896 -2.0790
 3800TIP3    H235596   3.906   8.469  14.618  0.8572  0.1605 -0.8168
 3801TIP3   OH235597   6.580   3.842  13.984  0.0297 -0.2637 -0.0794
 3801TIP3    H135598   6.626   3.838  13.901  0.3349 -0.4407  0.0983
 3801TIP3    H235599   6.527   3.922  13.978 -0.3349 -0.5448 -0.6396
 3802TIP3   OH235600   2.044   5.683  14.348  0.0896  0.3114 -0.3718
 3802TIP3    H135601   2.014   5.632  14.424 -1.5225  0.4207 -0.9099
 3802TIP3    H235602   1.967   5.692  14.293  1.1601  0.4940 -1.9055
 3803TIP3   OH235603   8.306   3.594  14.661  0.9481  0.1066 -0.1136
 3803TIP3    H135604   8.297   3.532  14.588 -0.2573 -0.6718  0.6598
 3803TIP3    H235605   8.338   3.674  14.620  0.1154 -0.2520 -1.5445
 3804TIP3   OH235606   2.054   3.117  12.647  0.3434 -0.0515  0.2416
 3804TIP3    H135607   2.015   3.120  12.559 -0.5915 -0.7238  0.6210
 3804TIP3    H235608   1.980   3.099  12.705  1.1741 -1.0858  1.0112
 3805TIP3   OH235609   1.652   7.471  14.757  0.4646  0.1240 -0.1958
 3805TIP3    H135610   1.629   7.390  14.803 -1.1873  0.5029 -0.3168
 3805TIP3    H235611   1.677   7.532  14.826  0.8532 -0.2100 -0.0394
 3806TIP3   OH235612   6.128   0.455  14.746  0.4186  0.1007  1.1101
 3806TIP3    H135613   6.200   0.517  14.752 -0.6576  1.4462  0.6168
 3806TIP3    H235614   6.106   0.435  14.837 -0.6034  2.1460  1.3660
 3807TIP3   OH235615   3.843   0.984  13.911 -0.4974  0.1841  0.3615
 3807TIP3    H135616   3.753   1.001  13.883  0.4337  0.7785 -2.5848
 3807TIP3    H235617   3.895   1.055  13.874  1.6121 -1.8106 -0.8144
 3808TIP3   OH235618   4.700   8.140  13.892  0.0282  0.4573 -0.4805
 3808TIP3    H135619   4.669   8.056  13.859  1.2916 -0.2002 -0.0892
 3808TIP3    H235620   4.662   8.147  13.980  1.6322 -0.7870  0.3789
 3809TIP3   OH235621   0.670   5.405  12.994  0.5341 -0.1287  0.7552
 3809TIP3    H135622   0.609   5.459  13.044  1.3846  0.1358  1.5308
 3809TIP3    H235623   0.755   5.419  13.037  1.2416 -0.0999 -0.5949
 3810TIP3   OH235624   6.560   2.828  12.993  0.1290 -0.3970 -0.3059
 3810TIP3    H135625   6.593   2.903  12.943  0.3263 -0.6412 -0.5473
 3810TIP3    H235626   6.469   2.819  12.964  0.2078 -0.4644 -0.5340
 3811TIP3   OH235627   0.843   7.989  13.924  0.8478  0.0939  0.6221
 3811TIP3    H135628   0.858   7.966  14.016  1.8755 -0.7395  0.2604
 3811TIP3    H235629   0.887   8.074  13.913 -0.5152  0.9099  1.2437
 3812TIP3   OH235630   1.238   0.964  13.595 -0.1490  0.0692 -0.4895
 3812TIP3    H135631   1.213   0.904  13.524 -0.1079 -0.0014 -0.4444
 3812TIP3    H235632   1.155   0.985  13.638 -0.2559  0.5775 -0.9240
 3813TIP3   OH235633   5.391   4.671  13.074  0.2836  0.0542  0.1716
 3813TIP3    H135634   5.309   4.663  13.027  1.8626 -1.4475 -2.6106
 3813TIP3    H235635   5.414   4.764  13.067 -0.3033  0.1441 -0.6306
 3814TIP3   OH235636   4.832   6.845  13.500  0.7263 -0.1645  0.2627
 3814TIP3    H135637   4.914   6.797  13.507  0.6595 -0.3421 -0.1893
 3814TIP3    H235638   4.858   6.937  13.497  1.0931 -0.2981 -2.5746
 3815TIP3   OH235639   6.361   8.168  14.065 -0.4649 -0.1947 -0.0444
 3815TIP3    H135640   6.359   8.162  14.161  1.0984 -0.0384  0.0171
 3815TIP3    H235641   6.272   8.197  14.042 -0.8382 -0.1072  1.3538
 3816TIP3   OH235642   2.417   7.164  13.535 -0.0647 -0.3590  0.0928
 3816TIP3    H135643   2.477   7.173  13.461 -1.0774 -1.0425 -0.8578
 3816TIP3    H235644   2.452   7.092  13.587 -1.1228 -2.1931 -1.5933
 3817TIP3   OH235645   2.146   6.686  15.224 -0.2429  0.0227  0.4403
 3817TIP3    H135646   2.220   6.625  15.230 -0.8046 -0.5689  1.9323
 3817TIP3    H235647   2.176   6.765  15.268  0.5483  0.9507 -1.6501
 3818TIP3   OH235648   7.117   5.969  13.091 -0.6994  0.0893  0.9603
 3818TIP3    H135649   7.144   6.054  13.125 -2.0044  1.3965 -1.0666
 3818TIP3    H235650   7.199   5.920  13.082  0.3909  1.9485  0.0937
 3819TIP3   OH235651   3.477   6.197  13.987  0.0174  0.2706 -0.3990
 3819TIP3    H135652   3.572   6.190  13.977  0.0405 -0.6620  0.3731
 3819TIP3    H235653   3.462   6.193  14.081 -0.8754 -0.8314 -0.5701
 3820TIP3   OH235654   1.097   1.341  13.863  0.6801 -0.8800  0.1211
 3820TIP3    H135655   1.083   1.419  13.810 -0.0526 -0.0791  1.4425
 3820TIP3    H235656   1.036   1.276  13.827 -1.5452  0.3765  1.3539
 3821TIP3   OH235657   1.534   4.504  14.799  0.2995 -0.4821 -0.0665
 3821TIP3    H135658   1.604   4.439  14.808 -0.5300 -1.3882  0.0261
 3821TIP3    H235659   1.464   4.472  14.855 -0.2757  0.2999 -0.3175
 3822TIP3   OH235660   0.577   6.693  14.957 -0.1361  0.1126 -0.0410
 3822TIP3    H135661   0.587   6.655  14.870  0.8782 -0.8688  0.4858
 3822TIP3    H235662   0.488   6.668  14.984  0.2034 -1.1479 -0.0557
 3823TIP3   OH235663   1.455   2.589  14.316  0.2157 -0.4438 -0.0829
 3823TIP3    H135664   1.391   2.533  14.271 -0.5383 -0.0682  0.4932
 3823TIP3    H235665   1.504   2.529  14.372 -1.0863 -0.4738  1.0973
 3824TIP3   OH235666   2.307   6.704  14.416 -0.0639 -0.1231  0.0762
 3824TIP3    H135667   2.269   6.634  14.469  1.5163  0.3063  1.8358
 3824TIP3    H235668   2.354   6.658  14.346  1.0568 -0.8534  1.2829
 3825TIP3   OH235669   5.916   5.892  14.753  0.0656 -0.1364  0.1563
 3825TIP3    H135670   5.930   5.984  14.732  0.8156 -0.6293 -1.7970
 3825TIP3    H235671   5.851   5.863  14.688  0.8087 -1.2656 -0.1084
 3826TIP3   OH235672   3.046   0.398  13.455 -0.1496  0.3541  0.2997
 3826TIP3    H135673   3.084   0.481  13.428 -1.2991  0.4233 -1.2689
 3826TIP3    H235674   2.980   0.379  13.388  0.1826 -1.9042  0.5257
 3827TIP3   OH235675   3.083   7.592  14.372  0.2246  0.1266  0.1025
 3827TIP3    H135676   3.168   7.619  14.407  0.3552 -1.4568  1.1581
 3827TIP3    H235677   3.070   7.646  14.295  1.8542  0.9151  0.3356
 3828TIP3   OH235678   5.711   5.804  14.541 -0.2921 -0.2124  0.0160
 3828TIP3    H135679   5.773   5.851  14.486 -0.5955 -0.2465 -0.3568
 3828TIP3    H235680   5.709   5.716  14.504 -1.3702  0.0761 -0.6432
 3829TIP3   OH235681   2.676   4.997  14.968  0.5055 -0.0008  0.1040
 3829TIP3    H135682   2.674   5.036  15.055 -2.5676  0.2467  0.0323
 3829TIP3    H235683   2.704   4.906  14.983 -0.4481 -0.1066  1.4433
 3830TIP3   OH235684   5.582   0.657  14.775 -0.1700  0.1829 -0.0216
 3830TIP3    H135685   5.586   0.573  14.730  0.6425 -0.0003  0.3773
 3830TIP3    H235686   5.671   0.671  14.808  0.0636  1.8681 -1.2549
 3831TIP3   OH235687   0.199   6.202  13.315  0.1583  0.2765  0.4881
 3831TIP3    H135688   0.227   6.292  13.299  1.6386 -0.3117 -0.3785
 3831TIP3    H235689   0.279   6.150  13.310 -0.7043 -1.1346  0.7243
 3832TIP3   OH235690   8.023   0.451  14.770 -0.1152 -0.8900 -0.0023
 3832TIP3    H135691   7.963   0.433  14.843 -2.2079  0.6966 -1.1906
 3832TIP3    H235692   7.967   0.490  14.703  2.1063 -0.3314 -1.6481
 3833TIP3   OH235693   0.639   3.227  15.283  0.5828 -0.0510 -1.0625
 3833TIP3    H135694   0.619   3.311  15.242  0.3493  0.4739  0.0876
 3833TIP3    H235695   0.572   3.168  15.249 -0.1100  0.5738 -0.8174
 3834TIP3   OH235696   2.937   7.519  13.445 -0.3902  0.6603 -0.0817
 3834TIP3    H135697   3.029   7.497  13.434 -0.1987  0.9889  0.7590
 3834TIP3    H235698   2.903   7.527  13.356  0.5136  1.0359 -0.4035
 3835TIP3   OH235699   0.164   4.434  14.458 -0.5026  0.2269  0.1386
 3835TIP3    H135700   0.166   4.448  14.552 -0.8516  1.1545  0.0263
 3835TIP3    H235701   0.144   4.341  14.447  0.2088 -0.0313  0.9733
 3836TIP3   OH235702   1.336   5.544  14.139 -0.1674 -0.8509  0.2826
 3836TIP3    H135703   1.250   5.540  14.181  0.5102  0.5492  1.9033
 3836TIP3    H235704   1.384   5.471  14.177  0.8460  1.1168  3.0515
 3837TIP3   OH235705   3.489   8.034  15.333 -0.3044  0.0414 -0.4432
 3837TIP3    H135706   3.491   8.109  15.274 -0.5015  0.2831 -0.1467
 3837TIP3    H235707   3.538   8.062  15.410  1.4087 -0.8629 -1.1593
 3838TIP3   OH235708   4.092   3.992  13.438 -0.2159  0.3032  0.1552
 3838TIP3    H135709   4.071   3.934  13.365 -0.1167 -0.1064  0.4463
 3838TIP3    H235710   4.108   3.932  13.512  1.0164  0.6466  0.1777
 3839TIP3   OH235711   6.244   4.124  15.452 -0.2788  0.8488 -0.0576
 3839TIP3    H135712   6.191   4.084  15.521  0.7356 -1.7491 -0.6394
 3839TIP3    H235713   6.251   4.216  15.476 -3.8321  1.0589  0.7784
 3840TIP3   OH235714   6.608   3.831  12.522 -0.9144 -0.1845 -0.4657
 3840TIP3    H135715   6.584   3.780  12.445  2.3590  0.6473 -2.2280
 3840TIP3    H235716   6.580   3.778  12.597 -2.2945 -2.0206 -2.2049
 3841TIP3   OH235717   7.242   4.872  14.146  0.7534 -0.8248 -0.4723
 3841TIP3    H135718   7.310   4.895  14.210  2.9482  0.0004 -2.9039
 3841TIP3    H235719   7.277   4.903  14.063 -2.4325 -0.9103 -1.9647
 3842TIP3   OH235720   6.262   2.932  13.412 -0.2176  0.4323 -0.0047
 3842TIP3    H135721   6.296   2.973  13.491 -2.0164 -0.9993  1.6148
 3842TIP3    H235722   6.239   2.843  13.439 -2.0267  0.2776 -1.8004
 3843TIP3   OH235723   1.362   3.154  14.177 -0.0129  0.1619 -0.5937
 3843TIP3    H135724   1.419   3.210  14.123  1.5017  0.7730  1.5164
 3843TIP3    H235725   1.281   3.205  14.185 -0.9501 -0.6591 -3.5257
 3844TIP3   OH235726   4.783   6.022  13.851  0.2578  0.2329  0.5233
 3844TIP3    H135727   4.713   6.001  13.912  0.5085  0.0369  0.7468
 3844TIP3    H235728   4.743   6.011  13.764  0.4037 -1.3522  0.6186
 3845TIP3   OH235729   3.687   7.485  14.839  0.3353  0.2649 -0.1738
 3845TIP3    H135730   3.710   7.518  14.752  0.0524 -0.6426 -0.6096
 3845TIP3    H235731   3.764   7.436  14.868  0.3430  0.3681 -0.0180
 3846TIP3   OH235732   8.015   4.087  14.807  0.5841 -0.2546  0.0214
 3846TIP3    H135733   7.926   4.118  14.824  0.7163  0.5997 -0.7512
 3846TIP3    H235734   8.071   4.141  14.863  0.5738 -1.3153  1.0893
 3847TIP3   OH235735   2.962   0.530  14.779  0.0153  0.4300  0.1940
 3847TIP3    H135736   2.978   0.443  14.816 -1.4069  0.2389  0.4198
 3847TIP3    H235737   2.906   0.513  14.703 -0.3817  1.1608  0.3242
 3848TIP3   OH235738   2.599   0.598  14.319 -0.7259  0.3917 -0.4060
 3848TIP3    H135739   2.609   0.546  14.399 -2.3187  1.2586  0.4094
 3848TIP3    H235740   2.504   0.607  14.308 -0.5109  1.8159 -1.3768
 3849TIP3   OH235741   7.680   5.309  14.369 -0.3493 -0.8310  0.0635
 3849TIP3    H135742   7.737   5.354  14.306 -1.0891 -0.4929 -0.3853
 3849TIP3    H235743   7.737   5.247  14.413  0.5786  0.1447  0.2919
 3850TIP3   OH235744   6.658   1.002  15.003  0.2864  0.2152  0.0384
 3850TIP3    H135745   6.577   0.951  15.005  1.0230 -1.0630 -0.9643
 3850TIP3    H235746   6.703   0.977  15.084 -0.3254  0.9795  0.6317
 3851TIP3   OH235747   0.612   1.364  13.245  0.7762 -0.0158  0.0736
 3851TIP3    H135748   0.526   1.323  13.250 -0.3793  2.1230 -0.8563
 3851TIP3    H235749   0.653   1.324  13.168  0.1357 -0.2497 -0.1528
 3852TIP3   OH235750   2.645   3.367  13.252  0.1960 -0.1778  0.4377
 3852TIP3    H135751   2.688   3.283  13.236 -0.6220 -0.2014 -1.8895
 3852TIP3    H235752   2.632   3.405  13.165 -2.6552  0.7455  1.1803
 3853TIP3   OH235753   5.925   4.768  14.122 -0.1394 -0.0025 -0.7134
 3853TIP3    H135754   5.985   4.753  14.194 -1.8703 -0.6517  0.6684
 3853TIP3    H235755   5.977   4.814  14.056  1.6713  0.0033  0.6513
 3854TIP3   OH235756   1.072   3.815  14.532  0.6215 -0.6781 -0.3390
 3854TIP3    H135757   1.060   3.723  14.510  0.9053 -0.3852 -1.8429
 3854TIP3    H235758   1.029   3.863  14.461 -0.1434  0.3613  0.7934
 3855TIP3   OH235759   3.583   3.744  14.281  0.4892 -0.0724  0.1522
 3855TIP3    H135760   3.617   3.666  14.237 -1.3161 -0.7840 -0.0344
 3855TIP3    H235761   3.488   3.732  14.283  0.0723  2.4806 -0.5957
 3856TIP3   OH235762   7.986   4.660  14.112  0.4404  0.3070  0.5708
 3856TIP3    H135763   8.074   4.694  14.127  1.0540 -0.4938 -1.0097
 3856TIP3    H235764   7.951   4.714  14.041 -1.2018  2.0118  2.5581
 3857TIP3   OH235765   0.687   7.827  13.756  0.0272 -0.9376  0.3283
 3857TIP3    H135766   0.742   7.831  13.834 -0.2648  0.8642  0.4676
 3857TIP3    H235767   0.748   7.809  13.684  1.2308  2.8740  0.1892
 3858TIP3   OH235768   6.774   0.950  15.244 -0.1666  0.0393  0.5712
 3858TIP3    H135769   6.827   1.025  15.271 -0.8404  0.7034  0.1115
 3858TIP3    H235770   6.835   0.891  15.201  0.2437  0.6941  0.2371
 3859TIP3   OH235771   4.454   2.755  14.327 -0.3429  0.4029  0.6811
 3859TIP3    H135772   4.526   2.734  14.387  0.3994  2.5875  0.6582
 3859TIP3    H235773   4.420   2.670  14.299  0.9729 -0.6811  2.1886
 3860TIP3   OH235774   3.854   0.259  14.108  0.6699  0.2369  0.3338
 3860TIP3    H135775   3.760   0.259  14.086  0.7042  0.2844  0.1863
 3860TIP3    H235776   3.857   0.231  14.200  0.5900 -0.8738  0.0043
 3861TIP3   OH235777   6.438   1.285  13.895  0.2365  0.2370 -0.2836
 3861TIP3    H135778   6.526   1.318  13.878 -0.0834  1.1146 -0.2553
 3861TIP3    H235779   6.429   1.288  13.990 -0.0370  0.7150 -0.3221
 3862TIP3   OH235780   2.584   2.391  13.231  0.3108 -0.4670 -0.0385
 3862TIP3    H135781   2.584   2.326  13.160  0.5648 -1.6984  1.0530
 3862TIP3    H235782   2.660   2.368  13.285 -0.6973 -0.4653  1.4344
 3863TIP3   OH235783   2.954   6.247  13.318 -0.1345 -0.0817 -0.3909
 3863TIP3    H135784   3.032   6.229  13.265  0.2991 -1.0695  0.5518
 3863TIP3    H235785   2.912   6.321  13.274  0.7151 -0.2697 -1.5654
 3864TIP3   OH235786   6.273   4.828  15.331  0.3413 -0.8707  0.4551
 3864TIP3    H135787   6.251   4.874  15.250 -0.8994 -0.4727  0.9852
 3864TIP3    H235788   6.364   4.802  15.321  0.8078  0.9110 -0.2356
 3865TIP3   OH235789   0.158   1.143  12.749 -0.4140 -0.0877  0.1063
 3865TIP3    H135790   0.215   1.162  12.824  0.2209 -0.7120 -0.2038
 3865TIP3    H235791   0.097   1.077  12.782  0.0806 -0.6138 -0.0112
 3866TIP3   OH235792   8.322   5.575  14.943  0.5477  0.0225 -0.4827
 3866TIP3    H135793   8.276   5.621  15.014 -0.3646  0.6856 -1.4764
 3866TIP3    H235794   8.414   5.600  14.955  0.5116 -0.3722  0.8195
 3867TIP3   OH235795   3.706   2.732  13.845  0.8201 -0.1275  1.1632
 3867TIP3    H135796   3.712   2.820  13.808 -3.6044 -0.7947 -1.8986
 3867TIP3    H235797   3.766   2.679  13.793  0.0739  0.3287 -0.2118
 3868TIP3   OH235798   7.678   3.923  13.884  0.1255  0.8954  0.0006
 3868TIP3    H135799   7.763   3.965  13.871  0.1452  1.0676  0.6797
 3868TIP3    H235800   7.630   3.982  13.942  0.3783 -0.2962  1.4749
 3869TIP3   OH235801   2.457   5.202  13.823 -0.1965 -0.2872 -0.5886
 3869TIP3    H135802   2.395   5.219  13.752  0.7598 -0.5798 -1.5088
 3869TIP3    H235803   2.506   5.284  13.833 -0.3361 -0.2425 -0.2550
 3870TIP3   OH235804   8.416   0.950  14.549 -0.3118  0.2861  0.3357
 3870TIP3    H135805   8.439   1.034  14.509  0.0046 -0.1608 -0.4361
 3870TIP3    H235806   8.414   0.888  14.476 -2.3612 -0.0277  0.5857
 3871TIP3   OH235807   3.989   4.421  15.147 -0.2133  0.0633 -0.3405
 3871TIP3    H135808   4.059   4.356  15.159  2.2710  2.4165 -1.0369
 3871TIP3    H235809   3.910   4.369  15.136  1.1832 -2.7529  1.6618
 3872TIP3   OH235810   0.581   3.115  14.145 -0.0502 -0.1687 -0.2165
 3872TIP3    H135811   0.624   3.148  14.066  1.3798  1.0143  1.0063
 3872TIP3    H235812   0.503   3.170  14.154 -0.7116 -0.9003 -1.2611
 3873TIP3   OH235813   6.697   2.075  12.701  0.6274  0.7534  0.5637
 3873TIP3    H135814   6.725   2.121  12.780 -0.1626 -0.6006  1.6763
 3873TIP3    H235815   6.700   2.142  12.632  0.5742  2.1723  1.8844
 3874TIP3   OH235816   4.064   0.542  14.979 -0.8354 -0.2652 -0.0677
 3874TIP3    H135817   4.142   0.537  15.035 -1.1026 -0.2062  0.3149
 3874TIP3    H235818   4.047   0.451  14.954 -0.7588 -0.2997  0.0050
 3875TIP3   OH235819   2.236   3.689  13.103  0.3062  0.2603 -0.2298
 3875TIP3    H135820   2.176   3.677  13.177  2.5420  0.0081  1.6683
 3875TIP3    H235821   2.271   3.777  13.115  0.4492  0.3546 -1.2240
 3876TIP3   OH235822   1.122   1.550  12.845  0.3642 -0.0079 -1.0062
 3876TIP3    H135823   1.149   1.476  12.900  1.6241  0.8486 -0.4005
 3876TIP3    H235824   1.165   1.535  12.761 -0.7750 -0.8184 -1.4706
 3877TIP3   OH235825   6.132   6.251  13.230  0.0054  0.6053  0.1476
 3877TIP3    H135826   6.173   6.276  13.147  0.0198  0.1262  0.0074
 3877TIP3    H235827   6.072   6.323  13.250 -0.9398  0.1343 -0.9210
 3878TIP3   OH235828   6.800   3.989  14.675 -0.0013  0.6979  0.1145
 3878TIP3    H135829   6.860   4.052  14.714  0.8273 -0.0127  0.0264
 3878TIP3    H235830   6.719   4.038  14.659 -0.1047  1.1913  2.0108
 3879TIP3   OH235831   3.881   3.742  13.555 -0.2404  0.5135 -0.3092
 3879TIP3    H135832   3.859   3.753  13.463  0.6059 -1.0523 -0.7426
 3879TIP3    H235833   3.969   3.778  13.564 -1.4628  3.5318  0.6362
 3880TIP3   OH235834   8.276   4.577  13.764 -0.4969 -0.3170  0.4107
 3880TIP3    H135835   8.240   4.536  13.685 -1.3206  0.2759  0.4611
 3880TIP3    H235836   8.346   4.519  13.792 -1.5527 -1.6270  0.4228
 3881TIP3   OH235837   1.607   5.588  14.764  0.1690 -0.3000 -0.5994
 3881TIP3    H135838   1.656   5.666  14.790  0.6147 -0.7308 -0.1113
 3881TIP3    H235839   1.627   5.524  14.832 -0.2841 -0.8048 -0.9351
 3882TIP3   OH235840   5.136   5.607  13.680  0.7802  0.2843 -0.0808
 3882TIP3    H135841   5.112   5.543  13.613 -1.0886  0.5180  0.3049
 3882TIP3    H235842   5.176   5.554  13.749  0.0967 -0.3720 -0.1689
 3883TIP3   OH235843   1.568   1.642  13.282  0.0507 -0.1754 -0.2575
 3883TIP3    H135844   1.632   1.573  13.296  0.5764  0.5212  0.9381
 3883TIP3    H235845   1.485   1.603  13.308  0.3448 -0.3742  0.4238
 3884TIP3   OH235846   1.681   8.122  14.706  0.5029  0.1503 -0.1748
 3884TIP3    H135847   1.647   8.138  14.794 -1.0863  1.6740 -0.9993
 3884TIP3    H235848   1.776   8.113  14.718  0.3474  0.4783  1.6529
 3885TIP3   OH235849   7.329   1.872  14.380  0.1410 -0.5122 -0.0662
 3885TIP3    H135850   7.300   1.885  14.471 -1.8279  1.1772 -0.8477
 3885TIP3    H235851   7.270   1.927  14.328  2.4163  0.0830 -2.2148
 3886TIP3   OH235852   4.776   2.009  13.392  0.1783 -0.2089 -0.3247
 3886TIP3    H135853   4.794   2.069  13.464  0.8138 -1.2701  0.4187
 3886TIP3    H235854   4.695   1.964  13.417  0.3824 -0.5553 -0.2792
 3887TIP3   OH235855   4.909   7.024  14.665 -0.1482 -0.7487 -0.3902
 3887TIP3    H135856   4.842   7.013  14.597 -0.2205 -1.8805 -0.1575
 3887TIP3    H235857   4.991   7.004  14.620  0.1291  1.1073 -0.8006
 3888TIP3   OH235858   0.325   3.759  14.170 -0.0377  0.0083 -0.0428
 3888TIP3    H135859   0.325   3.693  14.101 -0.4968 -1.3572  1.2312
 3888TIP3    H235860   0.394   3.732  14.231 -0.1798  0.7382  0.4588
 3889TIP3   OH235861   3.455   5.206  13.408 -0.0232 -0.0215 -0.2990
 3889TIP3    H135862   3.536   5.254  13.424 -0.1911  0.3815 -0.6157
 3889TIP3    H235863   3.385   5.269  13.427 -0.2398  0.8157 -3.3221
 3890TIP3   OH235864   2.823   4.471  13.466  0.1484 -0.4677  0.3417
 3890TIP3    H135865   2.771   4.455  13.388  1.3840 -2.2188 -0.1822
 3890TIP3    H235866   2.791   4.555  13.500 -2.1365 -0.9049 -0.6012
 3891TIP3   OH235867   6.802   8.141  13.101 -0.4310 -0.2217 -0.0533
 3891TIP3    H135868   6.832   8.081  13.170 -1.7832 -1.3610 -0.3998
 3891TIP3    H235869   6.873   8.142  13.037  0.6943  0.5846  1.1669
 3892TIP3   OH235870   6.374   1.278  14.166  0.4029 -0.0203 -0.0854
 3892TIP3    H135871   6.340   1.190  14.180 -0.0086  0.2916  0.9774
 3892TIP3    H235872   6.458   1.279  14.211  1.2004 -0.3484 -1.4895
 3893TIP3   OH235873   2.720   6.348  14.772  0.5157 -0.0094 -0.8958
 3893TIP3    H135874   2.657   6.405  14.729  0.1520  0.3481  0.0762
 3893TIP3    H235875   2.789   6.335  14.707  0.3953  1.1838 -1.2899
 3894TIP3   OH235876   0.507   1.559  14.628  0.2450 -0.1487 -0.5034
 3894TIP3    H135877   0.529   1.487  14.569 -0.6565 -0.2569 -0.7175
 3894TIP3    H235878   0.508   1.519  14.715  1.2038 -0.0722 -0.4596
 3895TIP3   OH235879   5.848   5.094  12.717 -1.0464 -0.0757  0.1262
 3895TIP3    H135880   5.787   5.047  12.774 -0.9126  0.2407  0.5306
 3895TIP3    H235881   5.928   5.042  12.720 -1.2490 -0.4174 -0.2985
 3896TIP3   OH235882   4.453   8.413  14.453  0.1111  0.0375 -0.1114
 3896TIP3    H135883   4.532   8.449  14.494 -0.4612  0.9462  0.2142
 3896TIP3    H235884   4.394   8.487  14.446 -0.3409 -0.4070 -1.2969
 3897TIP3   OH235885   1.663   4.530  13.017 -0.3669 -0.2256 -0.2037
 3897TIP3    H135886   1.641   4.479  12.938  0.2544 -0.5671 -0.1573
 3897TIP3    H235887   1.729   4.593  12.988  0.5997 -1.0023  0.2450
 3898TIP3   OH235888   7.462   7.559  13.641  0.4003 -0.2986  0.1959
 3898TIP3    H135889   7.444   7.471  13.674  2.6798 -0.7287  0.4903
 3898TIP3    H235890   7.555   7.556  13.617  0.0994  1.5266 -1.4405
 3899TIP3   OH235891   0.455   1.158  12.959  0.2447 -0.0856 -0.8406
 3899TIP3    H135892   0.422   1.068  12.965  0.5375 -0.1267  0.2895
 3899TIP3    H235893   0.550   1.150  12.967  0.1358  0.5159  2.3888
 3900TIP3   OH235894   1.922   0.257  14.260 -0.6954 -0.4500 -0.5178
 3900TIP3    H135895   1.938   0.162  14.261 -1.1973 -0.5908 -2.3171
 3900TIP3    H235896   1.845   0.268  14.204 -0.6576  1.0324 -0.3199
 3901TIP3   OH235897   7.149   2.531  12.842  0.3434 -0.6699  0.2204
 3901TIP3    H135898   7.062   2.491  12.830  0.5678 -0.9590 -0.4939
 3901TIP3    H235899   7.184   2.488  12.921  0.0034 -0.8468  0.2797
 3902TIP3   OH235900   6.115   6.094  15.288 -0.6505 -0.0275 -0.4146
 3902TIP3    H135901   6.189   6.033  15.282  0.1520  1.0678 -2.6181
 3902TIP3    H235902   6.038   6.038  15.295  0.1321 -1.2770 -1.4414
 3903TIP3   OH235903   7.649   6.165  14.688 -0.2405 -0.2992  0.6103
 3903TIP3    H135904   7.593   6.130  14.619  2.6827 -0.5609 -1.8941
 3903TIP3    H235905   7.633   6.259  14.686  0.3652 -0.1876 -1.1175
 3904TIP3   OH235906   3.718   7.495  12.630  0.8538  0.0328 -0.0106
 3904TIP3    H135907   3.727   7.400  12.641 -0.4472 -0.0174  0.8840
 3904TIP3    H235908   3.641   7.517  12.682  1.1435  1.5881 -0.2114
 3905TIP3   OH235909   4.573   7.943  14.222 -0.1845  0.2628 -0.5479
 3905TIP3    H135910   4.580   7.904  14.309 -1.4470 -0.4217 -0.7229
 3905TIP3    H235911   4.519   7.881  14.173  0.7676  0.4730 -1.9228
 3906TIP3   OH235912   3.673   0.450  14.390  0.2293 -0.3537 -0.4537
 3906TIP3    H135913   3.754   0.439  14.441  0.3819 -1.0133 -0.8364
 3906TIP3    H235914   3.699   0.502  14.314 -0.4237  2.6043  1.1816
 3907TIP3   OH235915   4.258   5.773  13.333  0.8624  0.2692  0.2898
 3907TIP3    H135916   4.334   5.792  13.278  0.5195  2.8808  0.5712
 3907TIP3    H235917   4.266   5.680  13.355  1.0089 -0.9846 -4.0976
 3908TIP3   OH235918   8.115   1.417  14.196  0.0633 -0.0470  0.2840
 3908TIP3    H135919   8.089   1.497  14.150  0.1569  0.2064  0.6653
 3908TIP3    H235920   8.111   1.348  14.129 -1.6378 -0.0333  0.3441
 3909TIP3   OH235921   2.421   1.875  14.737 -0.3065  0.5104 -0.0034
 3909TIP3    H135922   2.481   1.887  14.663  0.1005  1.5780  0.4834
 3909TIP3    H235923   2.336   1.857  14.696  0.1321  0.0166 -0.7137
 3910TIP3   OH235924   4.193   6.904  14.753 -0.4018  0.1471  0.0244
 3910TIP3    H135925   4.205   6.874  14.844  0.7953 -0.0098 -0.1732
 3910TIP3    H235926   4.222   6.830  14.700 -0.5771  0.4484 -0.4929
 3911TIP3   OH235927   3.085   1.714  14.338  0.4915 -0.4510  0.2561
 3911TIP3    H135928   3.047   1.668  14.263  1.4015 -2.1925  0.8196
 3911TIP3    H235929   3.063   1.659  14.414 -1.0008  1.6102  1.4170
 3912TIP3   OH235930   8.037   2.883  13.993  0.7922  0.2726 -0.4940
 3912TIP3    H135931   8.055   2.802  14.040  0.6933  1.8457  2.5232
 3912TIP3    H235932   7.987   2.936  14.055  0.9059  2.6694 -2.3012
 3913TIP3   OH235933   1.848   4.236  14.247 -0.1780  0.6325  0.0548
 3913TIP3    H135934   1.857   4.249  14.152  2.2294  0.7364  0.2183
 3913TIP3    H235935   1.812   4.149  14.256  0.7151  0.1183 -0.9875
 3914TIP3   OH235936   7.778   6.635  14.852 -0.2574 -0.3644  0.8215
 3914TIP3    H135937   7.805   6.723  14.878  0.9275 -0.7917  1.1030
 3914TIP3    H235938   7.753   6.593  14.934 -0.4565 -0.4090  0.7369
 3915TIP3   OH235939   7.470   4.737  13.861 -0.3913 -0.1175  0.2703
 3915TIP3    H135940   7.416   4.682  13.917 -2.0625  2.1429  0.9923
 3915TIP3    H235941   7.543   4.764  13.917 -0.1187 -0.7321  0.2232
 3916TIP3   OH235942   5.255   3.497  13.954  0.7800 -0.2284  0.2678
 3916TIP3    H135943   5.349   3.481  13.953  0.7743 -0.3349  0.9362
 3916TIP3    H235944   5.246   3.589  13.931  1.0689 -0.1379  0.5093
 3917TIP3   OH235945   0.421   3.304  13.791  0.1018 -0.5263 -0.1832
 3917TIP3    H135946   0.443   3.333  13.702  1.5739 -1.6109 -0.2102
 3917TIP3    H235947   0.480   3.230  13.807 -0.4647 -0.6418  1.5294
 3918TIP3   OH235948   7.010   0.608  13.564  0.4247  0.5356  0.7187
 3918TIP3    H135949   7.004   0.672  13.493 -2.1490  0.6801  0.9864
 3918TIP3    H235950   6.985   0.525  13.523 -2.2671  0.8244  1.6318
 3919TIP3   OH235951   7.316   5.215  14.953  0.2868  0.2009  0.3308
 3919TIP3    H135952   7.353   5.126  14.950  0.6528  0.3712 -0.7474
 3919TIP3    H235953   7.261   5.216  15.031 -0.8995 -1.4433 -0.4173
 3920TIP3   OH235954   1.729   2.308  13.395  0.4982  0.2631 -0.0011
 3920TIP3    H135955   1.636   2.292  13.384  0.4676  0.5089 -0.1067
 3920TIP3    H235956   1.734   2.393  13.439  0.6803  0.4103 -0.3022
 3921TIP3   OH235957   1.481   0.794  13.624  0.2058  0.6463 -0.4779
 3921TIP3    H135958   1.423   0.868  13.645 -0.1266  0.0294  0.9417
 3921TIP3    H235959   1.505   0.807  13.532  0.6720  2.8637 -0.1094
 3922TIP3   OH235960   1.281   5.286  13.808 -0.7653  0.1291 -0.0434
 3922TIP3    H135961   1.360   5.233  13.809  0.3640  1.6395 -1.8693
 3922TIP3    H235962   1.232   5.255  13.731  0.5359  2.4376 -1.9314
 3923TIP3   OH235963   8.089   5.847  13.447  0.6733  0.9509 -0.4898
 3923TIP3    H135964   8.102   5.857  13.353 -2.0639  2.0960 -0.8451
 3923TIP3    H235965   8.149   5.776  13.473  3.2666  2.2143 -2.5755
 3924TIP3   OH235966   1.981   0.511  14.973  0.2649 -0.0407 -0.0041
 3924TIP3    H135967   1.930   0.522  14.893  1.2025  1.4061 -0.4478
 3924TIP3    H235968   2.006   0.419  14.973 -2.4316 -0.8612  0.3306
 3925TIP3   OH235969   1.495   7.871  13.982 -0.4910  0.0121  0.3991
 3925TIP3    H135970   1.550   7.915  14.047  1.0559 -1.1694 -0.0439
 3925TIP3    H235971   1.505   7.778  14.001 -0.1869 -0.3555 -1.3584
 3926TIP3   OH235972   3.165   3.879  14.191  0.7889 -0.1792  0.0190
 3926TIP3    H135973   3.085   3.930  14.209 -0.3923 -2.1717  0.7033
 3926TIP3    H235974   3.226   3.944  14.156 -1.3090  1.3405 -1.1323
 3927TIP3   OH235975   3.048   1.728  15.170 -0.3186  0.2976  0.8066
 3927TIP3    H135976   3.037   1.767  15.083 -2.5054 -1.2378  0.3166
 3927TIP3    H235977   3.106   1.653  15.155 -1.1281 -0.2893  0.5317
 3928TIP3   OH235978   3.196   6.172  13.162 -0.1997  0.1317 -0.2184
 3928TIP3    H135979   3.265   6.154  13.099  0.6219  1.0064  0.3978
 3928TIP3    H235980   3.233   6.238  13.220 -1.0157 -0.4615  1.0338
 3929TIP3   OH235981   3.705   6.400  15.396 -0.4282 -0.2120  0.6623
 3929TIP3    H135982   3.693   6.378  15.304  0.9237  0.5048  0.2986
 3929TIP3    H235983   3.619   6.430  15.425 -1.3220 -2.0640  0.1237
 3930TIP3   OH235984   0.228   1.166  14.335 -0.4256  0.4661  0.4588
 3930TIP3    H135985   0.261   1.223  14.266  2.8789  1.0384  2.3248
 3930TIP3    H235986   0.197   1.226  14.403  1.9553  0.1467  1.9268
 3931TIP3   OH235987   2.629   3.473  13.520 -0.0732 -0.1042  0.1846
 3931TIP3    H135988   2.577   3.420  13.581 -0.3213 -0.2301 -0.1358
 3931TIP3    H235989   2.617   3.431  13.435  1.7221 -1.0261  0.3264
 3932TIP3   OH235990   2.003   4.934  14.062 -0.6509  0.2054 -0.3230
 3932TIP3    H135991   2.099   4.924  14.060 -0.7149 -0.3819 -0.9102
 3932TIP3    H235992   1.989   5.023  14.092  0.0308 -0.4433  2.1017
 3933TIP3   OH235993   8.117   5.250  14.169  0.2156  0.5132  0.5315
 3933TIP3    H135994   8.117   5.169  14.220  0.7029 -0.1775 -0.5304
 3933TIP3    H235995   8.197   5.246  14.118 -0.5114  0.9145 -0.6890
 3934TIP3   OH235996   8.444   4.922  14.566  0.0757  0.1000 -0.3691
 3934TIP3    H135997   8.503   4.997  14.577 -1.5775  1.1493  2.1337
 3934TIP3    H235998   8.439   4.909  14.471 -1.1676  4.5239 -1.1280
 3935TIP3   OH235999   4.228   6.788  14.990  0.2938 -0.0633 -0.3280
 3935TIP3    H136000   4.316   6.758  15.013  0.6924  1.5216  0.3565
 3935TIP3    H236001   4.177   6.708  14.982  1.2861 -0.9241  1.4329
 3936TIP3   OH236002   1.953   2.583  13.688  0.1738  0.7728 -0.1713
 3936TIP3    H136003   1.966   2.584  13.783  2.0073  0.3807 -0.3726
 3936TIP3    H236004   2.036   2.550  13.653  0.2753  2.7909 -2.0448
 3937TIP3   OH236005   6.411   1.506  13.712  0.2031 -0.3463  0.1076
 3937TIP3    H136006   6.489   1.557  13.733 -1.3964  2.3712 -0.1650
 3937TIP3    H236007   6.394   1.455  13.791  2.7137 -1.8007 -0.1579
 3938TIP3   OH236008   7.326   5.694  14.976 -0.1070 -0.5207 -0.1999
 3938TIP3    H136009   7.240   5.654  14.979  0.0225 -0.7442  1.8916
 3938TIP3    H236010   7.311   5.785  15.001  0.0481 -0.0569 -1.6838
 3939TIP3   OH236011   2.774   6.106  14.014 -0.0578  0.2845  0.3971
 3939TIP3    H136012   2.699   6.156  14.047 -0.2371 -0.0231  0.4622
 3939TIP3    H236013   2.830   6.094  14.091  0.4890  1.2672  0.1639
 3940TIP3   OH236014   7.470   0.107  13.048  0.0450 -0.8581  0.6493
 3940TIP3    H136015   7.407   0.034  13.048 -2.7221  1.2760 -1.6616
 3940TIP3    H236016   7.424   0.177  13.096  1.5021  0.1995  0.5427
 3941TIP3   OH236017   1.686   1.323  13.813  0.4243  0.3644 -0.1544
 3941TIP3    H136018   1.742   1.246  13.816  0.3128  0.2855  2.6870
 3941TIP3    H236019   1.684   1.355  13.904 -1.1586  2.5324 -0.8573
 3942TIP3   OH236020   0.221   1.536  12.746 -0.2010  0.1126  0.2458
 3942TIP3    H136021   0.307   1.500  12.769 -0.1144 -0.5247 -0.9879
 3942TIP3    H236022   0.205   1.504  12.657 -1.1539  1.2681 -0.0220
 3943TIP3   OH236023   3.427   1.894  14.934 -0.0415  0.0372  0.1819
 3943TIP3    H136024   3.481   1.971  14.915  1.2119 -0.9857 -0.6051
 3943TIP3    H236025   3.337   1.925  14.925  0.4329  0.9988 -1.9503
 3944TIP3   OH236026   5.252   7.318  13.271  0.2710  0.0880  0.2575
 3944TIP3    H136027   5.219   7.233  13.245 -0.5311 -0.5404  3.0329
 3944TIP3    H236028   5.179   7.378  13.259 -0.4551 -0.4075  1.9466
 3945TIP3   OH236029   1.528   1.417  15.132 -0.4995 -0.2253 -0.1017
 3945TIP3    H136030   1.570   1.439  15.049  0.3955  1.6122  0.7931
 3945TIP3    H236031   1.567   1.476  15.196 -3.0568  0.2645  1.1621
 3946TIP3   OH236032   2.964   3.888  13.042  0.0474 -0.0009  0.6845
 3946TIP3    H136033   3.018   3.858  13.115  3.0665  0.1365 -1.3512
 3946TIP3    H236034   2.984   3.829  12.970 -1.0282  1.2801 -0.7475
 3947TIP3   OH236035   4.841   2.195  13.623  0.2510  0.2205  0.9966
 3947TIP3    H136036   4.750   2.180  13.647 -1.0902  2.6842 -1.9178
 3947TIP3    H236037   4.872   2.263  13.683 -0.7498  1.3255  0.2826
 3948TIP3   OH236038   6.133   0.804  13.624 -0.2341 -0.3165 -0.0774
 3948TIP3    H136039   6.171   0.718  13.603  0.6271 -0.1551  0.7678
 3948TIP3    H236040   6.086   0.829  13.544 -0.4808 -1.5532 -0.3523
 3949TIP3   OH236041   2.022   0.462  14.694  0.2908  0.8420 -0.2120
 3949TIP3    H136042   2.015   0.394  14.628 -0.4126  1.0233 -0.3286
 3949TIP3    H236043   2.086   0.524  14.658  1.9270 -0.3821  0.4692
 3950TIP3   OH236044   1.844   5.509  14.450 -0.0356  0.1294  0.9934
 3950TIP3    H136045   1.777   5.507  14.518 -0.9140  0.4837  0.1646
 3950TIP3    H236046   1.835   5.424  14.407 -0.0839  0.2543  0.7579
 3951TIP3   OH236047   2.375   7.174  13.915 -0.5405  0.1054 -0.6436
 3951TIP3    H136048   2.463   7.200  13.945  0.8276 -4.0886 -0.4289
 3951TIP3    H236049   2.316   7.222  13.973  1.6209  1.7555  0.3634
 3952TIP3   OH236050   1.062   7.604  14.065  0.2383 -0.2067 -0.1913
 3952TIP3    H136051   0.969   7.617  14.049  0.2864  0.2400 -0.1269
 3952TIP3    H236052   1.103   7.686  14.039  0.4622  0.0623  0.9679
 3953TIP3   OH236053   2.810   3.324  12.762  0.2896  0.0959  0.4076
 3953TIP3    H136054   2.771   3.267  12.828  4.1284 -0.7417  2.2732
 3953TIP3    H236055   2.893   3.281  12.740 -0.4106  0.7476 -4.5565
 3954TIP3   OH236056   4.056   6.669  14.218  0.0919  0.3286 -0.0533
 3954TIP3    H136057   4.118   6.693  14.286 -0.5555 -4.2643  2.6176
 3954TIP3    H236058   4.108   6.623  14.153  0.0072 -0.5795  0.4965
 3955TIP3   OH236059   6.614   0.503  14.141 -0.5991  0.1689  0.4236
 3955TIP3    H136060   6.589   0.546  14.060  0.0564  1.5281  0.9114
 3955TIP3    H236061   6.570   0.418  14.138 -1.2887  0.5506 -0.9356
 3956TIP3   OH236062   0.999   3.260  12.583 -0.0737  0.2114  0.9230
 3956TIP3    H136063   1.009   3.351  12.611 -0.1491  0.8642 -1.0644
 3956TIP3    H236064   1.088   3.226  12.579  0.0934  0.7456 -0.0382
 3957TIP3   OH236065   4.014   2.750  13.406 -0.4356  0.4437  0.6608
 3957TIP3    H136066   4.071   2.755  13.482  0.1077 -1.8976  0.4750
 3957TIP3    H236067   4.063   2.793  13.336  0.5603 -0.3823  0.8312
 3958TIP3   OH236068   8.382   5.459  14.438 -0.4372  0.0961  0.1612
 3958TIP3    H136069   8.453   5.437  14.378  0.1863  0.9237  0.5744
 3958TIP3    H236070   8.303   5.461  14.384  0.2728  1.9421 -0.8614
 3959TIP3   OH236071   3.379   0.801  13.099 -0.2804  0.3469  0.4511
 3959TIP3    H136072   3.390   0.766  13.011 -0.5424  1.0130  0.1544
 3959TIP3    H236073   3.445   0.869  13.107 -0.1300  0.1617  0.8426
 3960TIP3   OH236074   7.731   6.907  13.820  0.2020 -0.0599  0.3317
 3960TIP3    H136075   7.648   6.951  13.801  0.1978  0.0464  0.5948
 3960TIP3    H236076   7.760   6.874  13.735  0.2687  0.5620  0.1076
 3961TIP3   OH236077   5.480   0.468  12.647  0.3793 -0.2890  0.0310
 3961TIP3    H136078   5.394   0.472  12.605 -1.7107 -0.2951  3.8650
 3961TIP3    H236079   5.509   0.378  12.635 -0.8896 -0.7072 -0.0445
 3962TIP3   OH236080   5.321   7.633  14.207 -0.6084 -0.0911 -0.3554
 3962TIP3    H136081   5.253   7.701  14.208  0.1726  0.7079 -0.6639
 3962TIP3    H236082   5.317   7.597  14.118 -0.8102 -0.2405 -0.2879
 3963TIP3   OH236083   5.327   7.860  14.728  0.3724 -0.1317 -0.1940
 3963TIP3    H136084   5.375   7.861  14.811 -0.7501  0.4560  0.4801
 3963TIP3    H236085   5.380   7.914  14.669 -0.3844  2.2189  1.1319
 3964TIP3   OH236086   5.097   6.482  13.261 -0.2299 -0.2829 -0.4189
 3964TIP3    H136087   5.068   6.553  13.204 -1.0725 -1.2202 -1.2017
 3964TIP3    H236088   5.042   6.407  13.237  0.9834 -1.3563  0.0002
 3965TIP3   OH236089   0.115   3.094  14.764 -0.4501 -0.3230 -0.1498
 3965TIP3    H136090   0.065   3.141  14.698 -1.6243 -0.6253  0.5042
 3965TIP3    H236091   0.143   3.161  14.826  0.6162 -0.0453 -0.8855
 3966TIP3   OH236092   4.460   8.427  13.969 -0.0257 -0.1470 -0.5318
 3966TIP3    H136093   4.536   8.459  14.017 -0.5083  1.2079 -0.6387
 3966TIP3    H236094   4.495   8.399  13.884  0.8048 -2.3844  0.4564
 3967TIP3   OH236095   5.334   5.144  13.962  0.5329  0.4665 -0.3704
 3967TIP3    H136096   5.330   5.050  13.983 -3.3211  0.6351  0.2994
 3967TIP3    H236097   5.263   5.158  13.899  0.2096  3.1433  0.4699
 3968TIP3   OH236098   0.626   7.266  14.992  0.3797  0.0981  0.6384
 3968TIP3    H136099   0.552   7.217  15.029  2.5452 -2.0640  2.5344
 3968TIP3    H236100   0.647   7.331  15.059  0.4824  0.3543  0.3544
 3969TIP3   OH236101   2.459   0.940  13.678 -0.1319  0.0361 -0.2360
 3969TIP3    H136102   2.397   0.999  13.634 -0.5871  0.5236  1.0062
 3969TIP3    H236103   2.543   0.984  13.668 -0.2538  0.2211 -0.4855
 3970TIP3   OH236104   1.255   1.208  12.789  0.2682 -0.1563 -0.1867
 3970TIP3    H136105   1.292   1.284  12.745  2.7045 -0.3138  1.4037
 3970TIP3    H236106   1.209   1.244  12.865  2.9231 -0.2371  1.5806
 3971TIP3   OH236107   4.342   0.864  14.214  0.7535  0.2361  0.4115
 3971TIP3    H136108   4.316   0.947  14.252  0.7963 -0.0418  1.0736
 3971TIP3    H236109   4.325   0.800  14.283  1.7088 -0.1598  0.3021
 3972TIP3   OH236110   2.390   0.407  13.711 -0.5352  0.2664 -0.5474
 3972TIP3    H136111   2.364   0.498  13.698  2.2271  1.3562  0.7197
 3972TIP3    H236112   2.452   0.410  13.784  0.4487 -2.4914 -1.1355
 3973TIP3   OH236113   3.462   5.175  12.604 -0.0234 -0.5933 -0.1716
 3973TIP3    H136114   3.524   5.103  12.612  0.5065 -0.1905 -0.5543
 3973TIP3    H236115   3.391   5.140  12.551  0.6122 -0.6034 -1.0391
 3974TIP3   OH236116   5.959   7.039  14.789 -0.1731  0.0894  0.0077
 3974TIP3    H136117   5.907   7.083  14.722 -0.5862 -1.6333 -0.8452
 3974TIP3    H236118   5.916   7.061  14.872 -0.0102  1.7427 -0.3068
 3975TIP3   OH236119   2.401   1.150  14.263 -0.3372  0.0238  0.4101
 3975TIP3    H136120   2.310   1.128  14.246 -0.8846  1.5404  1.2391
 3975TIP3    H236121   2.414   1.131  14.356 -0.1936  0.9984  0.6057
 3976TIP3   OH236122   5.883   0.163  12.559  0.1395  0.1146  0.1322
 3976TIP3    H136123   5.872   0.255  12.582  0.7428  0.1910  0.1236
 3976TIP3    H236124   5.853   0.115  12.636  0.3849  0.3325  0.3636
 3977TIP3   OH236125   2.662   1.926  14.519 -0.4220 -0.0471 -0.0984
 3977TIP3    H136126   2.697   1.968  14.598  0.5857 -1.5832  0.3317
 3977TIP3    H236127   2.734   1.928  14.457  0.7723 -3.5345  0.9020
 3978TIP3   OH236128   2.050   2.381  13.885  0.3135 -0.0330 -0.1425
 3978TIP3    H136129   1.990   2.309  13.903  2.5814 -1.7521  1.0906
 3978TIP3    H236130   2.028   2.448  13.950 -1.4765  0.2226 -0.9699
 3979TIP3   OH236131   5.050   2.934  13.802  0.7103  0.0340  0.4878
 3979TIP3    H136132   4.968   2.919  13.755  0.8895  2.1370 -0.6108
 3979TIP3    H236133   5.060   2.858  13.859 -1.2373 -0.9710 -0.4468
 3980TIP3   OH236134   5.683   5.105  14.277 -0.4589  0.4535 -0.1505
 3980TIP3    H136135   5.764   5.107  14.328  0.2577  0.4437 -1.2555
 3980TIP3    H236136   5.686   5.020  14.231  0.0087  1.3500 -1.8795
 3981TIP3   OH236137   2.268   3.280  13.824 -0.0704 -0.1236  0.6090
 3981TIP3    H136138   2.295   3.332  13.900 -1.2510  1.8798 -0.2523
 3981TIP3    H236139   2.349   3.263  13.777  0.5813 -0.7467  1.9031
 3982TIP3   OH236140   2.074   3.397  14.667 -0.1167  0.6810 -0.1219
 3982TIP3    H136141   2.133   3.325  14.649  0.6323  1.5166 -1.1311
 3982TIP3    H236142   2.095   3.424  14.757  0.0395  0.0659  0.0252
 3983TIP3   OH236143   6.254   4.089  14.731 -0.2827 -0.2101 -0.3319
 3983TIP3    H136144   6.184   4.122  14.676 -0.3335 -1.1094 -0.8166
 3983TIP3    H236145   6.284   4.166  14.780 -2.5393 -0.0628  0.9390
 3984TIP3   OH236146   7.866   5.302  15.073  0.0936  0.0950  0.5409
 3984TIP3    H136147   7.898   5.362  15.140  0.0381 -1.2604  1.8265
 3984TIP3    H236148   7.907   5.218  15.095 -0.8527 -0.6424 -0.4384
 3985TIP3   OH236149   4.665   3.874  14.734 -0.6404  0.2384 -0.2974
 3985TIP3    H136150   4.698   3.790  14.702 -1.3787 -0.2061  0.0839
 3985TIP3    H236151   4.732   3.905  14.795 -0.4397 -0.1475 -0.3232
 3986TIP3   OH236152   6.785   2.396  14.692 -0.3724  0.4718  0.0535
 3986TIP3    H136153   6.873   2.372  14.663 -0.5331 -1.0603  0.7245
 3986TIP3    H236154   6.728   2.359  14.625 -0.6131 -0.8521  0.9548
 3987TIP3   OH236155   7.311   4.391  14.562 -0.3089  0.4455  0.0034
 3987TIP3    H136156   7.325   4.388  14.657 -2.7143 -0.9169  0.4037
 3987TIP3    H236157   7.357   4.314  14.529  0.8713  1.1419 -0.0233
 3988TIP3   OH236158   4.648   3.124  14.767 -0.1429  0.0798  0.4045
 3988TIP3    H136159   4.665   3.146  14.675 -2.7437 -0.4221 -0.2810
 3988TIP3    H236160   4.584   3.053  14.763 -0.0575 -0.1837  2.6244
 3989TIP3   OH236161   3.874   2.774  14.772  0.7117  0.1070  0.2300
 3989TIP3    H136162   3.861   2.840  14.841  0.8980  0.5761 -0.1746
 3989TIP3    H236163   3.786   2.747  14.748  0.5353  1.5839 -0.9018
 3990TIP3   OH236164   6.852   5.603  14.217  0.4409 -0.2875 -0.0581
 3990TIP3    H136165   6.831   5.644  14.301  1.6618 -0.8105  0.5354
 3990TIP3    H236166   6.942   5.631  14.199  0.4412 -0.7577 -0.8279
 3991TIP3   OH236167   1.580   4.052  13.455 -0.0952  0.1740  0.7081
 3991TIP3    H136168   1.594   3.969  13.410 -4.0317 -0.6052  0.5471
 3991TIP3    H236169   1.596   4.033  13.547 -1.8789 -1.1309  0.8009
 3992TIP3   OH236170   2.259   5.807  14.780  0.1858 -0.1243  0.0978
 3992TIP3    H136171   2.260   5.719  14.818  0.6747 -0.6145 -1.0078
 3992TIP3    H236172   2.177   5.812  14.732 -0.1375  0.2701  0.6678
 3993TIP3   OH236173   6.846   3.117  14.436  0.4030  0.8520  0.3389
 3993TIP3    H136174   6.857   3.134  14.530  2.3094  0.4345  0.2397
 3993TIP3    H236175   6.754   3.136  14.419 -0.8961 -2.1106  2.9367
 3994TIP3   OH236176   7.419   6.819  15.083  0.1280  0.2756  0.0920
 3994TIP3    H136177   7.509   6.851  15.087  0.4430 -0.6010  0.2498
 3994TIP3    H236178   7.414   6.754  15.153 -1.0243  1.2682  0.9625
 3995TIP3   OH236179   7.353   1.054  15.144  0.0765 -0.1090 -0.5055
 3995TIP3    H136180   7.377   0.966  15.172 -1.8194 -0.7317 -0.6559
 3995TIP3    H236181   7.399   1.112  15.204 -0.4202 -1.2847  1.0841
 3996TIP3   OH236182   1.697   5.899  14.469 -1.1666  0.0071 -0.5198
 3996TIP3    H136183   1.783   5.887  14.510 -1.1760  0.0749 -0.4802
 3996TIP3    H236184   1.687   5.823  14.411  0.9336  2.1407 -4.0556
 3997TIP3   OH236185   5.468   3.610  13.209  0.6965  0.2314  0.0082
 3997TIP3    H136186   5.513   3.650  13.134  1.4576 -0.0603  0.2938
 3997TIP3    H236187   5.417   3.681  13.247  0.8139  0.5426 -0.4017
 3998TIP3   OH236188   2.826   0.040  13.923 -0.2452 -0.1003 -0.6141
 3998TIP3    H136189   2.846   0.133  13.930 -0.1769 -0.0698 -1.1493
 3998TIP3    H236190   2.868   0.001  13.999 -3.2734  0.7438  1.6864
 3999TIP3   OH236191   1.149   1.423  14.127 -0.3533  0.5883  0.6644
 3999TIP3    H136192   1.154   1.517  14.115 -0.1673  0.4239 -0.6602
 3999TIP3    H236193   1.124   1.388  14.041  0.5251 -0.6459  0.8814
 4000TIP3   OH236194   0.462   2.544  13.625 -0.1173 -0.4499  0.0067
 4000TIP3    H136195   0.410   2.611  13.581  1.0380  0.6075  0.2126
 4000TIP3    H236196   0.401   2.502  13.685 -1.5108 -1.3031 -1.8923
 4001TIP3   OH236197   8.114   4.541  14.758  0.1135  0.2948  0.3922
 4001TIP3    H136198   8.030   4.546  14.712  0.1383 -0.5223  0.2455
 4001TIP3    H236199   8.163   4.618  14.728 -0.3344  0.4252 -0.0100
 4002TIP3   OH236200   5.227   5.449  13.884  0.0323 -0.4472  0.0430
 4002TIP3    H136201   5.151   5.399  13.915 -0.6495 -0.0848 -0.9875
 4002TIP3    H236202   5.236   5.520  13.947  0.1053 -1.0341  0.7026
 4003TIP3   OH236203   5.262   1.510  14.166 -0.1659 -0.5085  0.1271
 4003TIP3    H136204   5.289   1.449  14.235  1.5199 -1.1820 -1.0563
 4003TIP3    H236205   5.230   1.454  14.096 -1.1564  0.1332  0.0511
 4004TIP3   OH236206   7.577   5.326  15.054 -0.2194 -0.2323  0.1889
 4004TIP3    H136207   7.542   5.244  15.020 -0.0604 -1.1070  1.9923
 4004TIP3    H236208   7.671   5.309  15.065 -0.2612 -0.0048  1.0012
 4005TIP3   OH236209   0.032   8.172  13.977 -0.7123  0.1150 -0.2199
 4005TIP3    H136210   0.047   8.160  13.883  0.4596  1.1636 -0.1874
 4005TIP3    H236211   0.063   8.260  13.995 -0.1897 -0.3604  1.3132
 4006TIP3   OH236212   4.665   5.134  13.306  0.5685 -0.0273  0.7819
 4006TIP3    H136213   4.741   5.189  13.287  0.5674 -0.9477 -2.5357
 4006TIP3    H236214   4.697   5.044  13.296 -1.0525 -0.4426 -1.9471
 4007TIP3   OH236215   7.567   3.911  14.976  0.5959  0.4725  0.1815
 4007TIP3    H136216   7.613   3.868  14.903 -2.8294 -1.9483 -0.8037
 4007TIP3    H236217   7.598   3.866  15.054  0.9548 -0.1145 -0.2897
 4008TIP3   OH236218   7.699   8.404  13.945  0.2166  0.1930 -0.0292
 4008TIP3    H136219   7.623   8.346  13.937 -0.4326 -0.0321  4.8519
 4008TIP3    H236220   7.768   8.349  13.980  1.3226  1.2973 -0.3984
 4009TIP3   OH236221   1.414   2.506  13.139 -1.0788 -0.3251  0.0879
 4009TIP3    H136222   1.353   2.555  13.084 -0.3214  0.3911 -0.1570
 4009TIP3    H236223   1.361   2.471  13.209 -1.9779 -0.7992 -0.8086
 4010TIP3   OH236224   5.860   1.143  13.790 -0.1042  0.6051 -0.0592
 4010TIP3    H136225   5.874   1.237  13.803 -0.9630  0.6843  0.3323
 4010TIP3    H236226   5.947   1.109  13.767  0.1599  1.5336 -0.4792
 4011TIP3   OH236227   2.804   0.692  13.428  0.0437  0.0155 -0.4670
 4011TIP3    H136228   2.761   0.610  13.406 -1.2408  0.6187 -0.3051
 4011TIP3    H236229   2.895   0.680  13.401 -0.1302 -1.4397 -0.4561
 4012TIP3   OH236230   1.220   4.110  13.354 -0.8327 -0.2507 -0.6673
 4012TIP3    H136231   1.227   4.081  13.262 -3.0449 -1.6344 -0.4806
 4012TIP3    H236232   1.285   4.057  13.400 -1.5515 -1.5732 -1.0882
 4013TIP3   OH236233   6.717   8.368  14.374  0.2135  0.4628 -0.4330
 4013TIP3    H136234   6.648   8.435  14.372 -1.4719 -1.1923 -2.6204
 4013TIP3    H236235   6.715   8.329  14.287  2.1975 -1.3927  0.2669
 4014TIP3   OH236236   8.110   7.952  13.679 -0.3842  0.6898 -0.0343
 4014TIP3    H136237   8.023   7.930  13.646 -0.0689 -0.5281 -0.0835
 4014TIP3    H236238   8.148   7.868  13.705  1.9787  0.7413 -2.8353
 4015TIP3   OH236239   7.806   1.754  13.212  0.2866  0.3775 -0.0574
 4015TIP3    H136240   7.891   1.760  13.169  0.3720 -1.7545 -0.2653
 4015TIP3    H236241   7.826   1.746  13.305  0.2650  0.8513 -0.0102
 4016TIP3   OH236242   3.033   0.640  13.296 -0.3555  0.9965 -0.4366
 4016TIP3    H136243   3.046   0.678  13.209 -1.1764  3.4090  0.4135
 4016TIP3    H236244   3.118   0.649  13.339  0.5033 -1.6009 -1.4007
 4017TIP3   OH236245   0.637   6.862  14.146  0.4566 -0.1341  0.2160
 4017TIP3    H136246   0.597   6.931  14.093 -1.2709  0.0052  1.6388
 4017TIP3    H236247   0.639   6.897  14.235  0.5371 -1.5058  0.7811
 4018TIP3   OH236248   3.213   2.527  14.770  0.2545  0.4808  0.2154
 4018TIP3    H136249   3.221   2.443  14.727  2.0400  0.1945  1.0220
 4018TIP3    H236250   3.124   2.527  14.807 -0.0790 -0.6473 -0.5581
 4019TIP3   OH236251   5.561   2.883  14.909  0.3634  0.0570  0.2473
 4019TIP3    H136252   5.609   2.861  14.989  1.0939 -1.4958 -0.5747
 4019TIP3    H236253   5.469   2.877  14.934  0.5747  1.1281  1.3469
 4020TIP3   OH236254   0.281   0.708  13.209  0.1556 -0.3851  0.1473
 4020TIP3    H136255   0.207   0.681  13.154  0.0240  0.3164 -0.0264
 4020TIP3    H236256   0.336   0.760  13.150  0.1778  0.1024  0.5967
 4021TIP3   OH236257   3.819   2.432  12.925 -0.7623 -0.6940 -0.0950
 4021TIP3    H136258   3.780   2.364  12.869 -0.3425  0.0506 -1.3218
 4021TIP3    H236259   3.910   2.404  12.935 -0.4405 -0.0668 -1.0599
 4022TIP3   OH236260   1.323   1.441  13.267 -0.0414 -0.7585  0.3061
 4022TIP3    H136261   1.314   1.420  13.360  1.7644 -1.2497  0.4107
 4022TIP3    H236262   1.392   1.383  13.236 -0.3258 -0.3080 -1.2573
 4023TIP3   OH236263   6.708   4.365  14.118  0.0048  0.2988 -0.1778
 4023TIP3    H136264   6.729   4.380  14.210 -0.9710 -1.0526  0.2907
 4023TIP3    H236265   6.787   4.393  14.071  1.0398 -0.2627  1.1591
 4024TIP3   OH236266   8.176   6.459  14.748  0.3110 -0.2561 -0.2686
 4024TIP3    H136267   8.184   6.369  14.780 -1.1154 -0.1099  0.5787
 4024TIP3    H236268   8.184   6.451  14.653 -0.7065 -1.4299 -0.2875
 4025TIP3   OH236269   4.747   3.739  12.958 -0.2199  0.0317 -0.1687
 4025TIP3    H136270   4.721   3.667  12.900  1.2961  1.2552 -2.4902
 4025TIP3    H236271   4.830   3.710  12.997  1.5179  1.2461 -2.7328
 4026TIP3   OH236272   3.102   3.605  14.441 -0.2822  0.1370  0.4366
 4026TIP3    H136273   3.158   3.546  14.492  4.4242  0.2735 -3.7675
 4026TIP3    H236274   3.032   3.550  14.408  0.3820 -1.5086  1.6640
 4027TIP3   OH236275   0.693   7.836  14.575 -0.0116 -0.4587 -0.0267
 4027TIP3    H136276   0.758   7.786  14.625  1.5465  0.8668 -0.6484
 4027TIP3    H236277   0.656   7.897  14.639  0.7974  0.1091 -0.0755
 4028TIP3   OH236278   1.280   4.390  14.942  0.3295 -0.0620 -0.3533
 4028TIP3    H136279   1.200   4.442  14.933  0.1417 -0.5206 -1.4593
 4028TIP3    H236280   1.252   4.300  14.928  0.9834 -0.2673 -0.3689
 4029TIP3   OH236281   4.871   7.736  14.543 -0.2584  0.6389 -0.0596
 4029TIP3    H136282   4.914   7.713  14.461 -1.1989 -0.3323 -0.3042
 4029TIP3    H236283   4.923   7.808  14.578  0.4715  0.7127 -1.2394
 4030TIP3   OH236284   5.786   2.733  12.832  0.1510 -0.2560 -0.1152
 4030TIP3    H136285   5.820   2.807  12.782 -0.6723 -0.1219 -0.5056
 4030TIP3    H236286   5.862   2.698  12.878  0.3186  1.6648  1.1850
 4031TIP3   OH236287   7.232   8.150  14.393  0.0311  0.0464 -0.3551
 4031TIP3    H136288   7.248   8.129  14.301  0.7672  0.2930 -0.2872
 4031TIP3    H236289   7.319   8.157  14.432 -0.2363  1.3638  0.0409
 4032TIP3   OH236290   2.395   2.243  14.449 -0.1681 -0.2346  0.0215
 4032TIP3    H136291   2.398   2.333  14.418  0.9526 -1.0278 -2.4446
 4032TIP3    H236292   2.460   2.240  14.520  0.4924  0.6828 -0.5224
 4033TIP3   OH236293   5.797   5.999  13.901  0.5099 -0.7108  0.2501
 4033TIP3    H136294   5.866   5.998  13.835 -0.6132  0.1242 -0.9926
 4033TIP3    H236295   5.773   5.907  13.912  1.0820 -0.9053 -0.0979
 4034TIP3   OH236296   0.571   5.082  15.244 -0.2709  0.1767  0.4785
 4034TIP3    H136297   0.568   5.080  15.339  0.6328 -3.4690  0.5834
 4034TIP3    H236298   0.639   5.146  15.223  1.3577 -0.7941  2.4495
 4035TIP3   OH236299   6.778   1.867  12.554 -0.1719  0.1755 -0.0171
 4035TIP3    H136300   6.739   1.938  12.604 -0.1672 -0.5996  1.1195
 4035TIP3    H236301   6.775   1.897  12.463 -0.0643  1.6648  0.4513
 4036TIP3   OH236302   8.394   7.742  13.943  0.0723  0.0430  0.1091
 4036TIP3    H136303   8.380   7.649  13.925  0.7155 -0.1237  0.4215
 4036TIP3    H236304   8.309   7.775  13.973  0.4811 -1.1418  2.8960
 4037TIP3   OH236305   6.172   4.383  15.520 -0.1716 -0.1888  0.0945
 4037TIP3    H136306   6.182   4.445  15.448  1.8070 -1.8335 -1.1783
 4037TIP3    H236307   6.228   4.419  15.590 -0.8008  0.5721  0.2194
 4038TIP3   OH236308   1.791   1.426  14.498  0.0502 -0.4476 -0.1542
 4038TIP3    H136309   1.880   1.453  14.478 -0.3006  0.7862 -0.0848
 4038TIP3    H236310   1.767   1.476  14.576 -0.6047 -0.9931  0.0084
 4039TIP3   OH236311   7.578   3.886  14.310 -0.3117 -0.1919 -0.0613
 4039TIP3    H136312   7.661   3.899  14.264  0.0578 -0.5285  0.5047
 4039TIP3    H236313   7.603   3.852  14.396 -1.0649 -0.8881 -0.1067
 4040TIP3   OH236314   0.430   5.182  13.234 -0.4251  0.3325  0.2405
 4040TIP3    H136315   0.340   5.215  13.234 -0.5590 -0.0165 -0.3097
 4040TIP3    H236316   0.483   5.257  13.208 -0.7540  0.0721 -1.2681
 4041TIP3   OH236317   5.755   3.443  14.788  0.0618  0.2171  0.7814
 4041TIP3    H136318   5.803   3.502  14.846 -1.7521  2.1594  0.4173
 4041TIP3    H236319   5.801   3.449  14.704  0.7498 -0.0662  1.1294
 4042TIP3   OH236320   1.926   6.076  14.125 -0.2004  0.1072  0.1563
 4042TIP3    H136321   1.970   6.067  14.210 -0.8357 -1.5237  0.3579
 4042TIP3    H236322   1.839   6.109  14.147 -0.7329 -1.2886  0.3014
 4043TIP3   OH236323   3.266   5.255  15.191  0.8203  0.0410 -0.1791
 4043TIP3    H136324   3.256   5.273  15.098  0.5390 -0.2919 -0.2156
 4043TIP3    H236325   3.266   5.342  15.232 -0.9307  0.1335 -0.3154
 4044TIP3   OH236326   6.145   4.606  13.335  0.0724 -0.2011  0.1018
 4044TIP3    H136327   6.177   4.599  13.425  1.3158  2.7031 -0.0200
 4044TIP3    H236328   6.052   4.626  13.345  0.5093  1.6914  0.8721
 4045TIP3   OH236329   2.392   7.190  14.851  0.1527  0.2115 -0.1212
 4045TIP3    H136330   2.475   7.159  14.814 -1.2372 -3.0005 -0.8377
 4045TIP3    H236331   2.362   7.257  14.790  0.9285 -0.5360 -1.3492
 4046TIP3   OH236332   5.888   4.344  13.996 -0.2992 -0.4451 -0.4531
 4046TIP3    H136333   5.931   4.261  14.015  0.3248  0.3655  2.0213
 4046TIP3    H236334   5.795   4.326  14.007 -0.1481 -0.7644  0.4107
 4047TIP3   OH236335   4.110   2.267  14.732 -0.5750 -0.7870  0.3127
 4047TIP3    H136336   4.116   2.181  14.690  0.9752 -0.0952 -1.0285
 4047TIP3    H236337   4.198   2.281  14.769 -1.0573 -0.1166  1.2450
 4048TIP3   OH236338   2.855   5.334  13.493 -0.0788  0.1308  0.4120
 4048TIP3    H136339   2.761   5.331  13.472  0.0027 -2.8861  0.0477
 4048TIP3    H236340   2.866   5.268  13.561  1.7996  0.4545  0.4722
 4049TIP3   OH236341   1.222   4.443  13.734  0.2175  0.0496 -0.1787
 4049TIP3    H136342   1.132   4.473  13.724  0.4235  0.2175 -1.7751
 4049TIP3    H236343   1.250   4.480  13.818 -0.5581  1.7246 -0.6099
 4050TIP3   OH236344   4.522   4.244  13.013 -0.1455 -0.0243 -0.3325
 4050TIP3    H136345   4.461   4.229  12.940 -0.1189  2.0642 -0.8318
 4050TIP3    H236346   4.473   4.298  13.074  0.3160 -0.5976  0.5594
 4051TIP3   OH236347   8.129   3.278  15.093  0.0527 -0.5937  0.2480
 4051TIP3    H136348   8.071   3.203  15.108 -1.3519  0.0862 -1.3963
 4051TIP3    H236349   8.087   3.327  15.023  2.7404 -0.1257 -1.1640
 4052TIP3   OH236350   3.189   0.482  14.131 -0.5105 -0.2423  0.3217
 4052TIP3    H136351   3.284   0.493  14.119 -0.6287  1.1864  0.5194
 4052TIP3    H236352   3.176   0.490  14.226 -1.0553  1.9279  0.1210
 4053TIP3   OH236353   6.352   3.266  13.491 -0.1622  0.2483 -0.3071
 4053TIP3    H136354   6.366   3.201  13.560 -0.1727 -0.1405 -0.6719
 4053TIP3    H236355   6.439   3.283  13.456 -0.0643  0.9390  0.2376
 4054TIP3   OH236356   3.137   5.224  13.445  0.2582 -0.2895  0.0070
 4054TIP3    H136357   3.148   5.189  13.533  0.0654  1.1918  0.6457
 4054TIP3    H236358   3.129   5.147  13.389 -1.0235 -1.2698  1.4620
 4055TIP3   OH236359   7.103   4.578  13.802 -0.1785  0.0204  0.4876
 4055TIP3    H136360   7.048   4.655  13.818 -0.7081  0.4464 -2.7281
 4055TIP3    H236361   7.187   4.614  13.773 -0.9452 -0.4324 -2.6899
 4056TIP3   OH236362   3.937   5.401  15.027  0.0029  0.1890  0.1111
 4056TIP3    H136363   3.876   5.397  14.954  0.4938  0.7153 -0.3381
 4056TIP3    H236364   3.882   5.405  15.105 -0.5415 -1.8675 -0.1121
 4057TIP3   OH236365   1.243   1.771  14.310  0.3130  0.3079 -0.3704
 4057TIP3    H136366   1.175   1.757  14.376  0.5716 -1.6225 -0.4689
 4057TIP3    H236367   1.319   1.723  14.344  0.1521 -1.5938 -2.4852
 4058TIP3   OH236368   5.767   3.750  14.674 -0.0978 -0.2459 -0.6021
 4058TIP3    H136369   5.817   3.723  14.597 -1.1246  0.4936 -1.5553
 4058TIP3    H236370   5.831   3.749  14.745  0.7733 -1.3654 -1.3649
 4059TIP3   OH236371   4.670   0.871  13.508  0.1561 -0.2684  0.5575
 4059TIP3    H136372   4.691   0.962  13.527 -2.3042  0.1936  1.4467
 4059TIP3    H236373   4.656   0.868  13.414 -0.3874  0.4402  0.6081
 4060TIP3   OH236374   0.531   4.553  13.005  0.4984 -0.1438 -0.0742
 4060TIP3    H136375   0.592   4.558  13.079 -0.1020  0.0401  0.4159
 4060TIP3    H236376   0.553   4.629  12.951  0.3291  0.2450  0.3969
 4061TIP3   OH236377   8.444   6.572  13.852  0.0285 -0.2567 -0.0180
 4061TIP3    H136378   8.523   6.527  13.822 -0.1260  0.0309 -0.9143
 4061TIP3    H236379   8.428   6.638  13.784 -0.6848  0.0317  0.4208
 4062TIP3   OH236380   4.099   0.839  13.754 -0.3350  0.4022  0.1146
 4062TIP3    H136381   4.182   0.812  13.793  0.2192 -0.1958 -1.3935
 4062TIP3    H236382   4.099   0.935  13.762 -0.2202  0.3074  1.4721
 4063TIP3   OH236383   2.851   2.619  13.172  0.2285 -0.8814  0.2999
 4063TIP3    H136384   2.820   2.531  13.149 -3.1166 -0.0606  1.1360
 4063TIP3    H236385   2.884   2.610  13.262  0.3510 -1.3428  0.2122
 4064TIP3   OH236386   5.643   4.973  13.578  0.3490 -0.3840 -1.0072
 4064TIP3    H136387   5.641   4.891  13.627  1.3646 -0.0623 -0.4212
 4064TIP3    H236388   5.650   5.041  13.644  1.0145  0.0959 -1.5602
 4065TIP3   OH236389   4.627   6.056  14.313  0.3134  0.2562 -0.1443
 4065TIP3    H136390   4.634   6.105  14.395 -0.0279  0.2484 -0.1106
 4065TIP3    H236391   4.536   6.028  14.309  0.5193 -0.4178 -0.1398
 4066TIP3   OH236392   7.970   2.106  14.514 -0.1040 -0.7451 -0.0067
 4066TIP3    H136393   8.059   2.125  14.544 -0.0006 -2.0486  0.5891
 4066TIP3    H236394   7.919   2.094  14.595 -0.4849 -1.4458 -0.3399
 4067TIP3   OH236395   6.975   2.484  14.304 -0.1763 -0.3487 -0.4658
 4067TIP3    H136396   7.009   2.462  14.217 -0.4922  0.8029 -0.8903
 4067TIP3    H236397   6.896   2.534  14.287  0.0992  0.4304  0.4832
 4068TIP3   OH236398   5.691   6.469  14.808 -0.3030 -0.8603 -0.3609
 4068TIP3    H136399   5.704   6.564  14.809 -0.7787 -0.7965  0.0176
 4068TIP3    H236400   5.596   6.458  14.812 -0.2008 -1.3716  1.4464
 4069TIP3   OH236401   4.847   2.755  12.965  0.2125  0.2389  0.1597
 4069TIP3    H136402   4.940   2.767  12.948 -0.2329  2.2352 -1.2889
 4069TIP3    H236403   4.843   2.714  13.052  2.4008  1.4812  0.9249
 4070TIP3   OH236404   0.952   1.076  15.078 -0.0060  0.8410 -0.8998
 4070TIP3    H136405   0.891   1.041  15.142 -0.6251  0.2351 -1.7963
 4070TIP3    H236406   1.001   1.000  15.047  1.1350  1.2945 -0.3029
 4071TIP3   OH236407   4.970   5.009  13.528  0.8572 -0.0172  0.6086
 4071TIP3    H136408   4.936   5.098  13.531  0.1924 -0.2413 -0.0500
 4071TIP3    H236409   4.923   4.967  13.455  0.8643 -1.0261  1.1612
 4072TIP3   OH236410   5.933   0.783  14.343  0.4406 -0.5735 -0.0504
 4072TIP3    H136411   5.996   0.713  14.356  0.2766 -0.6772  0.1953
 4072TIP3    H236412   5.931   0.797  14.248  0.0836 -1.2620 -0.1509
 4073TIP3   OH236413   0.754   3.987  13.268  0.0166  0.7064  0.5948
 4073TIP3    H136414   0.705   4.067  13.289  0.3041  1.7257 -2.2312
 4073TIP3    H236415   0.724   3.963  13.181  0.8850 -1.5836  0.8680
 4074TIP3   OH236416   6.747   1.043  13.098 -0.1812 -0.2678  0.3441
 4074TIP3    H136417   6.743   1.130  13.138  0.2370 -0.1231  0.0839
 4074TIP3    H236418   6.772   1.060  13.007  1.2650 -0.7310  0.6200
 4075TIP3   OH236419   0.068   5.561  12.923 -0.4352  0.0203  0.0402
 4075TIP3    H136420   0.014   5.490  12.888 -0.1089 -1.4132  2.2492
 4075TIP3    H236421   0.046   5.564  13.016  4.9536 -2.4898  1.8171
 4076TIP3   OH236422   8.087   6.959  13.997  0.2290 -0.7357  0.4362
 4076TIP3    H136423   8.171   6.913  13.994  0.0886 -0.9814 -2.0541
 4076TIP3    H236424   8.034   6.916  13.930 -1.8930 -0.5305  1.8915
 4077TIP3   OH236425   1.131   5.741  14.662 -0.1212 -0.1626  0.4771
 4077TIP3    H136426   1.055   5.689  14.638 -1.9419  1.7233  1.7539
 4077TIP3    H236427   1.160   5.780  14.579 -0.3614 -1.0941 -0.0627
 4078TIP3   OH236428   2.919   4.352  13.157 -0.2480 -0.0989  0.1798
 4078TIP3    H136429   2.915   4.314  13.245  1.2344  0.1512  0.3898
 4078TIP3    H236430   2.926   4.276  13.098 -0.8739 -0.2548  0.3065
 4079TIP3   OH236431   3.049   5.065  13.194  0.3709  0.0714 -0.2418
 4079TIP3    H136432   3.113   5.136  13.180  2.0942 -1.3182  0.2636
 4079TIP3    H236433   3.102   4.985  13.197 -1.2524 -1.0240  1.4614
 4080TIP3   OH236434   4.808   1.371  13.411  0.3162 -0.3476  0.0439
 4080TIP3    H136435   4.855   1.403  13.489  0.3770 -1.0434  0.3033
 4080TIP3    H236436   4.817   1.441  13.347 -0.0913  0.4144  0.8060
 4081TIP3   OH236437   4.897   3.363  13.975  0.4911 -0.3210  0.7382
 4081TIP3    H136438   4.865   3.302  13.908  1.3682 -0.9039  0.8271
 4081TIP3    H236439   4.819   3.408  14.006  0.0874  0.1208 -0.8337
 4082TIP3   OH236440   1.404   8.230  14.344 -0.0436  0.3722  0.0900
 4082TIP3    H136441   1.475   8.271  14.295 -1.7735  1.8844 -1.2558
 4082TIP3    H236442   1.415   8.263  14.433 -0.6615  2.8910 -0.6961
 4083TIP3   OH236443   4.610   4.547  13.144 -0.2504 -0.2334  0.6684
 4083TIP3    H136444   4.671   4.549  13.218  0.7944 -0.1933 -0.1710
 4083TIP3    H236445   4.664   4.567  13.068 -0.5915 -3.4944 -0.6022
 4084TIP3   OH236446   4.226   4.243  14.387  0.4654 -0.1924  0.1513
 4084TIP3    H136447   4.198   4.190  14.462 -0.6985  0.1571 -0.0168
 4084TIP3    H236448   4.154   4.235  14.324  0.9593  0.3717 -0.4999
 4085TIP3   OH236449   5.090   6.536  14.220  0.2775 -0.0595  0.4333
 4085TIP3    H136450   5.142   6.577  14.152  2.1016 -1.5936  0.8207
 4085TIP3    H236451   5.099   6.594  14.296 -2.0778  1.8545 -0.6376
 4086TIP3   OH236452   3.647   3.786  14.564 -0.1938 -0.0383  0.0833
 4086TIP3    H136453   3.611   3.771  14.476  0.9826 -1.4541 -0.2043
 4086TIP3    H236454   3.643   3.880  14.576  0.6643  0.3183 -1.9773
 4087TIP3   OH236455   0.285   3.383  13.274  0.2196 -0.3765 -0.3539
 4087TIP3    H136456   0.268   3.319  13.205  2.6634  0.5867 -1.9867
 4087TIP3    H236457   0.272   3.468  13.232  0.9299  0.2186  0.5798
 4088TIP3   OH236458   6.499   4.225  14.215  0.5976 -0.1871 -0.3419
 4088TIP3    H136459   6.473   4.180  14.135  0.6772 -1.5852  0.4015
 4088TIP3    H236460   6.579   4.271  14.191  1.2684 -1.5351 -0.7694
 4089TIP3   OH236461   7.903   5.776  14.844 -0.1190 -0.7177  0.6883
 4089TIP3    H136462   7.824   5.804  14.889 -0.3028 -0.6011  0.2960
 4089TIP3    H236463   7.919   5.688  14.877 -1.2236 -1.3156 -0.2717
 4090TIP3   OH236464   2.002   6.756  13.620 -0.0244 -0.2018 -0.0768
 4090TIP3    H136465   2.067   6.721  13.680 -1.4631  0.2425  1.8173
 4090TIP3    H236466   2.024   6.849  13.611 -0.7018  0.0835  1.0364
 4091TIP3   OH236467   4.514   7.826  13.186  0.4521 -0.8797 -0.1714
 4091TIP3    H136468   4.441   7.821  13.249  0.2734  0.3621 -0.2425
 4091TIP3    H236469   4.473   7.813  13.101  0.2183  0.1930 -0.2456
 4092TIP3   OH236470   7.654   8.443  14.499  0.3794 -0.2985 -0.4837
 4092TIP3    H136471   7.712   8.387  14.447  0.1762 -0.5612 -0.4316
 4092TIP3    H236472   7.710   8.479  14.567  0.3913 -0.8980 -0.1700
 4093TIP3   OH236473   3.494   3.460  13.718  0.1806  0.4299  0.9062
 4093TIP3    H136474   3.536   3.528  13.770  1.3649 -1.0710  2.0373
 4093TIP3    H236475   3.401   3.471  13.735  0.1921  2.7309 -0.2403
 4094TIP3   OH236476   7.042   0.854  14.352  0.4595  0.6862 -0.2849
 4094TIP3    H136477   7.133   0.857  14.381  0.3363  1.1696  0.0588
 4094TIP3    H236478   7.029   0.764  14.324  0.7960  0.3985  0.4641
 4095TIP3   OH236479   4.872   4.370  13.641  0.0903 -0.0618  0.6091
 4095TIP3    H136480   4.925   4.331  13.710 -1.5631 -0.8055  1.5291
 4095TIP3    H236481   4.879   4.308  13.568  0.6440 -0.0423  0.6430
 4096TIP3   OH236482   4.828   5.235  13.559 -0.0878 -0.1941 -0.1786
 4096TIP3    H136483   4.764   5.220  13.629  0.1726 -0.9643 -0.0971
 4096TIP3    H236484   4.781   5.287  13.494 -0.6907 -0.4462  0.0477
 4097TIP3   OH236485   3.217   1.472  14.748  0.2457 -0.0705 -0.0650
 4097TIP3    H136486   3.296   1.526  14.748 -1.2744  2.3378 -0.9652
 4097TIP3    H236487   3.212   1.437  14.659 -0.5969  1.2961 -0.5872
 4098TIP3   OH236488   1.706   3.380  14.645 -0.2693 -0.0557  0.1628
 4098TIP3    H136489   1.773   3.373  14.576 -0.3348 -0.9836  0.1893
 4098TIP3    H236490   1.752   3.418  14.719 -0.1940  0.9581 -0.3720
 4099TIP3   OH236491   1.828   3.571  13.474  0.0815  0.0085 -0.0467
 4099TIP3    H136492   1.837   3.570  13.378  2.4147 -2.0165  0.0762
 4099TIP3    H236493   1.841   3.663  13.498 -0.6719  0.5812 -1.6567
 4100TIP3   OH236494   8.408   7.741  14.781  0.3901 -0.0859  0.0829
 4100TIP3    H136495   8.347   7.730  14.708 -0.8651  0.4690  1.0001
 4100TIP3    H236496   8.489   7.773  14.741 -0.0229 -0.5123 -1.1356
 4101TIP3   OH236497   5.521   7.781  14.325 -0.2849 -0.0012 -0.1912
 4101TIP3    H136498   5.478   7.838  14.389 -0.6181  0.3118 -0.6889
 4101TIP3    H236499   5.448   7.740  14.278 -0.0615 -1.1799  0.4473
 4102TIP3   OH236500   7.265   1.109  13.416  0.4129 -0.0148 -0.7352
 4102TIP3    H136501   7.295   1.041  13.477  1.4236  0.2695 -0.8934
 4102TIP3    H236502   7.316   1.094  13.336 -0.6253 -0.1418 -1.3846
 4103TIP3   OH236503   1.878   4.467  14.718 -0.2458 -0.0512 -0.6590
 4103TIP3    H136504   1.811   4.406  14.749  0.5455 -0.4156  0.3655
 4103TIP3    H236505   1.907   4.429  14.635 -1.0025 -0.1121 -0.9053
 4104TIP3   OH236506   3.093   3.646  14.042  0.6225 -0.0631 -0.3481
 4104TIP3    H136507   3.134   3.724  14.078  3.9935 -2.7123  2.3304
 4104TIP3    H236508   3.017   3.631  14.098  2.4981 -0.8956  2.2314
 4105TIP3   OH236509   6.433   6.123  13.594 -0.2474 -0.0625 -0.5808
 4105TIP3    H136510   6.471   6.197  13.546 -0.7536  0.1405 -0.6759
 4105TIP3    H236511   6.425   6.156  13.684  0.8561 -0.4988 -0.2989
 4106TIP3   OH236512   4.758   7.030  14.162  0.1979  0.7673  0.0481
 4106TIP3    H136513   4.735   7.112  14.119  1.3237  0.4847 -1.1405
 4106TIP3    H236514   4.683   6.972  14.146 -0.6055  1.5305  0.8969
 4107TIP3   OH236515   4.089   4.795  13.375  0.3502 -0.4303  0.1093
 4107TIP3    H136516   4.094   4.820  13.283  0.9704  1.2814  0.5629
 4107TIP3    H236517   4.127   4.707  13.378 -1.0876 -1.1691 -1.4519
 4108TIP3   OH236518   5.413   3.574  14.527  0.3131  0.1494  0.4805
 4108TIP3    H136519   5.449   3.615  14.605  1.2442  1.5061 -0.6059
 4108TIP3    H236520   5.320   3.598  14.528  0.7848  2.1429  0.0095
 4109TIP3   OH236521   7.432   3.296  13.587 -0.3453 -0.4072 -0.1680
 4109TIP3    H136522   7.340   3.302  13.614 -0.0812  2.6421  0.3555
 4109TIP3    H236523   7.432   3.325  13.496  0.1247 -0.1118 -0.0778
 4110TIP3   OH236524   2.045   1.342  13.368 -0.1830 -0.0520 -0.1269
 4110TIP3    H136525   2.029   1.325  13.275 -0.4514 -1.8340  0.2071
 4110TIP3    H236526   2.140   1.351  13.375  0.1310 -2.5007 -0.2575
 4111TIP3   OH236527   5.605   2.319  14.417 -0.3956  0.3373  0.9924
 4111TIP3    H136528   5.637   2.229  14.422 -1.0654 -0.2324 -2.2384
 4111TIP3    H236529   5.684   2.372  14.415  0.2867 -0.6081 -1.1768
 4112TIP3   OH236530   4.163   1.549  13.548  0.3932  0.5680  0.4646
 4112TIP3    H136531   4.186   1.477  13.489 -0.8844 -0.0160  0.6485
 4112TIP3    H236532   4.220   1.536  13.624  0.7367  0.2275  0.1577
 4113TIP3   OH236533   6.390   1.493  14.537  0.0966  0.5765  0.3169
 4113TIP3    H136534   6.335   1.571  14.538  0.1972  0.6863  2.3301
 4113TIP3    H236535   6.479   1.526  14.540  0.1550  0.4067  0.5591
 4114TIP3   OH236536   0.719   6.959  13.597  0.3979 -0.0636 -0.2111
 4114TIP3    H136537   0.788   6.910  13.552  0.9914  1.2143 -0.7611
 4114TIP3    H236538   0.741   6.950  13.690 -0.6274 -2.4195 -0.1381
 4115TIP3   OH236539   5.535   0.007  14.877  0.1022 -0.0226  0.2121
 4115TIP3    H136540   5.550   0.042  14.789  2.3986  1.1787  1.0292
 4115TIP3    H236541   5.441  -0.013  14.878 -0.3352  1.5368 -1.9372
 4116TIP3   OH236542   3.917   1.280  13.250 -0.0100 -0.2010  0.2014
 4116TIP3    H136543   3.889   1.245  13.335 -0.1361  1.0282  0.6889
 4116TIP3    H236544   3.998   1.232  13.230  0.2878 -0.1751  1.2526
 4117TIP3   OH236545   6.077   4.913  13.794  0.1889  0.2541  0.0685
 4117TIP3    H136546   6.010   4.976  13.823  0.0404  0.5352 -0.8617
 4117TIP3    H236547   6.030   4.853  13.736  0.7940  0.6251 -0.8278
 4118TIP3   OH236548   1.391   4.750  12.740  0.3117 -0.0137 -0.2366
 4118TIP3    H136549   1.368   4.659  12.722 -1.1124  0.1919  0.4120
 4118TIP3    H236550   1.485   4.755  12.722  0.2549 -1.3993 -1.0888
 4119TIP3   OH236551   7.614   2.233  13.698 -0.0886  0.2657 -0.3845
 4119TIP3    H136552   7.550   2.304  13.689 -0.9866 -0.3920  0.5677
 4119TIP3    H236553   7.569   2.167  13.752  1.2735 -0.3600  0.0289
 4120TIP3   OH236554   6.298   4.825  14.928 -0.2796  0.6719 -0.2048
 4120TIP3    H136555   6.289   4.885  15.002 -3.0262 -1.3161  1.2450
 4120TIP3    H236556   6.337   4.746  14.965 -1.4223 -0.2491 -0.8952
 4121TIP3   OH236557   4.810   1.134  14.680 -0.3940 -0.8184 -0.1184
 4121TIP3    H136558   4.785   1.096  14.764 -0.9363 -3.1476 -1.2644
 4121TIP3    H236559   4.906   1.139  14.684 -0.4024 -1.0525  0.5603
 4122TIP3   OH236560   2.919   7.171  14.138  0.1536  0.0120  0.2439
 4122TIP3    H136561   2.845   7.228  14.160  0.9805  1.3322 -0.2934
 4122TIP3    H236562   2.923   7.174  14.042  1.2937  0.4872  0.2901
 4123TIP3   OH236563   5.276   8.012  13.566  0.0762 -0.1464 -0.2774
 4123TIP3    H136564   5.196   8.060  13.542 -0.7787 -0.6493  1.3919
 4123TIP3    H236565   5.254   7.920  13.551  0.1564 -0.3225  0.6221
 4124TIP3   OH236566   3.447   5.105  14.354 -0.3716  0.3789  0.2616
 4124TIP3    H136567   3.493   5.113  14.437  1.4238 -1.3792 -0.4820
 4124TIP3    H236568   3.415   5.015  14.352  3.7081 -1.3072 -2.7736
 4125TIP3   OH236569   7.735   2.444  12.949  0.5222  0.0951  0.6439
 4125TIP3    H136570   7.694   2.402  13.025  0.6444 -0.1816  0.5581
 4125TIP3    H236571   7.713   2.387  12.875 -1.5731  1.5454  0.0395
 4126TIP3   OH236572   6.921   1.045  14.560 -0.5841  0.3224  0.3062
 4126TIP3    H136573   6.928   0.989  14.637 -0.4634  1.0915  0.8588
 4126TIP3    H236574   6.959   0.992  14.489  2.1900  0.7323  1.3681
 4127TIP3   OH236575   3.669   5.407  14.061 -0.3486 -0.0921  0.4597
 4127TIP3    H136576   3.614   5.354  14.004  1.1696 -0.1872 -0.9913
 4127TIP3    H236577   3.621   5.412  14.144 -1.0599 -2.7866  0.2829
 4128TIP3   OH236578   2.211   3.880  12.449  0.0718  0.4026 -0.1696
 4128TIP3    H136579   2.284   3.901  12.390  1.7992 -0.9080  1.3994
 4128TIP3    H236580   2.156   3.959  12.448  1.0776  1.1386 -1.9939
 4129TIP3   OH236581   0.812   4.382  15.102 -0.3421  0.3351 -0.3348
 4129TIP3    H136582   0.744   4.319  15.126  0.1340 -0.0989 -0.0969
 4129TIP3    H236583   0.883   4.328  15.067 -0.1740  0.7931 -0.7008
 4130TIP3   OH236584   3.904   8.103  14.708  0.3936 -0.3842 -0.6797
 4130TIP3    H136585   3.982   8.059  14.743  0.1360 -0.5538 -0.3092
 4130TIP3    H236586   3.914   8.098  14.613  0.2489 -1.4788 -0.6481
 4131TIP3   OH236587   1.701   7.760  14.452  0.2274  0.1552 -0.0552
 4131TIP3    H136588   1.633   7.724  14.395  1.0426 -0.2142 -0.8113
 4131TIP3    H236589   1.653   7.805  14.522 -0.7900  0.5394 -0.9881
 4132TIP3   OH236590   3.873   3.617  14.464 -0.2448 -0.3439 -0.1943
 4132TIP3    H136591   3.790   3.663  14.478 -1.4081 -2.8706  2.1999
 4132TIP3    H236592   3.847   3.531  14.431  1.2245 -1.8129  2.2073
 4133TIP3   OH236593   5.989   5.999  12.949 -0.0189  0.3546  0.1530
 4133TIP3    H136594   5.990   5.924  12.889 -1.1708 -0.7884  1.4764
 4133TIP3    H236595   6.030   5.966  13.029 -1.0018  0.9475  0.9287
 4134TIP3   OH236596   3.874   7.323  15.323 -0.5126  0.0307  0.2474
 4134TIP3    H136597   3.783   7.350  15.335 -1.3630 -1.9778 -1.0681
 4134TIP3    H236598   3.892   7.268  15.399 -0.9576 -0.7858 -0.2097
 4135TIP3   OH236599   0.377   2.161  13.981 -0.0504 -0.3246 -0.5725
 4135TIP3    H136600   0.357   2.244  14.024  0.1614 -1.5869  2.1739
 4135TIP3    H236601   0.300   2.142  13.928 -1.0352  0.5982  0.4834
 4136TIP3   OH236602   1.393   3.097  14.436 -0.5579  0.4393 -0.2210
 4136TIP3    H136603   1.366   3.094  14.344 -2.0013  0.6495  0.1795
 4136TIP3    H236604   1.432   3.011  14.452 -2.5524 -0.5475 -0.3819
 4137TIP3   OH236605   0.553   1.369  13.661  0.1212 -0.0177 -0.1830
 4137TIP3    H136606   0.578   1.428  13.589  0.5276  1.9837  1.4993
 4137TIP3    H236607   0.634   1.325  13.685 -0.0383 -0.7769 -1.0007
 4138TIP3   OH236608   1.670   3.802  13.924  0.1660 -0.0582  0.3122
 4138TIP3    H136609   1.644   3.726  13.872  2.2396 -0.6831  0.0893
 4138TIP3    H236610   1.595   3.819  13.981 -0.7153 -1.6707 -0.2965
 4139TIP3   OH236611   7.748   7.329  15.091 -0.1240  0.1496  0.1370
 4139TIP3    H136612   7.661   7.316  15.054 -0.7564 -0.9582  1.9116
 4139TIP3    H236613   7.736   7.392  15.162  0.5733  0.1988  0.2219
 4140TIP3   OH236614   6.540   1.285  15.271 -0.1943 -0.7350  0.0017
 4140TIP3    H136615   6.574   1.308  15.184 -0.7991 -0.0058 -0.0533
 4140TIP3    H236616   6.474   1.217  15.254 -1.6226  0.6638 -0.3372
 4141TIP3   OH236617   1.587   0.052  13.866  0.2659  0.2006  0.4953
 4141TIP3    H136618   1.642   0.097  13.930  0.2406 -2.6054  2.6880
 4141TIP3    H236619   1.626  -0.036  13.859 -2.1262 -0.8816 -0.2158
 4142TIP3   OH236620   7.746   6.579  15.123  0.5561  0.0055  0.1271
 4142TIP3    H136621   7.792   6.501  15.156 -0.5029 -0.6967  0.0001
 4142TIP3    H236622   7.654   6.564  15.147 -0.0610  0.0503 -2.0485
 4143TIP3   OH236623   7.544   0.546  14.768  0.3313  0.1246  0.2086
 4143TIP3    H136624   7.579   0.588  14.846  0.2411 -0.9956  0.8789
 4143TIP3    H236625   7.451   0.569  14.767  0.6046  1.2644 -0.3421
 4144TIP3   OH236626   3.344   8.445  13.144  0.2709 -0.4454  0.0775
 4144TIP3    H136627   3.408   8.390  13.189 -0.3507 -0.4694  0.9612
 4144TIP3    H236628   3.268   8.388  13.131  0.0085 -0.1011  0.0748
 4145TIP3   OH236629   4.315   4.837  13.113 -0.2088 -0.0250 -0.5201
 4145TIP3    H136630   4.238   4.881  13.076 -0.9238 -0.4563  0.4301
 4145TIP3    H236631   4.376   4.833  13.040 -0.6938  1.2147 -1.0330
 4146TIP3   OH236632   7.088   0.864  13.715 -0.4959  0.0151 -0.6090
 4146TIP3    H136633   7.036   0.832  13.642 -1.0499 -1.9385  0.5440
 4146TIP3    H236634   7.179   0.861  13.684 -0.7902  0.0129 -1.4741
 4147TIP3   OH236635   1.959   1.870  13.625  0.0305 -0.5467  0.4534
 4147TIP3    H136636   2.011   1.809  13.572  1.0448  0.8111 -0.1765
 4147TIP3    H236637   1.910   1.922  13.561 -2.0920 -1.7371  1.0414
 4148TIP3   OH236638   2.469   7.589  14.497  0.1171 -0.2261 -0.4633
 4148TIP3    H136639   2.510   7.504  14.480 -2.3031 -1.3543 -1.2021
 4148TIP3    H236640   2.521   7.628  14.567  1.8584 -1.8924 -0.7476
 4149TIP3   OH236641   2.660   3.086  13.461  0.2900 -0.3207  0.0394
 4149TIP3    H136642   2.616   3.098  13.545  1.2232 -0.1935  0.5222
 4149TIP3    H236643   2.753   3.079  13.483  0.5473 -0.2930 -0.9818
 4150TIP3   OH236644   1.734   0.006  14.313  0.2729 -0.1932 -0.2694
 4150TIP3    H136645   1.654   0.026  14.264 -0.1165 -1.4587 -0.2030
 4150TIP3    H236646   1.786  -0.046  14.252  1.0967  0.6801 -0.3352
 4151TIP3   OH236647   6.882   1.471  14.726 -0.1459  0.0730  0.2094
 4151TIP3    H136648   6.803   1.433  14.687  1.3699 -0.0947 -2.9444
 4151TIP3    H236649   6.913   1.404  14.787 -0.9508 -1.0382 -0.5592
 4152TIP3   OH236650   3.049   3.909  13.830 -0.2679 -0.0141  0.3227
 4152TIP3    H136651   2.978   3.973  13.821 -0.8848 -1.0035 -3.1204
 4152TIP3    H236652   3.005   3.824  13.830  0.7736 -0.5703  0.8505
 4153TIP3   OH236653   0.834   5.255  13.690  0.6217  0.4917  0.3308
 4153TIP3    H136654   0.893   5.296  13.754  1.6437  2.2379 -1.5951
 4153TIP3    H236655   0.856   5.298  13.607 -1.8300 -0.4377 -0.8906
 4154TIP3   OH236656   5.617   4.249  13.864 -0.2907  0.0992  0.0072
 4154TIP3    H136657   5.654   4.165  13.838 -0.5267  0.0243 -0.0906
 4154TIP3    H236658   5.624   4.304  13.786 -1.8776 -0.4217 -0.5537
 4155TIP3   OH236659   3.619   1.699  13.820 -0.4592  0.1818 -0.4808
 4155TIP3    H136660   3.592   1.701  13.728  1.4697  0.0254 -1.0994
 4155TIP3    H236661   3.652   1.610  13.833  2.6632  1.1949 -0.7460
 4156TIP3   OH236662   6.318   3.910  13.786 -0.2176 -0.0505 -0.2244
 4156TIP3    H136663   6.370   3.894  13.708 -0.6473 -0.1225 -0.5017
 4156TIP3    H236664   6.321   3.827  13.835  1.0996  0.3879  0.4769
 4157TIP3   OH236665   5.921   5.892  14.376  0.3322  0.2129  0.0807
 4157TIP3    H136666   5.973   5.814  14.395  1.1497  1.0066  1.2545
 4157TIP3    H236667   5.962   5.929  14.298  0.0524 -0.4200 -0.3766
 4158TIP3   OH236668   3.554   8.313  13.279 -0.1384  0.1569  0.2310
 4158TIP3    H136669   3.549   8.307  13.374 -0.7266  0.3047  0.2150
 4158TIP3    H236670   3.520   8.229  13.248  1.0973 -0.3380  0.1622
 4159TIP3   OH236671   0.124   7.513  15.226  0.2232  0.5073 -0.1421
 4159TIP3    H136672   0.092   7.547  15.310 -1.1597  1.4736 -1.0243
 4159TIP3    H236673   0.140   7.591  15.173 -0.1864 -0.1327 -1.2224
 4160TIP3   OH236674   7.574   7.695  13.886 -0.5284 -0.1892  0.2200
 4160TIP3    H136675   7.542   7.642  13.813 -2.6160  2.1490 -0.7252
 4160TIP3    H236676   7.642   7.750  13.847 -0.3548 -0.2149  0.4873
 4161TIP3   OH236677   0.644   1.653  13.077  0.2116 -0.0539  0.0929
 4161TIP3    H136678   0.628   1.725  13.017  0.7872 -0.3522 -0.4348
 4161TIP3    H236679   0.556   1.625  13.105 -0.0095  0.8926  0.3736
 4162TIP3   OH236680   8.128   1.211  13.779 -0.1622 -0.1059 -0.2966
 4162TIP3    H136681   8.061   1.170  13.833  0.0881  1.0734  0.9701
 4162TIP3    H236682   8.124   1.304  13.802 -0.0980  0.4744 -2.3855
 4163TIP3   OH236683   2.952   2.990  14.163  0.0829  0.0954  0.5147
 4163TIP3    H136684   3.007   3.063  14.192 -1.0443  2.0753 -1.9212
 4163TIP3    H236685   2.955   2.995  14.067 -1.8549 -1.6507  0.3012
 4164TIP3   OH236686   3.611   1.585  14.289 -0.3673 -0.3824  0.3690
 4164TIP3    H136687   3.599   1.606  14.382  0.7293  0.1757  0.4092
 4164TIP3    H236688   3.524   1.561  14.258 -0.6834 -0.9185  1.6248
 4165TIP3   OH236689   5.570   5.308  14.969  0.6034 -0.4022  0.5843
 4165TIP3    H136690   5.626   5.362  15.026  0.7769  0.8077 -0.6879
 4165TIP3    H236691   5.522   5.371  14.916 -0.4353 -1.4847  0.2030
 4166TIP3   OH236692   5.734   8.177  14.555  0.2085 -0.5511 -0.0257
 4166TIP3    H136693   5.802   8.209  14.496  0.1927  3.1938  1.7066
 4166TIP3    H236694   5.777   8.171  14.640 -1.1367  0.0949  0.7390
 4167TIP3   OH236695   1.990   2.498  14.140 -0.4712 -0.4529 -0.1210
 4167TIP3    H136696   1.906   2.509  14.185  0.1584 -0.1931  1.0104
 4167TIP3    H236697   2.042   2.574  14.168  0.6937 -1.4310  0.4306
 4168TIP3   OH236698   5.820   5.405  14.341  0.0058 -0.2127  0.0784
 4168TIP3    H136699   5.905   5.430  14.304 -0.1475 -0.8973 -0.7880
 4168TIP3    H236700   5.793   5.330  14.288 -0.0015 -1.5807  1.9160
 4169TIP3   OH236701   3.173   0.218  15.101 -0.3143  0.4126  0.4283
 4169TIP3    H136702   3.253   0.270  15.095  0.0443  0.0275  1.7325
 4169TIP3    H236703   3.199   0.130  15.076 -0.5221  0.4563  0.0433
 4170TIP3   OH236704   4.079   0.655  13.104 -0.0626 -0.0770  0.0115
 4170TIP3    H136705   3.985   0.639  13.104 -0.3935  1.6471 -0.2395
 4170TIP3    H236706   4.093   0.718  13.033  1.4243 -0.9952 -0.5508
 4171TIP3   OH236707   0.878   2.014  13.188 -0.3005 -0.1993 -0.5455
 4171TIP3    H136708   0.945   1.954  13.222 -0.0331  2.1022  3.6157
 4171TIP3    H236709   0.919   2.054  13.111  1.9682 -1.0069  0.1552
 4172TIP3   OH236710   4.030   4.088  14.256 -0.1050  0.4249 -0.1597
 4172TIP3    H136711   3.978   4.042  14.322 -0.1558 -0.2972 -0.6850
 4172TIP3    H236712   3.966   4.133  14.201 -0.0741  0.8635  0.1605
 4173TIP3   OH236713   0.908   4.596  12.926  0.0788 -0.0811 -0.2323
 4173TIP3    H136714   0.860   4.657  12.982  1.0610 -0.0935  0.6479
 4173TIP3    H236715   1.000   4.610  12.948  0.2868 -3.7454  2.0410
 4174TIP3   OH236716   0.129   2.523  14.657 -0.7105 -0.7870 -0.3721
 4174TIP3    H136717   0.196   2.570  14.607 -0.0025  1.6574  2.5318
 4174TIP3    H236718   0.046   2.562  14.630 -0.2476  1.3083  0.9427
 4175TIP3   OH236719   6.103   8.399  12.886 -0.2321 -0.2360  0.1555
 4175TIP3    H136720   6.017   8.440  12.877  0.7126  1.8642  0.0196
 4175TIP3    H236721   6.149   8.421  12.804  1.7831  2.2894  1.8003
 4176TIP3   OH236722   2.724   3.562  12.680  0.2454  0.1711  0.2987
 4176TIP3    H136723   2.633   3.544  12.704  0.2382 -0.5728 -0.2854
 4176TIP3    H236724   2.772   3.483  12.705  0.7308  0.5444  0.5660
 4177TIP3   OH236725   0.651   6.286  13.977 -0.0084 -0.4675  0.0306
 4177TIP3    H136726   0.709   6.337  13.920 -1.4240  1.6100  0.3400
 4177TIP3    H236727   0.571   6.275  13.926 -0.5957 -0.2586  0.8925
 4178TIP3   OH236728   2.262   5.016  13.423  0.5133 -0.1470 -0.3172
 4178TIP3    H136729   2.170   5.023  13.449  0.2328 -0.1803 -1.2572
 4178TIP3    H236730   2.285   5.105  13.393  0.3464 -0.4774 -1.4624
 4179TIP3   OH236731   0.308   4.880  15.510 -1.0555  0.2143 -0.8547
 4179TIP3    H136732   0.221   4.865  15.549 -0.1235 -0.0711  1.2648
 4179TIP3    H236733   0.331   4.797  15.469 -0.2331 -1.0556  1.9366
 4180TIP3   OH236734   4.458   2.247  14.354 -0.7004  0.0554  0.8626
 4180TIP3    H136735   4.496   2.233  14.441 -0.6082  0.6111  0.9142
 4180TIP3    H236736   4.533   2.241  14.294 -0.6760  0.2451  0.8752
 4181TIP3   OH236737   3.527   5.340  12.797  0.4081 -0.0900 -0.3487
 4181TIP3    H136738   3.534   5.394  12.719 -1.2689 -1.0655 -1.2297
 4181TIP3    H236739   3.523   5.250  12.764 -0.6188 -0.5076  0.8173
 4182TIP3   OH236740   2.072   4.254  13.960  1.1657  0.1792  0.2604
 4182TIP3    H136741   2.111   4.240  14.047 -1.0876 -1.1636  1.1417
 4182TIP3    H236742   2.031   4.170  13.939  0.1645  1.0198 -1.3076
 4183TIP3   OH236743   4.068   0.329  14.276 -0.3570 -0.4110 -0.3045
 4183TIP3    H136744   3.991   0.378  14.247 -0.0718  0.6000  0.5865
 4183TIP3    H236745   4.135   0.347  14.210 -0.6152 -0.5585 -0.6057
 4184TIP3   OH236746   3.156   6.056  14.480 -0.3568 -0.0304  0.4363
 4184TIP3    H136747   3.168   5.965  14.509 -1.0164 -0.2192  0.1294
 4184TIP3    H236748   3.213   6.107  14.538  1.6975 -0.8418 -0.7612
 4185TIP3   OH236749   2.693   0.713  15.020 -0.6131 -0.0039  0.1730
 4185TIP3    H136750   2.706   0.654  15.095  0.1729 -1.4674 -1.0643
 4185TIP3    H236751   2.609   0.686  14.982 -0.6090  0.1816  0.0319
 4186TIP3   OH236752   4.091   5.826  13.948 -0.4149 -0.4746  0.0053
 4186TIP3    H136753   4.049   5.906  13.916  0.4273 -0.6030 -1.4805
 4186TIP3    H236754   4.075   5.762  13.879  0.1125 -1.2093  0.5598
 4187TIP3   OH236755   8.057   6.553  13.993 -0.4943 -0.2128  0.2561
 4187TIP3    H136756   7.997   6.512  14.055 -0.3118 -0.2356  0.4162
 4187TIP3    H236757   8.002   6.615  13.945 -0.6840 -0.3601  0.2822
 4188TIP3   OH236758   0.822   3.950  13.578  0.2168 -0.0083  0.4088
 4188TIP3    H136759   0.813   4.032  13.627  0.1270  0.9665 -1.1326
 4188TIP3    H236760   0.822   3.978  13.486  0.4163 -1.7342 -0.1513
 4189TIP3   OH236761   5.450   4.191  14.540  0.2603  0.2422  0.2702
 4189TIP3    H136762   5.439   4.151  14.454 -1.6856  0.0768  0.5478
 4189TIP3    H236763   5.497   4.124  14.591 -2.4909 -1.6360  0.5776
 4190TIP3   OH236764   0.668   6.578  13.352 -0.5721  0.2351 -0.7901
 4190TIP3    H136765   0.632   6.666  13.340 -0.6812  0.2948 -0.0685
 4190TIP3    H236766   0.655   6.535  13.268  1.0596  1.4601 -1.7234
 4191TIP3   OH236767   1.773   0.353  13.989  0.0140  0.1956 -0.5497
 4191TIP3    H136768   1.771   0.286  13.921 -0.2424  1.0896 -1.4532
 4191TIP3    H236769   1.864   0.356  14.017  0.2213  0.1412 -1.1997
 4192TIP3   OH236770   1.263   2.057  13.312 -0.3230 -0.6373  0.0043
 4192TIP3    H136771   1.215   1.977  13.293 -1.7843  0.0559  0.6530
 4192TIP3    H236772   1.243   2.115  13.239  1.0617 -0.9633 -0.6739
 4193TIP3   OH236773   3.251   6.412  13.605  0.0936  0.2147  0.1373
 4193TIP3    H136774   3.230   6.505  13.593 -1.3336 -0.1157 -0.2169
 4193TIP3    H236775   3.311   6.409  13.679 -1.1656  1.3049  1.2449
 4194TIP3   OH236776   6.829   6.377  14.315 -0.0856 -0.3879 -0.4565
 4194TIP3    H136777   6.777   6.351  14.391  0.2047  1.2412  0.3464
 4194TIP3    H236778   6.809   6.470  14.302  1.6741 -0.0155 -0.8605
 4195TIP3   OH236779   1.734   7.605  14.989 -0.3954  0.0305 -0.0532
 4195TIP3    H136780   1.734   7.700  14.996  0.4493  0.1334 -1.0656
 4195TIP3    H236781   1.654   7.576  15.033 -1.7381  1.3572 -1.5063
 4196TIP3   OH236782   0.078   2.209  13.243 -0.2153 -0.0885 -0.1492
 4196TIP3    H136783   0.083   2.281  13.180 -0.8820  0.4103  0.3514
 4196TIP3    H236784   0.100   2.131  13.193 -1.3696  0.2136 -1.1713
 4197TIP3   OH236785   2.200   7.201  14.611  0.1577  1.3749  0.1813
 4197TIP3    H136786   2.106   7.219  14.612 -0.1678 -0.0947 -0.7003
 4197TIP3    H236787   2.208   7.116  14.655  0.6843  0.0495 -2.2893
 4198TIP3   OH236788   7.871   1.252  12.595  0.4291 -0.7487  0.0885
 4198TIP3    H136789   7.788   1.206  12.608  0.7742 -1.4596 -0.1996
 4198TIP3    H236790   7.849   1.344  12.610 -0.3781 -0.9422  0.1706
 4199TIP3   OH236791   6.748   5.312  14.636  0.2514  0.1552 -0.1715
 4199TIP3    H136792   6.810   5.374  14.674 -0.6428  1.2467 -0.4255
 4199TIP3    H236793   6.796   5.270  14.564  1.4283 -0.7537  1.0960
 4200TIP3   OH236794   1.123   8.426  14.697  0.4469  0.5734 -0.0010
 4200TIP3    H136795   1.049   8.463  14.746 -0.0362 -0.1563 -0.1592
 4200TIP3    H236796   1.116   8.467  14.610 -1.1368 -1.1457 -0.7388
 4201TIP3   OH236797   7.887   3.046  14.130  0.5046  0.5698 -0.1007
 4201TIP3    H136798   7.846   3.050  14.216  0.2259  2.0819 -0.2817
 4201TIP3    H236799   7.898   3.137  14.104 -0.9661  0.1926 -2.3899
 4202TIP3   OH236800   5.636   7.040  13.802  0.4560  0.2328  0.0039
 4202TIP3    H136801   5.562   7.099  13.817  1.1788  1.5911 -1.4654
 4202TIP3    H236802   5.712   7.098  13.793  1.2367 -0.9285 -1.2874
 4203TIP3   OH236803   7.718   2.708  12.949 -0.6623  0.4127 -0.0213
 4203TIP3    H136804   7.808   2.739  12.961 -1.1520  2.5879 -1.4956
 4203TIP3    H236805   7.728   2.614  12.932  1.3560  0.6155 -0.2602
 4204TIP3   OH236806   7.793   5.695  15.116 -0.1340 -0.2552 -0.3679
 4204TIP3    H136807   7.765   5.775  15.161 -1.4432 -1.9629  2.1054
 4204TIP3    H236808   7.720   5.674  15.057 -0.4249 -0.3196  0.0051
 4205TIP3   OH236809   4.432   3.509  13.093 -0.2172  0.0039 -0.0651
 4205TIP3    H136810   4.351   3.560  13.095  0.5259  1.2393  0.4384
 4205TIP3    H236811   4.440   3.480  13.003 -0.4461  1.2107 -0.4979
 4206TIP3   OH236812   1.074   7.157  13.809  0.1808  0.2469  0.2015
 4206TIP3    H136813   1.068   7.207  13.891  0.7689 -0.3512  0.6140
 4206TIP3    H236814   1.130   7.210  13.753  0.9955 -0.0489  0.7215
 4207TIP3   OH236815   8.301   3.111  13.993  0.0927 -0.3521 -0.0277
 4207TIP3    H136816   8.320   3.122  14.086  2.6406 -0.8917 -0.3978
 4207TIP3    H236817   8.247   3.032  13.988 -1.1523  0.3942  1.0528
 4208TIP3   OH236818   0.366   2.298  14.927 -0.2024  0.1566 -0.2069
 4208TIP3    H136819   0.286   2.261  14.964  0.4387 -0.2389  0.8375
 4208TIP3    H236820   0.404   2.349  14.999  1.2250 -0.8702 -0.1841
 4209TIP3   OH236821   5.642   4.653  15.036  0.3097  0.3891  0.0698
 4209TIP3    H136822   5.556   4.695  15.040  0.4089  0.5245  1.2163
 4209TIP3    H236823   5.634   4.576  15.092  0.2530 -0.9495 -1.6855
 4210TIP3   OH236824   1.474   3.421  13.055  0.3718  0.6220 -0.3289
 4210TIP3    H136825   1.441   3.458  12.973  0.3630  1.2138 -0.0651
 4210TIP3    H236826   1.568   3.410  13.040  0.4184  0.9907 -0.3301
 4211TIP3   OH236827   6.895   3.272  13.682 -0.1853 -0.3512  0.2615
 4211TIP3    H136828   6.812   3.230  13.706 -0.5348  0.2284  0.0875
 4211TIP3    H236829   6.869   3.352  13.637  0.4743 -0.2280  0.0904
 4212TIP3   OH236830   3.352   2.035  14.613 -0.3194 -0.3366  0.0124
 4212TIP3    H136831   3.357   1.955  14.667 -0.9142  0.0408  0.6504
 4212TIP3    H236832   3.443   2.060  14.598 -0.1328  0.1193  1.7203
 4213TIP3   OH236833   5.320   8.264  13.403 -0.0994  0.1921  0.3358
 4213TIP3    H136834   5.328   8.267  13.499  0.0717 -0.6937  0.3592
 4213TIP3    H236835   5.398   8.216  13.375 -1.0716 -1.2022 -0.1000
 4214TIP3   OH236836   0.524   4.844  14.893  0.0699  0.1209 -0.1459
 4214TIP3    H136837   0.616   4.842  14.917  0.0758 -0.7023 -0.2009
 4214TIP3    H236838   0.479   4.796  14.963 -0.0134 -1.5343 -1.2595
 4215TIP3   OH236839   3.307   6.282  14.323 -0.7128  0.4640  0.0233
 4215TIP3    H136840   3.293   6.293  14.417 -2.1522  0.2186 -0.1303
 4215TIP3    H236841   3.399   6.304  14.309 -0.3122 -0.1102  1.5756
 4216TIP3   OH236842   6.829   7.049  14.433 -0.2168  0.0067 -0.0825
 4216TIP3    H136843   6.760   7.053  14.499 -0.7693  1.7782 -0.7143
 4216TIP3    H236844   6.792   6.996  14.363 -0.4093 -0.2000  0.1758
 4217TIP3   OH236845   0.942   4.436  14.362  0.1246 -0.3611  0.0863
 4217TIP3    H136846   0.971   4.497  14.293  1.1101 -0.7976  0.0963
 4217TIP3    H236847   0.996   4.459  14.438  1.4845 -2.0876 -0.2961
 4218TIP3   OH236848   7.411   5.205  14.254 -0.4832 -0.3490  0.5441
 4218TIP3    H136849   7.493   5.217  14.301 -0.8133  0.1735  0.9898
 4218TIP3    H236850   7.410   5.274  14.188 -1.5574  1.0452  1.9550
 4219TIP3   OH236851   6.969   6.280  14.106 -0.1928  0.1422  0.2373
 4219TIP3    H136852   6.962   6.188  14.130 -0.6653  0.1220  0.0345
 4219TIP3    H236853   6.906   6.324  14.164 -0.6564  0.2125 -0.3126
 4220TIP3   OH236854   7.259   2.775  13.095 -0.1141 -0.1073 -0.0087
 4220TIP3    H136855   7.199   2.810  13.029 -1.6088  0.2770  1.4808
 4220TIP3    H236856   7.219   2.693  13.123  0.7893 -0.5417  0.0440
 4221TIP3   OH236857   2.127   8.418  13.477 -0.0510  0.1919  0.1705
 4221TIP3    H136858   2.157   8.469  13.402  0.9362 -1.7243 -0.7997
 4221TIP3    H236859   2.077   8.346  13.439 -1.6066  0.4982  1.5203
 4222TIP3   OH236860   2.406   3.374  14.496 -0.2128  0.1970 -0.1260
 4222TIP3    H136861   2.374   3.439  14.433  1.9768  0.0852 -1.4280
 4222TIP3    H236862   2.380   3.290  14.458  1.0615  0.1320 -0.8818
 4223TIP3   OH236863   4.445   3.373  12.853  0.0924  0.0638  0.2727
 4223TIP3    H136864   4.528   3.332  12.876  0.5006  0.2662 -0.7598
 4223TIP3    H236865   4.405   3.312  12.791 -0.6605 -0.1612  0.9710
 4224TIP3   OH236866   4.118   7.032  14.352  0.0542 -0.5819  0.0036
 4224TIP3    H136867   4.140   7.122  14.373 -0.4947  0.1030 -2.1177
 4224TIP3    H236868   4.066   7.001  14.426  0.6947  0.6437  0.9915
 4225TIP3   OH236869   5.576   8.205  13.332 -0.2687 -0.5243  0.4918
 4225TIP3    H136870   5.650   8.191  13.391  1.8807  0.9485 -1.6486
 4225TIP3    H236871   5.568   8.122  13.284  1.7622  0.0891 -1.0224
 4226TIP3   OH236872   7.275   0.611  14.763  0.9952  0.0929  0.0566
 4226TIP3    H136873   7.245   0.690  14.718  0.1327 -1.0385 -1.4637
 4226TIP3    H236874   7.198   0.554  14.763  2.2999 -1.8072 -1.4010
 4227TIP3   OH236875   3.809   2.519  13.677 -0.2342  0.1752 -0.4462
 4227TIP3    H136876   3.789   2.548  13.587 -0.6193  1.4245  0.0180
 4227TIP3    H236877   3.902   2.497  13.675 -0.0965  0.7557 -1.0272
 4228TIP3   OH236878   6.307   5.984  14.111 -0.1525  0.1878  0.5160
 4228TIP3    H136879   6.323   5.938  14.028  1.8504  0.6471  0.6081
 4228TIP3    H236880   6.322   5.918  14.178  2.2246  0.7567  0.6272
 4229TIP3   OH236881   2.553   6.053  14.727  0.1119 -0.1427  0.4925
 4229TIP3    H136882   2.619   6.005  14.777 -0.5177 -0.5690  0.9271
 4229TIP3    H236883   2.561   6.144  14.757  1.7125  0.1679 -0.7644
 4230TIP3   OH236884   0.365   3.294  14.965  0.6290  0.0817  0.2483
 4230TIP3    H136885   0.338   3.349  15.038  0.9885  0.3951  0.1476
 4230TIP3    H236886   0.381   3.208  15.004  0.6160  0.1939  0.5005
 4231TIP3   OH236887   1.463   1.253  13.130  0.1704  0.2056  0.6759
 4231TIP3    H136888   1.509   1.188  13.077  0.1301 -0.8555  1.8686
 4231TIP3    H236889   1.435   1.204  13.208 -1.2171  1.2987  0.9060
 4232TIP3   OH236890   3.617   5.630  13.868 -0.1862 -0.5047 -0.1307
 4232TIP3    H136891   3.549   5.627  13.935  0.4239  0.9476  0.5988
 4232TIP3    H236892   3.663   5.546  13.877  0.0289 -0.2513  1.4432
 4233TIP3   OH236893   0.012   8.098  13.026 -0.6404  0.0168 -0.2370
 4233TIP3    H136894   0.045   8.170  12.973 -0.8206  1.6373  1.7559
 4233TIP3    H236895   0.068   8.024  13.002  0.8008  1.2811 -0.9642
 4234TIP3   OH236896   6.509   0.466  14.415  0.5320 -0.3598 -0.3850
 4234TIP3    H136897   6.555   0.468  14.332  0.8372 -0.4506 -0.2193
 4234TIP3    H236898   6.419   0.442  14.393  0.5209 -0.0060 -0.7286
 4235TIP3   OH236899   6.333   0.639  14.803 -0.3152  0.4503  0.3813
 4235TIP3    H136900   6.346   0.599  14.889  0.8937 -0.7361 -0.3204
 4235TIP3    H236901   6.421   0.644  14.765 -0.8357  0.9119 -0.8100
 4236TIP3   OH236902   5.818   3.530  14.443  0.1615  0.3856 -0.0355
 4236TIP3    H136903   5.808   3.555  14.351  1.2630  0.2587 -0.2056
 4236TIP3    H236904   5.749   3.465  14.457 -0.7124  1.1991 -0.4592
 4237TIP3   OH236905   5.431   3.455  15.022 -0.2903  0.7065 -0.5362
 4237TIP3    H136906   5.402   3.390  15.086 -0.5369 -0.2098 -1.5288
 4237TIP3    H236907   5.489   3.405  14.963  0.2211  1.6038 -0.8073
 4238TIP3   OH236908   7.573   2.542  15.235 -0.1580 -0.3410 -0.4147
 4238TIP3    H136909   7.545   2.557  15.325  2.4124 -1.3882  0.6722
 4238TIP3    H236910   7.498   2.502  15.192 -0.8643 -1.5987  1.8237
 4239TIP3   OH236911   4.307   1.298  14.435 -0.3149 -0.3038 -0.2337
 4239TIP3    H136912   4.365   1.328  14.505  0.3985  0.6541 -1.2025
 4239TIP3    H236913   4.238   1.365  14.432  1.2472  1.3404 -2.3616
 4240TIP3   OH236914   7.309   5.433  14.814  0.1870  0.0130 -0.6899
 4240TIP3    H136915   7.323   5.346  14.851  0.8178 -0.2100 -1.4463
 4240TIP3    H236916   7.257   5.479  14.880 -0.7911 -1.1721 -0.6025
 4241TIP3   OH236917   7.870   1.200  13.894  0.5648 -0.3496  0.3250
 4241TIP3    H136918   7.905   1.199  13.984  0.7937 -0.8597  0.2362
 4241TIP3    H236919   7.819   1.281  13.889  0.5214 -0.3316  0.9293
 4242TIP3   OH236920   4.007   7.672  14.576  0.4258  0.1750 -0.1744
 4242TIP3    H136921   4.021   7.746  14.635 -1.8642  0.5524 -0.0201
 4242TIP3    H236922   4.018   7.709  14.488 -1.9556  1.1072 -0.1609
 4243TIP3   OH236923   4.122   4.972  14.256  0.3872 -0.0222 -0.0150
 4243TIP3    H136924   4.162   4.903  14.203  0.8767  0.2511 -0.0126
 4243TIP3    H236925   4.075   4.925  14.325  0.6562 -0.3570 -0.0583
 4244TIP3   OH236926   7.098   7.960  13.984  0.2761  0.2032 -0.0474
 4244TIP3    H136927   7.092   7.871  14.019  0.6377  1.0751  2.3971
 4244TIP3    H236928   7.119   8.015  14.059 -1.1453  2.5665 -1.2511
 4245TIP3   OH236929   6.417   7.413  14.587 -0.2843 -0.0472  0.1780
 4245TIP3    H136930   6.445   7.485  14.643 -1.9898  1.3051 -0.6083
 4245TIP3    H236931   6.493   7.393  14.532 -0.0280  1.7413 -0.1632
 4246TIP3   OH236932   7.202   6.584  13.764  0.4595  0.3199 -0.1610
 4246TIP3    H136933   7.205   6.544  13.851  1.7830 -0.7174 -0.6378
 4246TIP3    H236934   7.188   6.510  13.704  0.4447  0.9054 -0.8961
 4247TIP3   OH236935   1.049   4.643  14.213  0.3405  0.1088 -0.2147
 4247TIP3    H136936   1.120   4.705  14.233  0.3304  0.8546 -2.2794
 4247TIP3    H236937   1.082   4.591  14.140 -1.3485  0.7247 -1.4832
 4248TIP3   OH236938   5.282   5.503  14.300 -0.2057 -0.2830 -0.0693
 4248TIP3    H136939   5.313   5.421  14.262 -1.6823 -0.5125 -0.8333
 4248TIP3    H236940   5.189   5.488  14.317 -0.3487  1.0115  0.3786
 4249TIP3   OH236941   7.996   0.592  12.969  0.3407 -0.2355 -0.1547
 4249TIP3    H136942   8.086   0.623  12.976  1.0827 -2.4812  1.4104
 4249TIP3    H236943   8.004   0.504  12.931 -1.2618 -0.1970 -0.6547
 4250TIP3   OH236944   0.485   4.272  15.028 -0.2518 -1.1335  0.1743
 4250TIP3    H136945   0.511   4.359  14.996 -0.5307 -1.3965 -0.8095
 4250TIP3    H236946   0.492   4.216  14.950  1.2905 -2.2978  1.0867
 4251TIP3   OH236947   0.852   0.303  14.019 -0.0585 -0.3973 -0.3176
 4251TIP3    H136948   0.867   0.345  14.103 -0.4864 -0.3907 -0.2418
 4251TIP3    H236949   0.934   0.313  13.972  0.0318  0.0100 -0.0774
 4252TIP3   OH236950   2.250   8.096  13.371  0.4589 -0.0137  0.2327
 4252TIP3    H136951   2.326   8.125  13.321  0.7495 -1.4805 -0.2231
 4252TIP3    H236952   2.270   8.005  13.395 -1.3397 -0.6117 -0.3489
 4253TIP3   OH236953   6.140   7.343  13.348 -0.4600  0.8463 -0.4486
 4253TIP3    H136954   6.095   7.262  13.326 -1.6690  1.3938 -0.0871
 4253TIP3    H236955   6.198   7.360  13.273  3.0858 -2.4891  1.1730
 4254TIP3   OH236956   6.714   0.639  13.678 -1.1954  0.0752  0.0299
 4254TIP3    H136957   6.756   0.622  13.762 -0.7079  0.1025 -0.2031
 4254TIP3    H236958   6.786   0.641  13.615 -1.4680  0.7886 -0.2789
 4255TIP3   OH236959   2.806   6.480  13.222 -0.4327  0.3549  0.7122
 4255TIP3    H136960   2.779   6.436  13.142  2.9247 -2.9622  1.1033
 4255TIP3    H236961   2.856   6.556  13.191  2.5029 -1.9327 -0.6521
 4256TIP3   OH236962   0.226   8.365  13.505  0.2071  0.0865  0.0408
 4256TIP3    H136963   0.212   8.290  13.562 -0.6442 -0.1120 -0.4079
 4256TIP3    H236964   0.299   8.339  13.449 -0.5627 -0.7339 -0.6198
 4257TIP3   OH236965   1.627   7.579  13.687 -0.5880 -0.1440  0.8015
 4257TIP3    H136966   1.719   7.556  13.699  0.1875  2.1123 -0.2377
 4257TIP3    H236967   1.603   7.627  13.766 -0.5163  0.2527  0.5853
 4258TIP3   OH236968   8.227   7.592  14.619 -0.2875  0.1988  0.0474
 4258TIP3    H136969   8.151   7.649  14.624  0.8105  1.8970 -1.4025
 4258TIP3    H236970   8.191   7.503  14.622 -2.1893  0.9475  0.6098
 4259TIP3   OH236971   4.701   4.152  14.006  0.5259 -0.5545  0.1225
 4259TIP3    H136972   4.609   4.131  14.023  0.7478 -1.0760  0.7497
 4259TIP3    H236973   4.708   4.246  14.025  0.1746 -0.5626  0.3016
 4260TIP3   OH236974   3.106   7.287  14.296  0.2373 -0.2094 -0.2955
 4260TIP3    H136975   3.081   7.371  14.334 -0.9913 -0.9414  0.6190
 4260TIP3    H236976   3.030   7.260  14.245  0.3301 -1.0926  0.0152
 4261TIP3   OH236977   5.298   6.476  13.874 -0.9284 -0.2446 -0.7068
 4261TIP3    H136978   5.356   6.402  13.892 -1.4619 -0.3667  0.6895
 4261TIP3    H236979   5.210   6.438  13.873 -0.9940 -0.1611 -3.4007
 4262TIP3   OH236980   3.220   8.445  12.860  0.0311  0.0209 -0.1390
 4262TIP3    H136981   3.286   8.483  12.917  0.3608  1.1478 -1.2269
 4262TIP3    H236982   3.188   8.369  12.908  1.0192  0.3374  1.0783
 4263TIP3   OH236983   0.221   4.502  14.732  0.3202 -0.0985  0.5976
 4263TIP3    H136984   0.245   4.457  14.813 -1.4304  0.2590  1.3466
 4263TIP3    H236985   0.177   4.582  14.760  0.9524  0.7582 -0.7224
 4264TIP3   OH236986   6.422   3.600  13.002  0.4842  0.0900 -0.6207
 4264TIP3    H136987   6.485   3.530  12.984  0.7196  0.0970  0.1515
 4264TIP3    H236988   6.469   3.662  13.057  0.4537  1.1536 -1.7599
 4265TIP3   OH236989   1.630   6.483  13.542  0.0966  0.0136 -0.0901
 4265TIP3    H136990   1.581   6.404  13.522  0.7796 -0.4656  0.0816
 4265TIP3    H236991   1.702   6.483  13.479 -0.9926  1.5412 -1.3928
 4266TIP3   OH236992   2.314   5.655  14.377  0.1850  0.0181 -0.5188
 4266TIP3    H136993   2.220   5.675  14.378  0.1990  0.0918  0.4302
 4266TIP3    H236994   2.318   5.561  14.396  0.3718  0.4412  1.7566
 4267TIP3   OH236995   2.920   1.049  14.902 -0.0649  0.2573  0.2049
 4267TIP3    H136996   2.917   0.956  14.926  0.2610  0.5789  1.5867
 4267TIP3    H236997   2.918   1.049  14.807  0.2107 -1.1825  0.1746
 4268TIP3   OH236998   3.710   1.196  14.734  0.2640 -0.1521 -0.2468
 4268TIP3    H136999   3.747   1.244  14.808 -1.2741  0.9730 -0.1529
 4268TIP3    H237000   3.736   1.105  14.749 -0.1172  0.0189  1.7640
 4269TIP3   OH237001   1.014   7.921  14.761 -0.1124  0.1456 -0.4445
 4269TIP3    H137002   0.956   7.847  14.780  0.7567 -0.3828  0.2562
 4269TIP3    H237003   0.956   7.990  14.729 -1.1893 -0.2060  0.6720
 4270TIP3   OH237004   3.794   6.554  13.201 -0.3989  0.4337 -0.2150
 4270TIP3    H137005   3.786   6.646  13.175 -1.5339  0.3412 -0.2605
 4270TIP3    H237006   3.707   6.532  13.236 -0.1393 -0.6206 -0.2158
 4271TIP3   OH237007   3.165   3.149  14.990 -0.1860  0.1632 -0.0304
 4271TIP3    H137008   3.069   3.155  14.987 -0.3592 -1.3938  1.2480
 4271TIP3    H237009   3.195   3.235  14.961 -1.9048  0.0436 -2.4752
 4272TIP3   OH237010   2.324   6.884  15.228 -0.2160 -0.0970 -0.4639
 4272TIP3    H137011   2.342   6.826  15.154 -0.8847 -0.2359 -0.5226
 4272TIP3    H237012   2.256   6.944  15.195 -2.9547 -2.1578  0.9712
 4273TIP3   OH237013   1.939   1.290  13.115 -0.5811 -0.0869  0.1327
 4273TIP3    H137014   1.868   1.352  13.104  0.2040  0.8035  0.0100
 4273TIP3    H237015   1.948   1.248  13.029 -1.6655 -0.9971  0.4444
 4274TIP3   OH237016   6.550   1.641  13.935 -0.0754  0.3681 -0.1755
 4274TIP3    H137017   6.620   1.681  13.883  0.5911 -0.5099  0.0427
 4274TIP3    H237018   6.593   1.574  13.988 -0.8490  0.7975  1.0447
 4275TIP3   OH237019   6.023   4.851  12.794 -0.4176 -0.3726 -0.0206
 4275TIP3    H137020   5.967   4.848  12.872  0.6741 -0.2331  0.7949
 4275TIP3    H237021   6.051   4.761  12.781  0.0023 -0.2775  0.2065
 4276TIP3   OH237022   1.720   8.251  13.864  0.0282 -0.0143  0.1050
 4276TIP3    H137023   1.800   8.276  13.817  0.4723 -0.4721  0.6121
 4276TIP3    H237024   1.692   8.170  13.822  0.1633 -0.1708  0.3142
 4277TIP3   OH237025   0.675   4.190  13.904 -0.0910 -0.3774  0.4219
 4277TIP3    H137026   0.637   4.107  13.934 -0.6210 -1.3292 -2.5695
 4277TIP3    H237027   0.615   4.220  13.836  2.2971  0.2512 -1.5296
 4278TIP3   OH237028   5.561   2.128  14.121 -0.4011 -0.2990  0.0419
 4278TIP3    H137029   5.531   2.140  14.211 -1.3866 -1.7650 -0.0744
 4278TIP3    H237030   5.591   2.038  14.117  0.5542  0.0340 -0.8595
 4279TIP3   OH237031   1.939   4.851  14.399  0.3378  0.8424 -0.3681
 4279TIP3    H137032   1.962   4.758  14.398  0.3689  0.8518 -1.5092
 4279TIP3    H237033   1.900   4.865  14.485 -0.6500 -0.4711 -0.5730
 4280TIP3   OH237034   4.433   6.860  14.437 -0.5036 -0.2031 -0.1945
 4280TIP3    H137035   4.448   6.772  14.403  0.7290  0.0135 -0.2528
 4280TIP3    H237036   4.398   6.847  14.525  0.7684 -0.7618  0.2455
 4281TIP3   OH237037   4.988   1.765  14.160  0.0410  0.0755  0.0655
 4281TIP3    H137038   4.948   1.719  14.086  0.9332 -0.6568  0.0142
 4281TIP3    H237039   5.009   1.851  14.126 -0.8854  0.2462 -0.0929
 4282TIP3   OH237040   6.875   7.485  13.646 -0.0152  0.0326  0.4502
 4282TIP3    H137041   6.831   7.468  13.729 -1.2825 -1.5060 -0.4903
 4282TIP3    H237042   6.834   7.565  13.613 -1.8323 -1.0895 -0.1602
 4283TIP3   OH237043   2.189   6.925  14.521 -0.3276  0.1044  0.1115
 4283TIP3    H137044   2.213   6.844  14.475  1.4527  0.8531 -0.3504
 4283TIP3    H237045   2.242   6.923  14.601  2.1276  2.2374 -1.3501
 4284TIP3   OH237046   1.713   0.978  15.263  1.1273 -0.3285 -0.3476
 4284TIP3    H137047   1.665   0.895  15.271  2.0273 -0.9316 -0.9326
 4284TIP3    H237048   1.679   1.033  15.334  1.0217 -1.4631  0.5128
 4285TIP3   OH237049   5.827   1.712  14.252 -0.1836 -0.8764 -0.4819
 4285TIP3    H137050   5.887   1.785  14.270  1.2887 -2.0129 -0.5868
 4285TIP3    H237051   5.884   1.639  14.230 -1.5768 -2.3116  0.4409
 4286TIP3   OH237052   1.563   3.168  13.476 -0.0916 -0.5486  0.2691
 4286TIP3    H137053   1.517   3.091  13.510  0.5547 -1.4604 -0.8640
 4286TIP3    H237054   1.502   3.208  13.414 -1.0836  0.8454  2.0433
 4287TIP3   OH237055   3.904   2.116  14.171  0.0523  0.5954 -0.2719
 4287TIP3    H137056   3.810   2.098  14.180 -0.1513  0.9065 -1.5552
 4287TIP3    H237057   3.941   2.034  14.139  0.3263  0.2993  0.7709
 4288TIP3   OH237058   7.530   3.035  13.478  0.2331 -0.0958  0.0109
 4288TIP3    H137059   7.499   3.093  13.546  0.4062 -0.3126  0.2771
 4288TIP3    H237060   7.451   3.006  13.433 -0.3218 -2.9083  2.4744
 4289TIP3   OH237061   1.187   8.309  13.603 -0.4237  0.1830  0.1398
 4289TIP3    H137062   1.277   8.316  13.572  0.1249  0.7881  1.7268
 4289TIP3    H237063   1.133   8.335  13.529  0.5980 -1.7607 -1.3742
 4290TIP3   OH237064   8.161   7.346  14.534 -0.2589 -0.1898  0.1760
 4290TIP3    H137065   8.070   7.373  14.523 -0.0726  0.0194 -0.9616
 4290TIP3    H237066   8.161   7.253  14.513 -0.1911 -0.1666  0.0727
 4291TIP3   OH237067   1.447   2.488  14.932  0.5802 -0.3947 -0.4972
 4291TIP3    H137068   1.380   2.476  14.999  0.9020  2.5222  0.4955
 4291TIP3    H237069   1.399   2.513  14.854  0.3943  0.2717 -0.1801
 4292TIP3   OH237070   1.944   6.474  14.352 -0.0931  0.3661  0.1011
 4292TIP3    H137071   1.918   6.479  14.260 -0.4849 -2.8553 -0.0518
 4292TIP3    H237072   2.030   6.432  14.351 -0.0127  0.4814  1.2251
 4293TIP3   OH237073   7.592   4.661  13.602 -0.1748  0.4213  0.0386
 4293TIP3    H137074   7.555   4.651  13.690 -0.8930 -0.5394 -0.3479
 4293TIP3    H237075   7.633   4.577  13.583 -3.6580 -1.0430 -2.1124
 4294TIP3   OH237076   7.615   1.783  14.111  0.0027 -0.1079 -0.1446
 4294TIP3    H137077   7.670   1.812  14.183  0.0762 -1.3379  0.3211
 4294TIP3    H237078   7.676   1.763  14.040 -0.0164  0.4214 -0.3178
 4295TIP3   OH237079   2.948   4.614  14.888 -0.6351  0.4318 -0.6494
 4295TIP3    H137080   2.942   4.538  14.829 -0.1289  0.3739 -0.6374
 4295TIP3    H237081   2.982   4.684  14.832  0.8096  0.1149 -0.2234
 4296TIP3   OH237082   8.193   5.730  14.574 -0.8875  0.2480  0.4681
 4296TIP3    H137083   8.245   5.700  14.500 -0.4820  0.0669  0.8219
 4296TIP3    H237084   8.185   5.653  14.630 -0.8058  0.5054  0.8341
 4297TIP3   OH237085   6.727   4.575  12.794 -0.0285  0.2594 -0.4857
 4297TIP3    H137086   6.749   4.640  12.860  0.2488  0.0426 -0.3642
 4297TIP3    H237087   6.796   4.510  12.801 -0.5700 -0.2984 -0.2742
 4298TIP3   OH237088   3.889   0.578  13.410  0.4336 -0.1092  0.0207
 4298TIP3    H137089   3.892   0.487  13.437  0.1621  0.2645  1.3809
 4298TIP3    H237090   3.879   0.627  13.492 -1.5647  1.0240 -0.8458
 4299TIP3   OH237091   6.941   0.208  14.569  0.1996  0.7827  0.0802
 4299TIP3    H137092   7.015   0.190  14.628  0.6577 -0.4164 -0.8135
 4299TIP3    H237093   6.980   0.221  14.484 -0.4959  2.1027 -0.0565
 4300TIP3   OH237094   0.776   2.765  14.885 -0.3900 -0.1400  0.1412
 4300TIP3    H137095   0.740   2.780  14.972 -1.1420 -0.4800 -0.1003
 4300TIP3    H237096   0.699   2.751  14.829  0.1225 -2.1562 -0.1573
 4301TIP3   OH237097   3.105   0.065  13.425  0.4031  0.3979  0.5006
 4301TIP3    H137098   3.075   0.033  13.340 -2.7113  1.0247  1.2584
 4301TIP3    H237099   3.097  -0.011  13.483  0.7206  0.4757  0.6486
 4302TIP3   OH237100   6.647   2.424  13.821 -0.5289 -0.3722 -0.7116
 4302TIP3    H137101   6.727   2.389  13.783 -0.6446  0.0528 -1.3545
 4302TIP3    H237102   6.669   2.513  13.849 -0.1794 -0.9803  1.1054
 4303TIP3   OH237103   3.212   5.244  14.390  0.4640  0.2122 -0.5497
 4303TIP3    H137104   3.292   5.223  14.342 -0.8336 -0.3013 -2.6137
 4303TIP3    H237105   3.195   5.336  14.369 -0.1145 -0.0173 -1.1059
 4304TIP3   OH237106   7.476   4.198  12.909 -0.0708 -0.2352 -0.3869
 4304TIP3    H137107   7.528   4.271  12.876  0.3400 -0.7840 -0.9963
 4304TIP3    H237108   7.390   4.209  12.870 -0.1251  0.1331 -0.1654
 4305TIP3   OH237109   0.604   0.794  14.457  0.3968  0.1556  0.8113
 4305TIP3    H137110   0.540   0.850  14.412 -0.1429 -0.1112  1.2295
 4305TIP3    H237111   0.648   0.747  14.386 -1.0262 -0.8826  0.5595
 4306TIP3   OH237112   1.030   2.870  14.823 -0.4428 -0.1756  0.1265
 4306TIP3    H137113   0.946   2.830  14.844 -0.5203  0.5279  1.2144
 4306TIP3    H237114   1.092   2.830  14.884 -0.4571  1.0675  0.9856
 4307TIP3   OH237115   8.089   2.699  13.411 -0.3336 -0.5286 -0.0129
 4307TIP3    H137116   8.167   2.735  13.369 -1.0632 -0.0123 -0.9809
 4307TIP3    H237117   8.116   2.679  13.500  0.2842  1.8606  0.4007
 4308TIP3   OH237118   3.585   0.379  13.820 -0.1226  0.2564  0.0851
 4308TIP3    H137119   3.569   0.284  13.814  0.5293  0.1388  0.1420
 4308TIP3    H237120   3.664   0.386  13.874  0.0612  0.8120 -0.2546
 4309TIP3   OH237121   7.514   3.059  12.979 -0.5040  0.4187 -0.7729
 4309TIP3    H137122   7.504   2.988  12.916 -0.3745 -0.1204 -0.2065
 4309TIP3    H237123   7.567   3.125  12.934 -0.0658 -0.1372 -1.0884
 4310TIP3   OH237124   7.049   1.676  13.044  0.4731  0.2543 -0.0023
 4310TIP3    H137125   7.061   1.642  12.956  2.1636 -1.5466  0.8476
 4310TIP3    H237126   7.047   1.598  13.100 -2.0280  1.2400  1.4638
 4311TIP3   OH237127   7.559   4.567  13.052 -0.7439  0.3223  0.0597
 4311TIP3    H137128   7.543   4.655  13.087 -0.7540  1.0398 -1.6424
 4311TIP3    H237129   7.474   4.536  13.023 -0.4593  0.6396 -1.2182
 4312TIP3   OH237130   1.686   1.991  13.694 -0.4682  0.1404  0.4895
 4312TIP3    H137131   1.614   1.947  13.647  0.1577 -0.3979  0.0118
 4312TIP3    H237132   1.645   2.025  13.773 -1.5316  0.9732 -0.3830
 4313TIP3   OH237133   2.145   5.955  14.363 -0.4618  0.5151  0.7959
 4313TIP3    H137134   2.121   5.862  14.358  0.5477  0.2720  0.1018
 4313TIP3    H237135   2.212   5.958  14.431 -0.1311  0.6437  0.4673
 4314TIP3   OH237136   5.748   7.072  14.364  0.4497 -0.9547 -0.1982
 4314TIP3    H137137   5.754   7.135  14.292 -0.9004  0.7759  1.1150
 4314TIP3    H237138   5.731   6.988  14.322  0.2089 -0.0751 -1.9119
 4315TIP3   OH237139   2.253   1.219  14.742 -0.3884  0.0159  0.5576
 4315TIP3    H137140   2.186   1.231  14.810  0.4087 -0.6647  1.4920
 4315TIP3    H237141   2.251   1.125  14.723 -1.0947  0.3062 -0.9019
 4316TIP3   OH237142   1.981   2.665  14.887 -0.0414  0.2626  0.0911
 4316TIP3    H137143   2.008   2.589  14.938  2.2434 -0.1137 -1.4941
 4316TIP3    H237144   2.008   2.740  14.939 -2.6345  0.0908  1.8343
 4317TIP3   OH237145   4.055   8.445  14.225  0.3606  0.2533 -0.3052
 4317TIP3    H137146   4.005   8.495  14.289 -0.9026 -0.3744 -0.7648
 4317TIP3    H237147   4.124   8.505  14.196  0.9146  0.5649  1.5679
 4318TIP3   OH237148   0.016   1.551  13.278 -0.3109  0.5922  0.0982
 4318TIP3    H137149   0.000   1.466  13.237 -0.4086  0.9762 -0.6838
 4318TIP3    H237150  -0.041   1.551  13.355 -1.8081  0.7131 -0.9618
 4319TIP3   OH237151   3.122   6.813  15.028  0.7162 -0.4769  0.1641
 4319TIP3    H137152   3.160   6.874  14.965 -0.9359  1.2322  0.7166
 4319TIP3    H237153   3.035   6.793  14.992  0.9515 -1.9863  0.3590
 4320TIP3   OH237154   0.199   7.327  13.896  0.0051 -0.1683 -0.1115
 4320TIP3    H137155   0.129   7.359  13.840  0.6976  0.7807 -0.4711
 4320TIP3    H237156   0.237   7.253  13.847  0.0282  0.0884 -0.4923
 4321TIP3   OH237157   7.460   3.944  14.679  0.3209  0.6586 -0.2187
 4321TIP3    H137158   7.394   3.875  14.669  1.6523 -0.5325 -1.3888
 4321TIP3    H237159   7.431   3.995  14.754 -0.5313 -1.4167  0.9369
 4322TIP3   OH237160   0.670   7.005  14.384  0.7375 -0.1941  0.8512
 4322TIP3    H137161   0.690   6.974  14.473  3.3051 -1.6537 -0.1100
 4322TIP3    H237162   0.727   7.081  14.372 -0.9370  1.1369  1.0177
 4323TIP3   OH237163   8.089   1.973  14.046 -0.3621  0.3163 -0.2274
 4323TIP3    H137164   8.135   2.018  13.975 -1.0926  2.9615  0.8525
 4323TIP3    H237165   8.157   1.954  14.110 -0.1992  1.1650 -0.1252
 4324TIP3   OH237166   1.713   6.815  14.552 -0.2180 -0.3122 -0.2179
 4324TIP3    H137167   1.796   6.822  14.599 -1.2138 -2.6546  2.1487
 4324TIP3    H237168   1.655   6.878  14.595 -0.2187 -0.0782 -0.5584
 4325TIP3   OH237169   4.710   5.066  14.683 -0.9875  0.1228 -0.0876
 4325TIP3    H137170   4.648   4.994  14.697 -0.8186 -0.0753 -0.3489
 4325TIP3    H237171   4.796   5.023  14.679 -0.8053  0.4228  0.5318
 4326TIP3   OH237172   7.009   0.528  14.791  0.3643 -0.4418 -0.2235
 4326TIP3    H137173   6.964   0.480  14.721  0.1603 -1.0439  0.3099
 4326TIP3    H237174   6.939   0.556  14.850  0.6999 -1.8607  0.9061
 4327TIP3   OH237175   2.575   2.678  12.594  0.2507  0.3425 -0.7885
 4327TIP3    H137176   2.616   2.594  12.617  0.6856  0.4598 -1.1268
 4327TIP3    H237177   2.648   2.734  12.570 -0.1894  0.1642 -2.7094
 4328TIP3   OH237178   5.190   0.415  14.080  0.0995 -0.0726  0.3701
 4328TIP3    H137179   5.146   0.500  14.084 -1.9891 -0.9751 -1.9052
 4328TIP3    H237180   5.248   0.421  14.004 -0.4940 -0.8729 -0.1538
 4329TIP3   OH237181   7.733   0.237  14.236  0.4442 -0.0900  0.4028
 4329TIP3    H137182   7.805   0.280  14.190 -0.0410  0.5730  0.2429
 4329TIP3    H237183   7.763   0.148  14.251  1.8356  0.5254  1.5001
 4330TIP3   OH237184   2.465   0.690  14.719 -0.1532 -0.1373 -0.2486
 4330TIP3    H137185   2.415   0.764  14.755 -1.8659 -0.7930 -1.1689
 4330TIP3    H237186   2.534   0.731  14.666  0.1937  0.7933  0.8622
 4331TIP3   OH237187   3.022   5.737  14.200 -0.1078 -0.0373  0.4414
 4331TIP3    H137188   2.933   5.765  14.222  0.4764  2.8530 -0.4321
 4331TIP3    H237189   3.018   5.718  14.106 -0.1055 -1.3495  0.6954
 4332TIP3   OH237190   0.177   1.412  14.499  0.0414  0.0836 -0.2741
 4332TIP3    H137191   0.239   1.467  14.450  0.1885  0.1969  0.0390
 4332TIP3    H237192   0.230   1.369  14.566 -0.2612  0.4035  0.1822
 4333TIP3   OH237193   2.910   3.464  13.504 -0.2972 -0.5709 -0.4983
 4333TIP3    H137194   2.818   3.460  13.479 -0.6312 -0.4051  0.6393
 4333TIP3    H237195   2.908   3.468  13.600  0.8791 -0.2016 -0.4797
 4334TIP3   OH237196   7.097   4.826  14.930 -0.6546 -0.4814  0.1836
 4334TIP3    H137197   7.096   4.773  14.850  0.3358 -0.7754  0.3451
 4334TIP3    H237198   7.176   4.880  14.921 -1.4245  0.7058  0.2053
 4335TIP3   OH237199   3.067   2.675  13.901  0.3265  0.3042  0.5132
 4335TIP3    H137200   2.978   2.699  13.878  0.5929  1.6574  0.8027
 4335TIP3    H237201   3.068   2.674  13.997  0.4031 -0.6225  0.5127
 4336TIP3   OH237202   1.930   1.784  14.458  0.3777  0.2999 -0.4499
 4336TIP3    H137203   2.016   1.776  14.500  0.8407  0.7871 -1.2821
 4336TIP3    H237204   1.941   1.742  14.373 -0.7026 -1.1700  0.0863
 4337TIP3   OH237205   6.360   0.295  13.464 -0.0009 -0.6026  0.0132
 4337TIP3    H137206   6.409   0.286  13.546  3.0996 -0.3092 -1.6700
 4337TIP3    H237207   6.382   0.216  13.415 -0.1532  0.1716 -1.3316
 4338TIP3   OH237208   7.324   8.100  14.118  0.1016  0.0465 -0.7132
 4338TIP3    H137209   7.356   8.019  14.078  2.8304  0.4987  0.2849
 4338TIP3    H237210   7.356   8.170  14.061 -1.1557  0.5007 -0.8977
 4339TIP3   OH237211   7.453   5.450  13.756 -0.1625  0.4242 -0.0030
 4339TIP3    H137212   7.536   5.476  13.716  1.2556 -0.4485  2.1759
 4339TIP3    H237213   7.413   5.390  13.693  1.1849  0.3482 -0.8121
 4340TIP3   OH237214   6.780   6.656  15.136  0.2025  0.3071  0.1590
 4340TIP3    H137215   6.868   6.620  15.124 -0.2579 -0.4345 -1.2546
 4340TIP3    H237216   6.738   6.595  15.196  0.5208  0.4448  0.5291
 4341TIP3   OH237217   0.237   3.165  13.091  0.2894 -0.3770  0.2477
 4341TIP3    H137218   0.315   3.166  13.036 -1.0939  0.0865 -1.8316
 4341TIP3    H237219   0.245   3.085  13.144  2.1079 -0.3558  0.0390
 4342TIP3   OH237220   3.501   4.680  15.318 -0.9012  0.1519  0.5756
 4342TIP3    H137221   3.450   4.638  15.249  0.8577  1.6088 -1.7490
 4342TIP3    H237222   3.558   4.611  15.351 -0.5426 -0.1607 -0.6708
 4343TIP3   OH237223   5.715   1.504  12.667  0.7960 -0.7572  0.8120
 4343TIP3    H137224   5.795   1.512  12.719  2.2270  1.6059 -1.4934
 4343TIP3    H237225   5.745   1.492  12.577 -1.3576  0.8247 -0.2431
 4344TIP3   OH237226   4.392   0.333  13.477 -0.2511  0.4968  0.1190
 4344TIP3    H137227   4.382   0.244  13.444 -1.1493  0.4960  0.3556
 4344TIP3    H237228   4.332   0.338  13.552  1.6098  0.5476  1.6768
 4345TIP3   OH237229   0.958   3.820  13.316 -0.2472 -0.0388 -0.0870
 4345TIP3    H137230   1.033   3.878  13.304 -0.9533  1.0098  0.3792
 4345TIP3    H237231   0.882   3.878  13.310 -1.0097 -1.0246 -0.2222
 4346TIP3   OH237232   0.604   3.134  14.435 -0.2559 -0.0353 -0.1692
 4346TIP3    H137233   0.525   3.181  14.462  0.4009  1.0007 -0.0012
 4346TIP3    H237234   0.602   3.139  14.339  0.0185  0.6850 -0.1371
 4347TIP3   OH237235   1.844   2.911  14.323 -0.3846  0.2144 -0.2531
 4347TIP3    H137236   1.835   2.903  14.228  0.2356  2.9866 -0.6407
 4347TIP3    H237237   1.938   2.900  14.340 -0.8357 -3.5029  0.5450
 4348TIP3   OH237238   5.258   0.700  12.903 -0.4588 -0.1333 -0.1465
 4348TIP3    H137239   5.208   0.776  12.872  0.3840  0.1871 -0.7430
 4348TIP3    H237240   5.322   0.737  12.964  2.5209  0.2847 -3.2024
 4349TIP3   OH237241   0.388   0.706  12.918 -0.8232 -0.1825 -0.5320
 4349TIP3    H137242   0.381   0.705  12.823  0.8643  0.4855 -0.7067
 4349TIP3    H237243   0.335   0.780  12.946 -2.5973 -1.2953 -0.7684
 4350TIP3   OH237244   5.799   7.255  13.059  0.0985  0.0235 -0.0200
 4350TIP3    H137245   5.780   7.182  13.118 -1.5272 -0.0331 -0.5820
 4350TIP3    H237246   5.715   7.299  13.046  0.7475  1.0632 -0.9495
 4351TIP3   OH237247   5.112   4.722  13.856 -0.1134 -0.4139 -0.3602
 4351TIP3    H137248   5.084   4.683  13.939  2.4635 -2.3496 -0.2739
 4351TIP3    H237249   5.031   4.741  13.810 -1.6007 -0.8692  1.8774
 4352TIP3   OH237250   6.599   5.452  13.330 -0.5145  0.1838 -0.4395
 4352TIP3    H137251   6.510   5.487  13.330 -0.8173 -0.5800 -0.4410
 4352TIP3    H237252   6.651   5.519  13.285 -0.7900  1.3473  0.9011
 4353TIP3   OH237253   3.020   5.898  13.580  0.8123 -0.2602 -0.3802
 4353TIP3    H137254   2.949   5.954  13.548 -0.2651 -1.6656 -0.5882
 4353TIP3    H237255   3.088   5.905  13.514 -0.0823 -0.6563 -1.3709
 4354TIP3   OH237256   6.973   1.352  14.948  0.4341 -0.2727 -0.2519
 4354TIP3    H137257   6.977   1.372  15.042  0.6554 -0.9916 -0.1054
 4354TIP3    H237258   7.037   1.282  14.936  0.3110 -0.2721 -0.9221
 4355TIP3   OH237259   5.171   7.878  13.285 -0.3534 -0.4442  0.1274
 4355TIP3    H137260   5.266   7.871  13.277 -0.3961 -0.4683 -0.4554
 4355TIP3    H237261   5.149   7.829  13.364  0.0076 -1.3636 -0.3320
 4356TIP3   OH237262   1.368   3.316  15.143 -0.6191  0.5296 -0.6723
 4356TIP3    H137263   1.428   3.267  15.087  0.6844  1.2216  0.0724
 4356TIP3    H237264   1.282   3.279  15.124  0.0757 -0.7095 -1.5392
 4357TIP3   OH237265   0.724   0.830  14.697 -0.8869 -0.5379 -0.0668
 4357TIP3    H137266   0.740   0.742  14.729  1.1056 -0.9043 -1.8307
 4357TIP3    H237267   0.679   0.818  14.613  0.4223  0.0016 -0.8888
 4358TIP3   OH237268   7.199   1.385  13.107 -0.5840 -0.4839  0.4589
 4358TIP3    H137269   7.128   1.394  13.044 -1.0856 -0.0098  1.0729
 4358TIP3    H237270   7.195   1.294  13.136 -1.0346 -0.4243  0.5903
 4359TIP3   OH237271   2.671   0.486  15.139 -0.1990  0.6583 -0.4014
 4359TIP3    H137272   2.606   0.418  15.121 -0.9512  1.4812 -0.8443
 4359TIP3    H237273   2.755   0.445  15.115 -0.7688  0.3475 -2.0004
 4360TIP3   OH237274   3.414   5.416  13.602  0.2924 -0.6263  0.2719
 4360TIP3    H137275   3.391   5.508  13.617 -0.2779 -0.2924 -2.1085
 4360TIP3    H237276   3.391   5.372  13.683  1.4639  1.4548  1.8369
 4361TIP3   OH237277   3.567   8.388  14.934  0.0346  0.4493  0.0270
 4361TIP3    H137278   3.487   8.434  14.907 -0.5814 -0.1725  0.7373
 4361TIP3    H237279   3.631   8.458  14.950 -0.9000  1.0931  1.1447
 4362TIP3   OH237280   2.314   8.352  14.184 -0.5447 -0.2211 -0.0500
 4362TIP3    H137281   2.365   8.429  14.210 -1.1936  0.3138 -0.3187
 4362TIP3    H237282   2.372   8.278  14.198  0.2900  0.3727 -0.3207
 4363TIP3   OH237283   0.177   5.875  14.715  0.2154 -0.1611  0.0341
 4363TIP3    H137284   0.163   5.782  14.694  0.2081 -0.1260 -0.1198
 4363TIP3    H237285   0.203   5.914  14.631  1.3801 -0.2582  0.3308
 4364TIP3   OH237286   6.785   3.887  14.162  0.5297  0.2714  0.0049
 4364TIP3    H137287   6.837   3.960  14.128 -0.3310  0.1576 -1.6998
 4364TIP3    H237288   6.714   3.877  14.098 -1.3584  0.1687  2.0104
 4365TIP3   OH237289   7.767   1.022  13.308  0.5629  0.0372  0.5304
 4365TIP3    H137290   7.691   1.004  13.363  0.0856 -1.8711 -0.6737
 4365TIP3    H237291   7.799   1.107  13.339 -0.8156 -0.0736  2.4294
 4366TIP3   OH237292   1.750   7.068  14.208  0.1666 -0.4997 -0.2474
 4366TIP3    H137293   1.666   7.081  14.164  0.7551 -2.1163 -1.9652
 4366TIP3    H237294   1.756   6.974  14.222  1.6864 -0.4079 -0.1151
 4367TIP3   OH237295   7.461   3.646  13.108  0.1037 -0.6368  0.4685
 4367TIP3    H137296   7.472   3.673  13.017  2.3124 -0.6670  0.6759
 4367TIP3    H237297   7.427   3.557  13.103  1.9826 -1.3330 -0.3818
 4368TIP3   OH237298   4.878   3.542  14.472  1.1438 -0.8233  0.0993
 4368TIP3    H137299   4.811   3.588  14.522  2.6244  2.1469 -0.3976
 4368TIP3    H237300   4.831   3.501  14.400 -0.2643  0.4981  0.2136
 4369TIP3   OH237301   1.981   6.553  14.604  0.2879 -0.2853 -0.6223
 4369TIP3    H137302   2.009   6.642  14.583  1.1863 -0.2632  0.5364
 4369TIP3    H237303   1.939   6.521  14.524 -0.0053  1.1525 -1.0717
 4370TIP3   OH237304   7.303   0.145  14.336  0.0679 -0.1241 -0.1301
 4370TIP3    H137305   7.248   0.074  14.370 -0.1856 -0.7089 -1.6690
 4370TIP3    H237306   7.385   0.138  14.385  0.0691 -1.5389 -0.2859
 4371TIP3   OH237307   5.754   7.667  15.093  0.1023  0.3363  0.4261
 4371TIP3    H137308   5.732   7.584  15.052  1.3452 -0.2937  0.9626
 4371TIP3    H237309   5.678   7.722  15.079 -0.0918 -0.3294 -1.4218
 4372TIP3   OH237310   4.603   1.707  13.869  0.5046 -0.2926  0.6300
 4372TIP3    H137311   4.674   1.772  13.864 -1.2559  1.6818 -1.1262
 4372TIP3    H237312   4.569   1.716  13.958  0.1264  1.5082  0.3580
 4373TIP3   OH237313   4.059   1.461  14.446 -0.3009 -0.4034  0.1511
 4373TIP3    H137314   4.058   1.547  14.404 -3.7146 -0.0407  0.7103
 4373TIP3    H237315   3.967   1.441  14.463  0.3319 -4.3039 -0.1147
 4374TIP3   OH237316   7.013   1.756  13.793 -0.3829  0.5159  0.2145
 4374TIP3    H137317   6.919   1.748  13.777 -0.7292  0.6149  2.0516
 4374TIP3    H237318   7.025   1.725  13.882  0.7939  3.6674  1.2753
 4375TIP3   OH237319   5.470   1.192  13.070  0.0407  0.0862 -0.2575
 4375TIP3    H137320   5.476   1.277  13.113 -3.4061 -0.7023  2.1836
 4375TIP3    H237321   5.398   1.202  13.007  0.0610 -0.8106 -0.4442
 4376TIP3   OH237322   8.102   0.819  14.455  0.2182  0.0420  0.1105
 4376TIP3    H137323   8.088   0.794  14.364 -0.1764  0.8400 -0.0556
 4376TIP3    H237324   8.137   0.740  14.496 -0.6203 -0.6602 -0.4770
 4377TIP3   OH237325   2.963   8.176  12.829  1.0056  0.4234  0.0731
 4377TIP3    H137326   2.884   8.140  12.789  1.5212 -2.5529  1.4298
 4377TIP3    H237327   2.932   8.245  12.887 -0.7698 -1.1739  1.1507
 4378TIP3   OH237328   8.274   2.260  14.140  0.0734 -0.1865 -0.2652
 4378TIP3    H137329   8.355   2.221  14.173 -0.7201 -0.2207  1.7487
 4378TIP3    H237330   8.242   2.197  14.076  0.2402 -1.5332  0.9213
 4379TIP3   OH237331   2.731   3.716  12.992 -0.0019  0.1162 -0.6770
 4379TIP3    H137332   2.807   3.705  12.934  1.1760 -0.1403  0.8719
 4379TIP3    H237333   2.688   3.630  12.992 -0.4146  0.2999 -1.6655
 4380TIP3   OH237334   3.759   2.703  12.966 -0.1824  0.2086  0.4210
 4380TIP3    H137335   3.806   2.623  12.942 -0.0770 -0.2725  2.0972
 4380TIP3    H237336   3.827   2.761  13.000 -0.1999  1.1974 -1.1519
 4381TIP3   OH237337   3.511   8.273  15.197  0.4466 -0.6277 -0.2187
 4381TIP3    H137338   3.514   8.345  15.259  0.1117 -1.9594  1.4373
 4381TIP3    H237339   3.555   8.306  15.119  0.2607  1.3507  0.4537
 4382TIP3   OH237340   5.309   6.520  13.459  0.5645 -0.6490 -0.2052
 4382TIP3    H137341   5.229   6.518  13.407  1.1116 -0.0767 -1.0932
 4382TIP3    H237342   5.288   6.576  13.534  0.5710  0.7318 -1.2031
 4383TIP3   OH237343   0.571   7.406  14.074  0.5870  0.5293  0.3970
 4383TIP3    H137344   0.623   7.355  14.011 -1.7124 -3.3698  1.2898
 4383TIP3    H237345   0.622   7.403  14.155  0.6211 -0.1194  0.3561
 4384TIP3   OH237346   6.388   8.341  13.137  0.0889 -0.5854 -0.1359
 4384TIP3    H137347   6.353   8.289  13.065  0.0538  1.5603 -1.7725
 4384TIP3    H237348   6.482   8.344  13.121 -0.1264  1.6327 -1.4264
 4385TIP3   OH237349   3.061   0.246  13.673 -0.1306  0.4993 -0.5769
 4385TIP3    H137350   3.114   0.301  13.731 -1.1619  0.6019  0.3073
 4385TIP3    H237351   3.050   0.297  13.593  2.7495 -0.3339 -1.6126
 4386TIP3   OH237352   0.181   2.680  14.905  0.6938 -0.1506  0.2134
 4386TIP3    H137353   0.184   2.635  14.821  0.9968 -0.0281  0.1549
 4386TIP3    H237354   0.119   2.752  14.891  1.7989  0.7284 -0.3484
 4387TIP3   OH237355   7.159   4.372  14.169  0.0001  0.1057  0.1003
 4387TIP3    H137356   7.087   4.429  14.144  0.4605  1.0632  0.8806
 4387TIP3    H237357   7.159   4.373  14.265  0.3997 -0.7251  0.1207
 4388TIP3   OH237358   7.052   5.940  14.352 -0.3327  0.7315 -0.3466
 4388TIP3    H137359   7.102   5.953  14.433 -2.1089  0.2930  0.8649
 4388TIP3    H237360   7.117   5.907  14.290  0.6680 -1.0511  1.5185
 4389TIP3   OH237361   4.293   3.698  15.046 -0.1752 -0.3152  0.1335
 4389TIP3    H137362   4.204   3.727  15.068 -0.1191  0.2946 -0.4212
 4389TIP3    H237363   4.348   3.775  15.060 -0.0466 -0.0772 -1.4872
 4390TIP3   OH237364   8.364   0.800  13.558 -0.0627 -0.0613  0.0087
 4390TIP3    H137365   8.292   0.778  13.500 -1.0041  0.1600  1.0686
 4390TIP3    H237366   8.323   0.822  13.642  1.0480  2.1726  0.0588
 4391TIP3   OH237367   0.740   2.426  14.887 -0.2036 -0.1649 -0.0600
 4391TIP3    H137368   0.732   2.509  14.839  0.7750  1.0444  1.7696
 4391TIP3    H237369   0.659   2.379  14.866 -1.0918  1.5325 -0.6195
 4392TIP3   OH237370   6.865   4.987  12.886  0.0276  0.0073  0.6065
 4392TIP3    H137371   6.804   4.972  12.958 -0.6637 -1.8149 -0.2795
 4392TIP3    H237372   6.908   4.902  12.873 -1.7010 -0.5614 -2.6656
 4393TIP3   OH237373   7.679   3.566  14.544 -0.0165  0.4267  0.1251
 4393TIP3    H137374   7.770   3.536  14.547  0.0280  0.6431  1.2171
 4393TIP3    H237375   7.648   3.558  14.634 -1.2723 -0.2198 -0.3389
 4394TIP3   OH237376   2.467   5.199  12.818  0.2348  0.0345  0.2849
 4394TIP3    H137377   2.562   5.204  12.810  0.1940 -0.4229 -0.6651
 4394TIP3    H237378   2.435   5.205  12.728 -0.5829 -0.7584  0.5002
 4395TIP3   OH237379   5.097   3.634  14.622  0.3153 -0.5887 -0.5928
 4395TIP3    H137380   5.022   3.603  14.572 -0.2236 -0.9716  0.4160
 4395TIP3    H237381   5.115   3.564  14.685 -0.0004  0.4920  0.7513
 4396TIP3   OH237382   6.038   2.321  13.281 -0.8093  0.5054  0.1516
 4396TIP3    H137383   6.054   2.414  13.269  0.1208  0.4423  0.7563
 4396TIP3    H237384   6.025   2.287  13.193  0.4188  0.9485 -0.2212
 4397TIP3   OH237385   2.048   3.688  13.289 -0.1640  0.4705  0.2165
 4397TIP3    H137386   2.068   3.612  13.342  0.9318  0.3808 -0.3101
 4397TIP3    H237387   1.962   3.669  13.250 -0.8204  0.3898  1.6383
 4398TIP3   OH237388   7.869   4.546  14.630  0.0262 -0.1306 -0.1111
 4398TIP3    H137389   7.817   4.473  14.663 -0.1084 -0.2778 -0.6391
 4398TIP3    H237390   7.828   4.624  14.668  0.5082 -0.3484  0.9081
 4399TIP3   OH237391   1.157   3.125  14.830  0.7615 -0.5171  0.5967
 4399TIP3    H137392   1.178   3.136  14.737 -2.8712 -1.1828 -0.4537
 4399TIP3    H237393   1.088   3.059  14.831 -2.0379  2.1293  3.3539
 4400TIP3   OH237394   2.475   5.696  14.590  0.0166 -0.7909 -0.3021
 4400TIP3    H137395   2.420   5.689  14.512  0.3984 -0.6397 -0.5868
 4400TIP3    H237396   2.545   5.757  14.565 -0.6355  0.3605  0.6143
 4401TIP3   OH237397   2.316   2.413  13.228 -0.6870  0.2782  0.2826
 4401TIP3    H137398   2.410   2.418  13.241 -0.5306  1.5369 -1.1631
 4401TIP3    H237399   2.302   2.329  13.184 -0.2109  0.2526  0.1796
 4402TIP3   OH237400   1.942   5.650  13.658  0.1907  0.0271 -0.5499
 4402TIP3    H137401   1.877   5.640  13.588 -0.1485  0.1279 -0.2551
 4402TIP3    H237402   1.968   5.560  13.679 -0.8655 -0.1165  0.2551
 4403TIP3   OH237403   5.891   6.453  14.473 -0.4059 -0.2338 -0.0246
 4403TIP3    H137404   5.939   6.404  14.407 -0.4384  0.1129 -0.3065
 4403TIP3    H237405   5.958   6.494  14.527 -0.3706 -0.8893  0.4506
 4404TIP3   OH237406   4.569   5.092  14.398  0.5281  0.3841 -0.0496
 4404TIP3    H137407   4.533   5.004  14.403  1.6783 -0.0678  0.6889
 4404TIP3    H237408   4.603   5.109  14.487  1.7611  0.9285 -0.5973
 4405TIP3   OH237409   4.550   3.908  13.097  0.4001 -0.1655 -0.1455
 4405TIP3    H137410   4.607   3.859  13.037 -0.6083  0.1305 -1.4033
 4405TIP3    H237411   4.583   3.998  13.093  0.4448 -0.1807 -0.1188
 4406TIP3   OH237412   3.058   2.212  14.186  0.6088 -0.5513  0.0986
 4406TIP3    H137413   3.008   2.290  14.210 -1.5870 -2.1242  0.9607
 4406TIP3    H237414   3.149   2.241  14.187 -0.2171  2.6141 -2.0836
 4407TIP3   OH237415   7.547   0.801  14.392 -0.0705 -0.1914  0.2081
 4407TIP3    H137416   7.548   0.715  14.350 -0.5629 -0.5858  0.9770
 4407TIP3    H237417   7.637   0.815  14.422  0.0970 -0.2612 -0.2593
 4408TIP3   OH237418   6.521   5.242  15.051  0.0913 -0.1489 -0.6266
 4408TIP3    H137419   6.458   5.254  15.121  1.5429 -0.8560  0.8525
 4408TIP3    H237420   6.467   5.233  14.972 -1.6395 -0.6283  0.5514
 4409TIP3   OH237421   1.157   3.508  14.584  0.1381 -0.3451 -0.2121
 4409TIP3    H137422   1.251   3.521  14.587 -0.0133  0.9778  2.8146
 4409TIP3    H237423   1.145   3.414  14.597  1.0491 -0.4878 -0.3408
 4410TIP3   OH237424   7.792   3.691  13.543  0.3494  0.4451  0.1834
 4410TIP3    H137425   7.885   3.711  13.545  0.2582  0.8756  0.1887
 4410TIP3    H237426   7.753   3.760  13.488  0.2983 -0.8325 -1.4773
 4411TIP3   OH237427   5.294   4.522  13.845 -0.2891 -0.3461  0.5415
 4411TIP3    H137428   5.235   4.596  13.838  0.2224 -0.0739 -1.5866
 4411TIP3    H237429   5.344   4.538  13.926 -1.2814  0.7639  0.9580
 4412TIP3   OH237430   0.436   3.508  14.800  0.1977  0.3343 -0.0750
 4412TIP3    H137431   0.362   3.566  14.784  0.4300  1.1474  1.5966
 4412TIP3    H237432   0.400   3.434  14.849 -0.1547 -1.1944 -2.4474
 4413TIP3   OH237433   1.099   5.484  12.877  0.3124  0.2636 -0.1712
 4413TIP3    H137434   1.054   5.525  12.803 -2.2246 -2.1288 -0.0975
 4413TIP3    H237435   1.187   5.466  12.844  0.3347  2.2822 -1.4014
 4414TIP3   OH237436   3.348   5.327  14.637 -0.0568  0.4719 -0.4419
 4414TIP3    H137437   3.403   5.403  14.617  0.2505 -0.2541 -2.6088
 4414TIP3    H237438   3.299   5.311  14.556 -0.9308 -0.9680  0.3331
 4415TIP3   OH237439   2.040   1.056  14.853  0.0845  0.5214 -0.1257
 4415TIP3    H137440   2.013   0.966  14.872 -0.3027  0.4249 -1.0855
 4415TIP3    H237441   1.958   1.102  14.834  0.1435  1.3921  1.5018
 4416TIP3   OH237442   4.520   5.752  13.811  0.0433 -0.0785  0.2290
 4416TIP3    H137443   4.548   5.789  13.728  0.1108  0.1239  0.3414
 4416TIP3    H237444   4.520   5.826  13.872 -1.2165  0.0348  0.1239
 4417TIP3   OH237445   0.467   6.019  14.922 -0.0722 -0.0206  0.1264
 4417TIP3    H137446   0.482   6.036  14.829  0.2801 -1.1258 -0.0366
 4417TIP3    H237447   0.374   6.040  14.935  0.0055  0.6544 -0.3470
 4418TIP3   OH237448   5.627   1.988  13.647 -0.0335  0.8483 -0.2088
 4418TIP3    H137449   5.687   2.020  13.715 -0.4818  1.2619 -0.0004
 4418TIP3    H237450   5.560   2.056  13.641  0.6030  1.3809 -1.8660
 4419TIP3   OH237451   4.687   5.195  15.156  0.2873 -0.4938 -0.0329
 4419TIP3    H137452   4.597   5.193  15.123  0.3871 -0.2016 -0.3339
 4419TIP3    H237453   4.683   5.150  15.240 -0.4912  1.1451  0.8389
 4420TIP3   OH237454   4.219   1.274  13.423 -0.0622 -0.0522 -0.3172
 4420TIP3    H137455   4.313   1.261  13.408  0.1441  1.5465 -0.5175
 4420TIP3    H237456   4.191   1.193  13.466  1.3030 -0.7483 -0.6628
 4421TIP3   OH237457   2.104   7.273  13.264 -0.1895 -0.2704 -0.2419
 4421TIP3    H137458   2.172   7.334  13.236  0.2959 -0.8565 -0.3610
 4421TIP3    H237459   2.091   7.216  13.188 -0.6798 -0.2833 -0.1504
 4422TIP3   OH237460   3.146   1.210  13.945  0.0347 -0.3270 -0.2038
 4422TIP3    H137461   3.128   1.304  13.945 -1.2862 -0.5392 -1.5072
 4422TIP3    H237462   3.197   1.196  14.025  1.5967  1.7111 -0.7325
 4423TIP3   OH237463   8.043   0.321  14.073  0.1864  0.4490  0.4720
 4423TIP3    H137464   8.133   0.295  14.053  0.1842 -0.6663  1.7693
 4423TIP3    H237465   7.993   0.298  13.995  0.5078 -1.9091  0.8954
 4424TIP3   OH237466   2.337   5.187  12.538  0.7251  0.1222  0.3550
 4424TIP3    H137467   2.370   5.226  12.457  0.7553 -0.4544  0.0838
 4424TIP3    H237468   2.385   5.105  12.546 -0.0665 -0.3546  0.3724
 4425TIP3   OH237469   5.761   3.067  14.889  0.0005  0.1281 -0.0902
 4425TIP3    H137470   5.690   3.004  14.901 -0.8722  0.8568 -1.2081
 4425TIP3    H237471   5.841   3.016  14.903 -0.7127 -0.6938  1.2658
 4426TIP3   OH237472   1.337   6.509  14.089  0.0332 -0.3358  0.2084
 4426TIP3    H137473   1.245   6.519  14.111  0.6068 -0.1265  2.8500
 4426TIP3    H237474   1.362   6.592  14.048 -1.1129 -0.7034 -1.2799
 4427TIP3   OH237475   5.819   6.723  14.098  0.1291  1.0650 -0.1934
 4427TIP3    H137476   5.894   6.774  14.128  1.8564 -0.8072 -1.0753
 4427TIP3    H237477   5.800   6.756  14.011  0.2452  1.2242 -0.1581
 4428TIP3   OH237478   0.009   7.868  13.646 -0.2201  0.3842 -0.5307
 4428TIP3    H137479  -0.045   7.840  13.719  0.7362 -0.2406 -0.0350
 4428TIP3    H237480   0.003   7.963  13.645 -0.2675  0.3905  0.3416
 4429TIP3   OH237481   4.557   1.404  13.322  0.6551  0.5148 -0.2876
 4429TIP3    H137482   4.607   1.371  13.248 -0.3808 -0.7222 -0.4682
 4429TIP3    H237483   4.602   1.369  13.399  1.6887  1.7433 -0.2995
 4430TIP3   OH237484   4.953   1.949  13.631  0.3146 -0.3257  0.0822
 4430TIP3    H137485   4.926   2.039  13.648  0.5143 -0.2302 -0.0993
 4430TIP3    H237486   5.041   1.956  13.594  0.3262 -0.5937  0.0498
 4431TIP3   OH237487   1.807   5.360  12.989 -0.5981  0.1003  0.1133
 4431TIP3    H137488   1.823   5.301  13.063 -1.2523  0.2296  0.3648
 4431TIP3    H237489   1.882   5.347  12.932 -0.8677 -1.1931  0.0217
 4432TIP3   OH237490   7.743   0.995  14.209  0.8642 -0.2412  0.4884
 4432TIP3    H137491   7.697   0.941  14.144  0.4522  1.0730 -0.3524
 4432TIP3    H237492   7.689   0.988  14.287  0.8181 -1.0402  0.3937
 4433TIP3   OH237493   5.754   1.142  12.615 -0.1642 -0.2489  0.3501
 4433TIP3    H137494   5.841   1.113  12.639 -0.4978 -1.3624  0.2895
 4433TIP3    H237495   5.749   1.233  12.645  0.9497 -0.2230  0.4861
 4434TIP3   OH237496   6.741   0.685  14.307  0.1205 -0.1316 -0.4984
 4434TIP3    H137497   6.744   0.763  14.253 -0.1746 -0.1683 -0.5735
 4434TIP3    H237498   6.683   0.625  14.260  0.3176 -0.3813 -0.4239
 4435TIP3   OH237499   4.732   6.690  13.257  0.5992  0.0105  0.4638
 4435TIP3    H137500   4.652   6.639  13.242  0.8126  0.0660 -1.0092
 4435TIP3    H237501   4.711   6.746  13.332  0.3237 -2.1331  2.1072
 4436TIP3   OH237502   3.003   3.760  13.497 -0.0153  0.2521  0.5869
 4436TIP3    H137503   3.061   3.791  13.567 -1.3713  0.3508  1.7113
 4436TIP3    H237504   3.035   3.672  13.477  0.9357  0.5592  0.7085
 4437TIP3   OH237505   6.355   1.627  12.619  0.1385 -0.3980  0.3132
 4437TIP3    H137506   6.267   1.638  12.656  0.3850 -1.1361  1.1492
 4437TIP3    H237507   6.389   1.548  12.661  0.6003 -1.0352 -1.2037
 4438TIP3   OH237508   4.435   2.979  14.971 -0.0781  0.0796  0.0808
 4438TIP3    H137509   4.406   2.910  14.911 -0.2512  0.8691 -0.7558
 4438TIP3    H237510   4.394   3.059  14.939  0.4003  0.6465  0.8281
 4439TIP3   OH237511   3.515   1.399  14.719  0.0420  0.0693 -0.3639
 4439TIP3    H137512   3.567   1.319  14.711 -1.8584 -1.2739  0.0977
 4439TIP3    H237513   3.534   1.432  14.807  0.6871  0.0376 -0.4879
 4440TIP3   OH237514   6.447   5.202  14.171 -0.1198  0.3714 -0.4013
 4440TIP3    H137515   6.363   5.197  14.125 -0.4237 -0.2872  0.2032
 4440TIP3    H237516   6.510   5.226  14.104 -0.3502 -1.6819 -1.4421
 4441TIP3   OH237517   5.349   0.110  13.866  0.1895  0.4538 -0.3991
 4441TIP3    H137518   5.349   0.164  13.944 -0.6411 -0.4147  0.2292
 4441TIP3    H237519   5.442   0.091  13.850  0.4759  1.8287 -0.5011
 4442TIP3   OH237520   3.780   5.398  12.984  0.4295 -0.3630  0.1863
 4442TIP3    H137521   3.696   5.369  12.950  0.5616 -0.6262  0.0782
 4442TIP3    H237522   3.841   5.329  12.959  0.7258 -0.0524  0.0409
 4443TIP3   OH237523   3.489   5.762  14.424 -0.1627 -0.2311 -0.1706
 4443TIP3    H137524   3.483   5.858  14.424 -1.5818 -0.2758 -1.1415
 4443TIP3    H237525   3.548   5.742  14.351 -2.1475 -0.1043 -1.9295
 4444TIP3   OH237526   0.334   2.767  13.533  0.0985  0.2901  0.1360
 4444TIP3    H137527   0.241   2.771  13.512  0.2327  1.3003 -0.3599
 4444TIP3    H237528   0.351   2.847  13.583  1.1351  1.3228 -1.7494
 4445TIP3   OH237529   1.406   7.829  13.586 -0.0842  0.6440  0.3287
 4445TIP3    H137530   1.325   7.832  13.537  0.4826 -2.7578 -1.1579
 4445TIP3    H237531   1.474   7.852  13.522  0.3775 -0.1177  0.5317
 4446TIP3   OH237532   6.230   5.179  13.694  0.2281  0.1863  0.1546
 4446TIP3    H137533   6.286   5.123  13.748 -1.9229 -0.0879  2.2396
 4446TIP3    H237534   6.292   5.236  13.648  2.2424 -0.4910  1.8546
 4447TIP3   OH237535   8.257   4.898  13.091  0.0045  0.4701  0.0079
 4447TIP3    H137536   8.184   4.958  13.107 -0.4273 -0.3410  1.2215
 4447TIP3    H237537   8.301   4.934  13.014 -0.9376  1.6700 -0.0024
 4448TIP3   OH237538   4.286   0.736  13.512  0.3333  0.3453  1.0639
 4448TIP3    H137539   4.372   0.735  13.470  0.5879  0.5408  1.5659
 4448TIP3    H237540   4.294   0.675  13.585 -0.0013  0.2546  1.0263
 4449TIP3   OH237541   1.474   1.619  14.370  0.4027 -0.3261  0.0077
 4449TIP3    H137542   1.538   1.665  14.315 -0.6510 -0.4903 -1.4093
 4449TIP3    H237543   1.482   1.527  14.343 -0.4246 -0.3418 -0.1928
 4450TIP3   OH237544   7.256   2.273  14.610 -0.3822  0.5797 -0.5961
 4450TIP3    H137545   7.169   2.290  14.574 -0.4731  0.3532 -0.4829
 4450TIP3    H237546   7.316   2.288  14.536 -0.4646  1.3040 -0.5191
 4451TIP3   OH237547   4.276   3.057  13.721  0.2685  0.2787  0.3810
 4451TIP3    H137548   4.266   3.066  13.626  3.0402 -0.4276 -0.0663
 4451TIP3    H237549   4.241   2.970  13.742  0.3819  0.1132 -0.1195
 4452TIP3   OH237550   0.355   8.227  14.621  0.2510  0.5483 -0.0110
 4452TIP3    H137551   0.320   8.214  14.709 -1.0154  3.0013 -0.0488
 4452TIP3    H237552   0.421   8.295  14.633  2.4309 -1.3650 -0.5408
 4453TIP3   OH237553   1.079   2.357  13.179 -0.4110  0.2145 -0.1840
 4453TIP3    H137554   1.146   2.296  13.148 -0.6006  0.2745 -0.7189
 4453TIP3    H237555   1.060   2.413  13.104 -1.1310  0.1320 -0.0722
 4454TIP3   OH237556   4.752   4.362  14.357 -0.5819 -0.1602  0.0431
 4454TIP3    H137557   4.664   4.389  14.384 -1.6905 -3.1326 -0.1297
 4454TIP3    H237558   4.811   4.410  14.415 -2.4219  0.7326  1.2674
 4455TIP3   OH237559   7.991   4.910  14.655  0.1027  0.5621 -0.2309
 4455TIP3    H137560   8.079   4.885  14.682 -0.7318 -0.6178  1.6042
 4455TIP3    H237561   7.973   4.857  14.577  0.9884  0.8279 -0.6258
 4456TIP3   OH237562   7.566   7.009  14.806  0.2577 -0.1496  0.1846
 4456TIP3    H137563   7.473   6.996  14.824  0.0382 -1.5246 -1.5996
 4456TIP3    H237564   7.573   7.100  14.778 -0.5435 -0.0330  0.3371
 4457TIP3   OH237565   8.024   0.763  14.905  0.1976 -0.1635  0.1301
 4457TIP3    H137566   8.062   0.802  14.826 -1.3649  1.5009  0.1432
 4457TIP3    H237567   8.055   0.819  14.976  0.1887 -0.6253  0.5024
 4458TIP3   OH237568   0.728   7.434  14.511  0.1595 -0.0019  0.0735
 4458TIP3    H137569   0.724   7.401  14.421  0.5597  2.2798 -0.8584
 4458TIP3    H237570   0.655   7.392  14.555 -0.7866 -0.2658 -1.6547
 4459TIP3   OH237571   0.564   6.354  15.035  0.6164 -0.1562 -0.3672
 4459TIP3    H137572   0.635   6.290  15.029 -0.3245 -1.2123 -0.4455
 4459TIP3    H237573   0.603   6.435  15.001  1.7738 -0.7107 -0.4416
 4460TIP3   OH237574   7.214   2.968  12.765  0.6210 -0.3470  0.7211
 4460TIP3    H137575   7.231   2.881  12.729  0.4355  0.9340 -2.7991
 4460TIP3    H237576   7.299   2.999  12.795  1.0179 -1.0629  0.3547
 4461TIP3   OH237577   7.118   0.252  13.071 -0.8392  0.6896 -0.2712
 4461TIP3    H137578   7.199   0.250  13.122 -1.9227 -0.7350  1.5072
 4461TIP3    H237579   7.090   0.344  13.075  0.9087  1.3176 -1.3686
 4462TIP3   OH237580   5.108   1.888  14.793  0.4380  0.1302  0.2131
 4462TIP3    H137581   5.159   1.938  14.856 -2.4997  0.9880  2.1344
 4462TIP3    H237582   5.023   1.875  14.836 -1.0894 -0.9351 -2.8375
 4463TIP3   OH237583   5.151   7.002  14.890  0.0392  0.0964 -0.4292
 4463TIP3    H137584   5.124   7.014  14.981  1.1359  1.9382 -0.2816
 4463TIP3    H237585   5.095   7.062  14.841  0.7672  0.5889 -0.6848
 4464TIP3   OH237586   0.412   8.422  14.193  0.1392  0.2991  0.2220
 4464TIP3    H137587   0.501   8.453  14.213  0.8338 -0.6615 -1.2050
 4464TIP3    H237588   0.424   8.329  14.174 -1.0475  0.3428 -0.8300
 4465TIP3   OH237589   8.382   2.551  14.959  0.4683  0.2260  0.2884
 4465TIP3    H137590   8.293   2.537  14.992  0.7277  3.5480  2.8390
 4465TIP3    H237591   8.373   2.546  14.863 -2.2534 -0.3059  0.4895
 4466TIP3   OH237592   0.619   8.076  13.601  0.5811 -0.3399  0.4898
 4466TIP3    H137593   0.698   8.078  13.545 -0.3705  0.1412 -0.8947
 4466TIP3    H237594   0.633   8.002  13.659  2.1348 -0.1651  0.3873
 4467TIP3   OH237595   3.214   4.684  14.552  0.2871  0.0902 -0.0772
 4467TIP3    H137596   3.162   4.723  14.622  1.9371  2.3434  0.0438
 4467TIP3    H237597   3.178   4.596  14.541 -1.1843  0.2733  2.3609
 4468TIP3   OH237598   4.230   7.299  14.183 -0.2276  0.4704  0.0402
 4468TIP3    H137599   4.286   7.362  14.230 -0.4486 -0.3534  1.4617
 4468TIP3    H237600   4.141   7.324  14.206 -0.4078  0.8577 -1.0225
 4469TIP3   OH237601   2.850   3.366  14.546  0.1342  0.4268 -0.1677
 4469TIP3    H137602   2.763   3.335  14.521 -0.2812  1.9599 -0.7322
 4469TIP3    H237603   2.892   3.390  14.463  0.9831 -0.0048  0.1270
 4470TIP3   OH237604   1.461   5.073  14.753  0.9865 -0.4752  0.2990
 4470TIP3    H137605   1.533   5.091  14.813  0.3381 -0.2897  1.0457
 4470TIP3    H237606   1.422   4.992  14.786  1.0384 -0.7414 -0.2830
 4471TIP3   OH237607   7.972   1.645  14.646 -0.4175  0.1196 -0.1073
 4471TIP3    H137608   8.001   1.644  14.737 -0.6157  0.3721 -0.0396
 4471TIP3    H237609   7.877   1.634  14.650 -0.5414  1.0641 -0.2287
 4472TIP3   OH237610   1.503   7.707  14.231 -0.0355 -0.1153 -0.1961
 4472TIP3    H137611   1.471   7.797  14.235 -0.8509 -0.3270 -1.3188
 4472TIP3    H237612   1.424   7.653  14.241  0.0003 -0.6541 -2.3283
 4473TIP3   OH237613   2.726   4.076  13.479  0.1194  0.7487  0.6383
 4473TIP3    H137614   2.638   4.113  13.490 -1.3710 -2.5225  1.0818
 4473TIP3    H237615   2.732   4.055  13.386  0.7592  1.6544  0.4688
 4474TIP3   OH237616   6.599   2.938  13.773  0.3825 -0.7495 -0.1847
 4474TIP3    H137617   6.559   2.891  13.846  1.0331 -0.1179  0.6015
 4474TIP3    H237618   6.690   2.907  13.771 -0.0191 -1.9853 -1.7955
 4475TIP3   OH237619   6.223   4.993  15.122 -0.1757 -0.0555  0.2237
 4475TIP3    H137620   6.256   5.075  15.159  0.9641 -0.7615  0.8324
 4475TIP3    H237621   6.133   5.013  15.096 -0.7494  0.7648  2.5644
 4476TIP3   OH237622   0.432   6.903  13.504 -0.6142 -0.1601 -0.0698
 4476TIP3    H137623   0.440   6.994  13.475 -0.2638 -0.7333 -1.8997
 4476TIP3    H237624   0.517   6.863  13.484 -1.2847 -1.2774 -0.8476
 4477TIP3   OH237625   6.300   3.006  14.476 -0.2882 -0.3868  0.2707
 4477TIP3    H137626   6.219   3.009  14.425 -0.5314 -1.0062  0.6066
 4477TIP3    H237627   6.360   2.953  14.424 -0.4158 -0.7165  0.4565
 4478TIP3   OH237628   6.078   3.336  13.574 -0.0180  0.0478  0.2320
 4478TIP3    H137629   6.173   3.330  13.581 -0.0707 -2.4821 -0.2403
 4478TIP3    H237630   6.058   3.293  13.491 -1.6547 -0.6111  0.9275
 4479TIP3   OH237631   1.365   1.184  14.500  0.0947  0.3072 -0.6272
 4479TIP3    H137632   1.282   1.138  14.486  0.1324  0.1608 -0.3731
 4479TIP3    H237633   1.372   1.192  14.596 -0.2373  1.4210 -0.6704
 4480TIP3   OH237634   6.458   8.296  15.462  0.3932  0.4625 -0.1183
 4480TIP3    H137635   6.415   8.273  15.380 -0.6011 -1.0048  0.7585
 4480TIP3    H237636   6.510   8.218  15.484  0.9480  0.9858  0.4568
 4481TIP3   OH237637   5.512   8.039  13.683 -0.5674  0.1589  0.2097
 4481TIP3    H137638   5.430   8.039  13.633 -0.1299  0.6370 -0.5166
 4481TIP3    H237639   5.497   8.101  13.754  0.0178  2.2455 -1.3905
 4482TIP3   OH237640   4.973   5.038  13.905  0.7483  0.4450  0.0716
 4482TIP3    H137641   4.948   4.998  13.822  1.4854  0.1933 -0.0446
 4482TIP3    H237642   4.973   4.965  13.967  2.2126  0.2134 -0.1654
 4483TIP3   OH237643   6.990   3.844  13.781 -0.5619 -0.1369 -0.4647
 4483TIP3    H137644   6.910   3.816  13.737 -1.3832  0.5061  0.5656
 4483TIP3    H237645   7.021   3.767  13.828 -0.9761 -0.2011 -0.2953
 4484TIP3   OH237646   4.808   4.077  13.744 -0.3319 -0.3415  0.1946
 4484TIP3    H137647   4.840   3.991  13.772 -1.3399 -0.4942  0.9749
 4484TIP3    H237648   4.812   4.131  13.823 -3.4101 -0.8267  0.8180
 4485TIP3   OH237649   1.227   1.828  14.808 -0.2568 -0.3385 -0.1416
 4485TIP3    H137650   1.224   1.852  14.900  0.1790 -0.3088 -0.1357
 4485TIP3    H237651   1.231   1.732  14.808 -2.0213 -0.4506 -0.1661
 4486TIP3   OH237652   8.073   0.062  13.569 -0.2388 -0.3082 -0.7702
 4486TIP3    H137653   8.119  -0.019  13.591  0.9286  0.4887 -0.1750
 4486TIP3    H237654   8.085   0.117  13.646  0.4001  1.0243 -1.7856
 4487TIP3   OH237655   1.249   5.942  15.041 -0.4713 -0.1764  0.1106
 4487TIP3    H137656   1.251   5.888  15.120 -0.6031 -2.2085 -1.2170
 4487TIP3    H237657   1.267   5.881  14.969  2.8817  2.0881 -1.2310
 4488TIP3   OH237658   1.260   6.105  14.165  0.1318 -0.1477 -0.2812
 4488TIP3    H137659   1.327   6.156  14.120 -0.0065  0.8694  0.6156
 4488TIP3    H237660   1.306   6.063  14.238 -0.2384  0.8114  0.5291
 4489TIP3   OH237661   1.203   4.232  14.076  0.2347  0.6011  0.7385
 4489TIP3    H137662   1.209   4.174  14.000  2.2870  1.6087  0.0365
 4489TIP3    H237663   1.117   4.274  14.067  0.1704  0.2225 -0.6941
 4490TIP3   OH237664   6.374   7.093  13.799  0.3672 -0.1615 -0.5837
 4490TIP3    H137665   6.388   7.010  13.845 -0.3639 -1.0783 -1.9628
 4490TIP3    H237666   6.293   7.080  13.750  0.2169  1.3990 -0.7836
 4491TIP3   OH237667   0.972   1.909  14.273  0.0199 -0.3674  0.8193
 4491TIP3    H137668   0.965   1.901  14.178 -1.4117  1.1933  0.7497
 4491TIP3    H237669   1.063   1.935  14.289  0.1157 -0.0602 -0.1784
 4492TIP3   OH237670   6.950   5.099  13.184  0.3759  0.4631  0.4295
 4492TIP3    H137671   7.003   5.149  13.246 -1.7139  4.4869 -0.7180
 4492TIP3    H237672   6.991   5.113  13.099 -0.0456 -0.1219  0.1155
 4493TIP3   OH237673   4.353   2.486  14.319  0.1373  0.3889  0.6016
 4493TIP3    H137674   4.407   2.407  14.311 -0.4821 -0.1104  1.2321
 4493TIP3    H237675   4.309   2.476  14.403 -1.5527  0.4012 -0.2472
 4494TIP3   OH237676   3.682   2.384  14.202  0.1454  0.2226  0.6596
 4494TIP3    H137677   3.708   2.373  14.110 -1.4722 -0.4259  0.2396
 4494TIP3    H237678   3.655   2.296  14.229  0.9339  0.3393  1.8871
 4495TIP3   OH237679   3.328   2.621  13.875 -0.4581 -0.0402 -0.0874
 4495TIP3    H137680   3.388   2.674  13.927 -2.0339 -0.1115  1.9148
 4495TIP3    H237681   3.258   2.682  13.849 -1.3072 -0.6817  0.6276
 4496TIP3   OH237682   5.031   0.878  13.476  0.2971 -0.2257  0.3933
 4496TIP3    H137683   5.115   0.840  13.449  0.5722  0.3290  0.4504
 4496TIP3    H237684   4.991   0.810  13.531  0.4254 -0.7466 -0.1433
 4497TIP3   OH237685   0.961   2.882  13.273  0.4738  0.4974 -0.5767
 4497TIP3    H137686   0.870   2.854  13.277  0.1353  1.5761 -0.3909
 4497TIP3    H237687   0.997   2.837  13.197 -0.4382  0.6748 -1.1252
 4498TIP3   OH237688   3.144   2.706  14.161  0.5574  0.1770 -0.0031
 4498TIP3    H137689   3.175   2.795  14.145  1.0066 -0.0770 -0.5978
 4498TIP3    H237690   3.125   2.703  14.255  1.0254  0.7528  0.1146
 4499TIP3   OH237691   7.807   5.644  13.224 -0.1029  0.2228 -0.3999
 4499TIP3    H137692   7.757   5.687  13.293  0.8884  0.8069 -0.0113
 4499TIP3    H237693   7.788   5.551  13.234 -2.3131  0.5296 -1.2776
 4500TIP3   OH237694   1.065   3.316  15.003 -0.0005  0.7200 -0.0353
 4500TIP3    H137695   1.014   3.250  15.051 -0.9250  1.4095 -0.0269
 4500TIP3    H237696   1.067   3.284  14.913  1.4540 -0.4134  0.3612
 4501TIP3   OH237697   0.013   6.145  14.748 -0.1094 -0.2594 -0.0530
 4501TIP3    H137698  -0.071   6.172  14.785  0.4028  0.1213  0.8716
 4501TIP3    H237699  -0.008   6.110  14.661 -1.0641  1.0021 -0.3433
 4502TIP3   OH237700   2.317   2.386  15.040 -0.3068 -0.1056  0.5715
 4502TIP3    H137701   2.223   2.393  15.055 -0.6555  0.7663 -1.6951
 4502TIP3    H237702   2.356   2.447  15.104 -1.4039  0.7012  0.4940
 4503TIP3   OH237703   2.959   5.258  14.618 -0.1672  0.3401 -0.1628
 4503TIP3    H137704   2.998   5.341  14.645  0.1228 -0.0302  0.5800
 4503TIP3    H237705   3.033   5.206  14.585 -0.7299  1.4844 -3.6949
 4504TIP3   OH237706   0.235   7.294  14.858 -0.4025 -0.6538  0.6012
 4504TIP3    H137707   0.151   7.278  14.902 -0.3384  0.4361  1.1396
 4504TIP3    H237708   0.231   7.385  14.831  1.1519 -0.1914  1.8366
 4505TIP3   OH237709   4.004   4.723  13.853  0.0082  0.2813  0.1564
 4505TIP3    H137710   3.927   4.780  13.847 -0.8279 -0.9039 -0.9577
 4505TIP3    H237711   4.036   4.717  13.763  0.6035 -0.2937  0.4014
 4506TIP3   OH237712   6.242   6.356  14.592 -0.6174  0.2207  0.1390
 4506TIP3    H137713   6.238   6.403  14.508  1.1437  0.1210 -0.0435
 4506TIP3    H237714   6.212   6.267  14.571  1.2604 -0.2460 -0.7724
 4507TIP3   OH237715   1.355   4.298  13.061  0.0065  0.2747 -0.1812
 4507TIP3    H137716   1.422   4.294  13.130 -0.9441 -1.4533  0.7245
 4507TIP3    H237717   1.382   4.231  12.998 -0.7391 -0.3054  0.0994
 4508TIP3   OH237718   7.292   1.070  12.771  0.2760 -0.0790  0.9218
 4508TIP3    H137719   7.238   1.110  12.839 -1.2662 -0.3316 -0.0950
 4508TIP3    H237720   7.236   1.069  12.694  2.2012  0.9035 -0.6051
 4509TIP3   OH237721   7.256   4.565  15.010  0.0829 -0.1501 -0.0433
 4509TIP3    H137722   7.175   4.569  14.960  0.5778  2.1398 -0.7743
 4509TIP3    H237723   7.317   4.621  14.963  1.8123 -1.0293  1.0237
 4510TIP3   OH237724   7.144   2.034  13.962  0.5326  0.5154  0.1106
 4510TIP3    H137725   7.152   2.028  13.867 -0.1374  0.4461  0.0557
 4510TIP3    H237726   7.072   2.095  13.977 -1.4007 -1.7015  0.5044
 4511TIP3   OH237727   6.068   0.749  13.037  0.0367  0.0045  0.2061
 4511TIP3    H137728   6.139   0.688  13.017  1.2831  1.1907  0.8957
 4511TIP3    H237729   6.070   0.813  12.965 -0.6393 -0.1985 -0.0053
 4512TIP3   OH237730   2.124   0.340  13.955  0.0355  0.4987 -0.1446
 4512TIP3    H137731   2.164   0.302  13.877 -3.6607 -0.5895 -1.7672
 4512TIP3    H237732   2.130   0.434  13.942  0.8456  0.3461 -0.9583
 4513TIP3   OH237733   0.275   8.008  14.492 -0.6596  0.7356  0.0344
 4513TIP3    H137734   0.326   8.086  14.515  0.0502  0.5309 -0.8033
 4513TIP3    H237735   0.290   7.948  14.565  1.6449  0.0603 -0.9028
 4514TIP3   OH237736   5.735   0.098  13.398  0.1276  0.5198 -0.1673
 4514TIP3    H137737   5.724   0.188  13.426  0.6638  0.2058  1.1227
 4514TIP3    H237738   5.659   0.052  13.433  1.3871 -0.1094  1.9331
 4515TIP3   OH237739   5.111   0.097  13.720  0.1404 -0.3222  0.7519
 4515TIP3    H137740   5.041   0.126  13.779 -0.3582  0.2589 -0.0989
 4515TIP3    H237741   5.191   0.104  13.772 -0.4408 -1.1094  1.7763
 4516TIP3   OH237742   3.377   3.645  12.956  0.1523  0.6923 -0.1651
 4516TIP3    H137743   3.435   3.699  13.009 -0.1845 -0.2771  1.2423
 4516TIP3    H237744   3.386   3.557  12.993  0.9855 -0.3560 -2.6125
 4517TIP3   OH237745   1.926   3.284  13.988 -0.0536  0.1962  0.4370
 4517TIP3    H137746   1.856   3.271  13.924 -0.3693  1.5059  0.4941
 4517TIP3    H237747   1.986   3.346  13.947  1.1773 -1.0322  0.3319
 4518TIP3   OH237748   6.209   1.331  14.422 -0.0655 -0.6800  0.2838
 4518TIP3    H137749   6.207   1.374  14.337 -1.7783  1.2108  1.1782
 4518TIP3    H237750   6.282   1.371  14.468  0.5961 -1.3951 -0.1282
 4519TIP3   OH237751   8.307   4.084  14.407 -0.2198  0.1048 -0.2102
 4519TIP3    H137752   8.294   4.089  14.312 -1.2251 -0.1717 -0.0945
 4519TIP3    H237753   8.219   4.091  14.444 -0.0281 -1.4448  0.6317
 4520TIP3   OH237754   5.396   1.364  14.339  0.0604  0.8843 -0.4795
 4520TIP3    H137755   5.487   1.387  14.319  0.1884  0.4470 -0.4041
 4520TIP3    H237756   5.398   1.270  14.356 -0.2353  1.0415  0.4910
 4521TIP3   OH237757   8.084   7.947  14.163  0.3677  0.0301  0.2064
 4521TIP3    H137758   8.151   7.893  14.207 -0.1619  0.1334  1.1685
 4521TIP3    H237759   8.119   7.962  14.075  0.8531 -1.2873  0.1584
 4522TIP3   OH237760   6.553   2.937  14.288  0.1844  0.1950 -0.4405
 4522TIP3    H137761   6.592   2.910  14.371 -1.6936  0.4391  0.5565
 4522TIP3    H237762   6.559   2.859  14.233 -1.4858 -1.0471  1.0388
 4523TIP3   OH237763   2.429   3.644  13.409 -0.9580  0.1478 -0.0854
 4523TIP3    H137764   2.490   3.662  13.480 -2.5057 -0.0744  1.3682
 4523TIP3    H237765   2.461   3.696  13.335 -0.3227  1.8607  1.3247
 4524TIP3   OH237766   6.770   6.960  15.050 -0.3486  0.1981 -0.8046
 4524TIP3    H137767   6.792   6.882  15.099  0.4060  1.3030  0.6959
 4524TIP3    H237768   6.675   6.957  15.040 -0.4979 -0.1826  0.5422
 4525TIP3   OH237769   3.977   5.415  14.071 -0.2761 -0.2238  0.5025
 4525TIP3    H137770   4.017   5.344  14.121 -0.2685 -1.2880 -0.9412
 4525TIP3    H237771   3.895   5.435  14.117 -0.8681 -2.0099  0.2959
 4526TIP3   OH237772   7.051   4.589  14.805 -0.7154  0.2412 -0.2619
 4526TIP3    H137773   7.069   4.498  14.780  0.7017  0.9139 -1.9053
 4526TIP3    H237774   7.079   4.641  14.729 -1.5046  2.0588  0.6217
 4527TIP3   OH237775   1.422   0.114  13.327  0.2564 -0.0422  0.8136
 4527TIP3    H137776   1.328   0.112  13.311  0.0061  1.6614  1.8021
 4527TIP3    H237777   1.459   0.159  13.251  0.5482 -2.3692 -0.4901
 4528TIP3   OH237778   8.220   2.935  14.719 -0.4110 -0.4472 -0.0579
 4528TIP3    H137779   8.174   2.962  14.640  0.2141  0.2693 -0.1917
 4528TIP3    H237780   8.189   2.846  14.735 -2.7570  0.4112  0.5702
 4529TIP3   OH237781   7.582   4.424  12.811  0.7398 -0.0442  0.1718
 4529TIP3    H137782   7.576   4.510  12.854  2.2943 -0.2907  0.9425
 4529TIP3    H237783   7.541   4.438  12.726 -1.0387  0.8635  1.1015
 4530TIP3   OH237784   4.442   1.251  12.857  0.2712 -0.0484 -0.1534
 4530TIP3    H137785   4.368   1.198  12.889  0.2838 -0.7730 -1.3021
 4530TIP3    H237786   4.453   1.225  12.766  0.6158  1.5716 -0.6003
 4531TIP3   OH237787   1.529   2.773  13.349  0.6774 -0.7798  0.4647
 4531TIP3    H137788   1.602   2.836  13.349  1.3976 -1.5786  1.2311
 4531TIP3    H237789   1.520   2.748  13.441 -0.1175 -1.2136  0.2736
 4532TIP3   OH237790   4.314   5.385  13.635 -0.2951 -0.2489 -0.4512
 4532TIP3    H137791   4.262   5.308  13.614 -0.2612 -0.2348 -0.5953
 4532TIP3    H237792   4.349   5.369  13.722 -2.2531  0.6666  0.5660
 4533TIP3   OH237793   0.416   5.026  14.418 -0.0719 -0.1163  0.6286
 4533TIP3    H137794   0.499   5.056  14.381  0.0751  0.5083  1.4407
 4533TIP3    H237795   0.441   4.982  14.499 -0.6689  1.8275  1.9226
 4534TIP3   OH237796   4.680   1.009  14.909 -0.6025  0.2347  0.2279
 4534TIP3    H137797   4.587   0.986  14.905 -0.5092 -0.0098 -1.6292
 4534TIP3    H237798   4.682   1.090  14.960 -1.5463 -0.9245  2.2410
 4535TIP3   OH237799   6.368   1.067  13.102 -0.7285 -0.3836 -0.0705
 4535TIP3    H137800   6.402   1.133  13.041  0.5951  0.2267  1.2748
 4535TIP3    H237801   6.393   0.983  13.062  0.3865  0.0106 -0.2455
 4536TIP3   OH237802   7.340   8.144  14.810  0.0724  0.2454 -0.2808
 4536TIP3    H137803   7.301   8.213  14.864  0.1780 -0.5523  0.8453
 4536TIP3    H237804   7.281   8.069  14.821  0.3902 -0.0969 -0.8440
 4537TIP3   OH237805   8.125   4.330  14.932 -0.2023 -0.2111  0.2200
 4537TIP3    H137806   8.121   4.394  14.861  0.7713 -0.2005  0.1651
 4537TIP3    H237807   8.125   4.382  15.012 -4.3482 -0.2460  0.4706
 4538TIP3   OH237808   1.605   8.178  12.998 -0.2586  0.7243 -0.2834
 4538TIP3    H137809   1.556   8.132  12.930 -0.2970  0.5571 -0.1453
 4538TIP3    H237810   1.540   8.202  13.063 -0.4853  2.3089 -1.0458
 4539TIP3   OH237811   2.777   5.873  14.278  0.1902  0.4281 -0.0558
 4539TIP3    H137812   2.800   5.965  14.291 -1.5327  0.7635  0.9514
 4539TIP3    H237813   2.732   5.848  14.359  1.0880 -1.4666 -0.0967
 4540TIP3   OH237814   7.669   2.687  14.109  0.2041 -0.3091 -0.8157
 4540TIP3    H137815   7.590   2.725  14.146  0.7356 -0.3815  0.4200
 4540TIP3    H237816   7.710   2.759  14.060  0.9475  0.6259  1.0881
 4541TIP3   OH237817   6.632   1.221  14.324 -0.0518  0.4072  0.0436
 4541TIP3    H137818   6.640   1.157  14.395 -0.3275  0.8737  0.5093
 4541TIP3    H237819   6.720   1.256  14.313  0.1914 -0.3802 -0.5302
 4542TIP3   OH237820   6.702   6.139  15.060  0.0516  0.2866 -0.0235
 4542TIP3    H137821   6.618   6.171  15.094 -1.4577 -1.0616 -2.1799
 4542TIP3    H237822   6.714   6.188  14.978  0.6262 -0.5512 -0.4507
 4543TIP3   OH237823   2.187   0.680  12.823  0.5623  0.1398 -0.9046
 4543TIP3    H137824   2.118   0.744  12.809  0.5962  1.3084  2.9580
 4543TIP3    H237825   2.140   0.597  12.834 -0.2202  0.7239  0.5469
 4544TIP3   OH237826   0.596   6.877  13.288  0.6420  0.0862 -0.0956
 4544TIP3    H137827   0.658   6.878  13.215  0.4256  0.2998 -0.2790
 4544TIP3    H237828   0.510   6.870  13.247  0.6168 -3.2136  0.2170
 4545TIP3   OH237829   6.746   6.899  14.205 -0.0974  0.1052  0.2566
 4545TIP3    H137830   6.756   6.945  14.122  0.6232 -0.5660 -0.0385
 4545TIP3    H237831   6.653   6.908  14.227 -0.8583 -1.8450 -1.8777
 4546TIP3   OH237832   4.590   2.188  14.597  0.4989  0.5877  0.3410
 4546TIP3    H137833   4.562   2.279  14.611 -0.0969  0.1929  1.8551
 4546TIP3    H237834   4.655   2.172  14.665 -0.3005 -0.4905  0.8862
 4547TIP3   OH237835   2.856   8.173  14.230 -0.6197 -0.0020  0.2032
 4547TIP3    H137836   2.788   8.236  14.252 -1.2594 -0.2095 -1.0958
 4547TIP3    H237837   2.819   8.121  14.158  0.1560 -1.4012  0.7577
 4548TIP3   OH237838   3.543   2.836  12.846 -0.1225  0.3167 -0.0132
 4548TIP3    H137839   3.601   2.781  12.898  0.0361  1.2336  0.8081
 4548TIP3    H237840   3.460   2.789  12.843  0.6171 -0.9877 -1.1593
 4549TIP3   OH237841   2.795   1.886  15.235 -0.3023 -0.4276  0.1484
 4549TIP3    H137842   2.810   1.821  15.303  0.7280  0.1269  0.4854
 4549TIP3    H237843   2.883   1.909  15.204 -0.6587  0.5608 -0.1799
 4550TIP3   OH237844   3.432   7.202  14.703 -0.2854 -0.4550 -0.2308
 4550TIP3    H137845   3.423   7.137  14.634 -1.0103  0.5226 -1.0948
 4550TIP3    H237846   3.442   7.285  14.656  0.1019  0.1295  0.8415
 4551TIP3   OH237847   7.107   2.929  14.870  0.0831 -0.1015 -0.0227
 4551TIP3    H137848   7.125   2.963  14.782 -0.1531  1.5391  0.5238
 4551TIP3    H237849   7.049   2.855  14.856 -1.4525  1.2486 -1.1665
 4552TIP3   OH237850   0.874   2.171  14.283  0.3187  0.0698 -0.0642
 4552TIP3    H137851   0.824   2.189  14.203  0.4647 -0.5613 -0.3034
 4552TIP3    H237852   0.916   2.087  14.266  0.2939 -0.1017  0.7110
 4553TIP3   OH237853   2.588   2.118  14.250 -0.8681 -0.1219  0.3922
 4553TIP3    H137854   2.668   2.118  14.303 -0.2416  0.4893 -0.5153
 4553TIP3    H237855   2.520   2.152  14.309 -0.6089 -1.2350  1.3636
 4554TIP3   OH237856   5.667   2.380  13.981  0.1542  0.0537 -0.4994
 4554TIP3    H137857   5.613   2.319  14.033 -1.2253  0.8424 -0.9494
 4554TIP3    H237858   5.689   2.330  13.902 -0.1362 -0.1997 -0.4251
 4555TIP3   OH237859   1.532   2.168  13.943 -0.5169  0.0067  0.0055
 4555TIP3    H137860   1.581   2.234  13.994  0.3216 -0.5949  0.0072
 4555TIP3    H237861   1.511   2.212  13.861  0.2234  0.2212 -0.0796
 4556TIP3   OH237862   3.277   5.297  13.906  0.5790 -0.0673  0.0647
 4556TIP3    H137863   3.269   5.369  13.969  0.8201 -1.4972  1.8277
 4556TIP3    H237864   3.348   5.243  13.941 -0.9411 -2.2602 -0.0270
 4557TIP3   OH237865   1.175   4.858  13.664  0.4284  0.4238  0.5584
 4557TIP3    H137866   1.254   4.814  13.633  0.5675  0.7784  0.3992
 4557TIP3    H237867   1.162   4.930  13.602  0.1684  0.5670  0.7765
 4558TIP3   OH237868   3.938   7.589  15.136 -0.1548 -0.3533 -0.0534
 4558TIP3    H137869   3.931   7.513  15.078 -0.3634  0.4187 -1.0773
 4558TIP3    H237870   3.945   7.552  15.224 -1.6041 -1.5227 -0.3939
 4559TIP3   OH237871   3.807   0.574  13.932  0.0959 -0.5868 -0.0765
 4559TIP3    H137872   3.735   0.622  13.891  0.5849 -1.0323 -1.5029
 4559TIP3    H237873   3.787   0.578  14.026 -0.0721  2.0779 -0.1286
 4560TIP3   OH237874   2.212   0.644  14.644 -0.3562 -0.8000  0.8299
 4560TIP3    H137875   2.305   0.624  14.657 -0.0636  0.6950  1.2515
 4560TIP3    H237876   2.211   0.735  14.615 -1.5860 -1.3740 -1.1600
 4561TIP3   OH237877   1.085   4.140  14.580  0.4330 -0.7131 -0.1524
 4561TIP3    H137878   1.134   4.108  14.504 -0.7142  2.4210 -2.3817
 4561TIP3    H237879   1.004   4.090  14.579  0.5123 -0.8347 -0.8683
 4562TIP3   OH237880   1.805   4.121  14.553 -0.1899 -0.3681 -0.1721
 4562TIP3    H137881   1.894   4.150  14.533  0.4319 -1.3960  0.9235
 4562TIP3    H237882   1.792   4.045  14.497 -0.5175 -0.0116 -0.5828
 4563TIP3   OH237883   2.300   3.820  14.779 -0.1507 -0.0076  0.3859
 4563TIP3    H137884   2.381   3.819  14.830 -1.3724  1.6147  2.5583
 4563TIP3    H237885   2.240   3.765  14.828 -1.0672  0.7584  0.1700
 4564TIP3   OH237886   8.427   8.310  13.394 -0.5028  0.3904  0.4519
 4564TIP3    H137887   8.421   8.273  13.483 -1.9184  0.2251  0.3004
 4564TIP3    H237888   8.516   8.345  13.390 -0.4912  0.6397  2.0330
 4565TIP3   OH237889   6.341   7.892  14.935  0.6034 -0.1548 -0.0339
 4565TIP3    H137890   6.383   7.847  14.861  0.1476 -1.5136  0.5079
 4565TIP3    H237891   6.310   7.975  14.898 -0.8273 -1.3824 -1.7497
 4566TIP3   OH237892   3.280   5.509  14.347 -0.0235 -0.0153 -0.4090
 4566TIP3    H137893   3.371   5.506  14.320  1.0281 -0.9519  2.8185
 4566TIP3    H237894   3.275   5.585  14.406 -1.2604 -0.1199 -0.3535
 4567TIP3   OH237895   2.534   4.579  13.837 -0.6172 -0.8038  0.1295
 4567TIP3    H137896   2.624   4.562  13.809 -0.0795 -0.2777  1.4465
 4567TIP3    H237897   2.486   4.591  13.755  0.8974  0.8396 -0.6154
 4568TIP3   OH237898   7.572   4.790  14.957  0.0331  0.0042 -0.6782
 4568TIP3    H137899   7.625   4.806  14.879  2.4399 -0.5453  0.7361
 4568TIP3    H237900   7.560   4.695  14.957 -2.4546  0.2455 -1.8267
 4569TIP3   OH237901   6.542   4.080  14.775 -0.1726  0.1684 -0.6596
 4569TIP3    H137902   6.489   4.151  14.812  0.3620  0.9346 -1.3031
 4569TIP3    H237903   6.552   4.017  14.846 -0.8245  0.6575 -0.1270
 4570TIP3   OH237904   8.009   6.279  13.498  0.8492 -0.2549  0.3007
 4570TIP3    H137905   8.052   6.358  13.530  1.2383 -0.1717 -0.4064
 4570TIP3    H237906   8.080   6.216  13.486  0.6323 -0.4842  0.2044
 4571TIP3   OH237907   0.349   2.923  14.742 -0.2798  0.3585  0.0976
 4571TIP3    H137908   0.260   2.955  14.759  0.4523  2.4956  0.2851
 4571TIP3    H237909   0.398   3.002  14.719  1.8116 -0.6202  0.9765
 4572TIP3   OH237910   8.189   8.203  14.957  0.0738  0.2777 -0.3083
 4572TIP3    H137911   8.239   8.235  15.033  0.2479  1.6686 -0.9821
 4572TIP3    H237912   8.169   8.112  14.979  0.8595  0.3932  1.0299
 4573TIP3   OH237913   5.180   4.049  13.932 -0.1009  0.4660  0.2914
 4573TIP3    H137914   5.140   4.076  14.015 -0.7023  0.9307 -0.1370
 4573TIP3    H237915   5.238   4.121  13.909  1.3376 -0.3925  1.1197
 4574TIP3   OH237916   1.380   3.607  14.296 -0.1687  0.2702  0.5937
 4574TIP3    H137917   1.381   3.617  14.391  0.7168 -0.0216  0.6247
 4574TIP3    H237918   1.433   3.529  14.279 -0.0143  0.5262 -0.1606
 4575TIP3   OH237919   3.330   6.205  14.622 -0.0999  0.4531 -0.2810
 4575TIP3    H137920   3.326   6.300  14.633  1.2376  0.6183 -0.9979
 4575TIP3    H237921   3.355   6.172  14.708  1.1892  0.9195 -0.4592
 4576TIP3   OH237922   3.087   1.994  13.640 -0.0230  0.1830 -0.1698
 4576TIP3    H137923   3.068   2.047  13.562 -0.7967 -0.2868 -0.3117
 4576TIP3    H237924   3.012   2.010  13.698 -0.6255 -1.2901 -0.5113
 4577TIP3   OH237925   3.126   4.459  14.074  0.2029 -0.1863 -0.6523
 4577TIP3    H137926   3.046   4.433  14.120  1.3308 -1.8087  0.5401
 4577TIP3    H237927   3.189   4.390  14.096  1.9178  1.0133 -1.5905
 4578TIP3   OH237928   4.790   7.481  14.602  0.3462 -0.2648 -0.1051
 4578TIP3    H137929   4.828   7.564  14.576  0.0691  0.0777  0.5551
 4578TIP3    H237930   4.860   7.436  14.650  0.8107 -0.8367 -1.2669
 4579TIP3   OH237931   5.510   6.958  13.549 -0.4264  0.3155 -0.1928
 4579TIP3    H137932   5.445   6.905  13.596  2.0383 -1.9654  0.9372
 4579TIP3    H237933   5.582   6.969  13.612  0.7509  1.7960 -1.7086
 4580TIP3   OH237934   1.394   6.375  13.692 -0.0691  0.5332 -0.6150
 4580TIP3    H137935   1.468   6.424  13.727  2.6437 -3.1228 -0.6133
 4580TIP3    H237936   1.427   6.337  13.611 -2.5662  0.0606 -1.5018
 4581TIP3   OH237937   2.506   7.800  13.256  0.4744 -0.0083  0.0948
 4581TIP3    H137938   2.570   7.870  13.244  0.1518  1.2443  4.2017
 4581TIP3    H237939   2.558   7.727  13.289  0.3484 -0.6665 -1.0952
 4582TIP3   OH237940   7.423   4.183  14.449  0.2637  0.3162 -0.0196
 4582TIP3    H137941   7.472   4.109  14.486 -0.7355 -1.3736 -1.8650
 4582TIP3    H237942   7.370   4.144  14.379 -0.9170  2.6772 -0.5441
 4583TIP3   OH237943   7.710   1.434  13.842  0.0548  0.1448  0.0411
 4583TIP3    H137944   7.629   1.397  13.878 -0.3030  0.4634 -0.4095
 4583TIP3    H237945   7.704   1.528  13.862  0.4148  0.1330  0.1955
 4584TIP3   OH237946   3.831   0.139  13.808 -0.7853  0.0179 -0.6670
 4584TIP3    H137947   3.909   0.178  13.847 -1.4159 -0.6726  1.4754
 4584TIP3    H237948   3.863   0.065  13.757 -0.0011 -0.0103 -0.1464
 4585TIP3   OH237949   3.009   6.080  15.006  0.7367 -0.1026  0.5809
 4585TIP3    H137950   2.974   6.158  15.049  1.6763  0.9646 -0.5210
 4585TIP3    H237951   3.051   6.031  15.077 -0.6504 -0.1042  1.4468
 4586TIP3   OH237952   1.707   2.690  13.961  0.1981 -0.4052  0.1403
 4586TIP3    H137953   1.738   2.776  13.988  3.5830 -1.2272 -0.6263
 4586TIP3    H237954   1.695   2.698  13.866  3.2553 -1.3330 -0.4436
 4587TIP3   OH237955   4.851   5.247  14.950 -0.1293  0.3775 -0.5377
 4587TIP3    H137956   4.806   5.177  14.904  0.6056 -0.2960 -0.2597
 4587TIP3    H237957   4.815   5.246  15.038  1.2109 -0.9256  0.0239
 4588TIP3   OH237958   0.283   2.033  14.250 -0.2876  0.3252  0.3897
 4588TIP3    H137959   0.335   2.103  14.289  0.5425  0.3241 -0.6692
 4588TIP3    H237960   0.291   1.960  14.312  3.4697 -0.7053 -1.0152
 4589TIP3   OH237961   4.375   7.661  14.572 -0.0529  0.5511  0.3460
 4589TIP3    H137962   4.378   7.645  14.666  0.0144 -2.0040 -0.0199
 4589TIP3    H237963   4.457   7.706  14.552 -0.4324  1.8439  1.5894
 4590TIP3   OH237964   3.916   2.085  13.588 -0.1508  0.3066 -0.7210
 4590TIP3    H137965   3.924   2.022  13.517 -1.5464 -0.3732 -0.3236
 4590TIP3    H237966   3.960   2.043  13.662 -0.3499  0.1548 -0.6857
 4591TIP3   OH237967   4.602   1.091  13.242 -0.7900  0.2266 -0.1773
 4591TIP3    H137968   4.545   1.158  13.206  1.1302  2.6188  0.9657
 4591TIP3    H237969   4.625   1.036  13.167 -3.3898  0.0264 -0.9037
 4592TIP3   OH237970   1.719   0.138  14.829 -0.2659 -0.4083 -0.3277
 4592TIP3    H137971   1.728   0.089  14.748  0.7926  2.0838 -1.8215
 4592TIP3    H237972   1.807   0.137  14.868 -0.5635 -0.8517  0.3496
 4593TIP3   OH237973   8.361   3.693  12.951 -0.0309 -0.0204 -0.2847
 4593TIP3    H137974   8.315   3.756  12.895  1.9923  0.3255 -1.6429
 4593TIP3    H237975   8.379   3.619  12.894  2.0072  0.3067 -0.1466
 4594TIP3   OH237976   8.241   2.432  14.341 -0.5406  0.0082 -0.3762
 4594TIP3    H137977   8.330   2.407  14.366  0.1963  1.5323 -1.3495
 4594TIP3    H237978   8.224   2.383  14.261 -1.3732 -1.7872  0.8323
 4595TIP3   OH237979   1.660   3.811  13.415  0.7331 -0.6881  0.2283
 4595TIP3    H137980   1.598   3.740  13.396  0.5635 -0.6365  0.5773
 4595TIP3    H237981   1.694   3.836  13.329 -0.4488 -0.0711 -0.0812
 4596TIP3   OH237982   4.930   7.222  13.987  0.2824  0.4978 -0.4118
 4596TIP3    H137983   4.866   7.151  13.982  0.5594  0.3196 -1.5174
 4596TIP3    H237984   4.878   7.302  13.979  0.0953  0.3847 -0.3293
 4597TIP3   OH237985   7.699   1.963  13.825 -0.4619  0.6657 -0.3611
 4597TIP3    H137986   7.625   2.022  13.818 -0.3337  0.7464 -1.1070
 4597TIP3    H237987   7.775   2.016  13.800 -0.3199  0.2433 -0.8379
 4598TIP3   OH237988   2.941   6.686  14.110  0.3038 -0.7829 -0.1966
 4598TIP3    H137989   2.984   6.615  14.157 -0.0149 -0.4029  0.6986
 4598TIP3    H237990   2.848   6.674  14.131  0.3481  0.5269  0.8825
 4599TIP3   OH237991   6.836   0.517  15.469  0.1188  0.7330 -0.3726
 4599TIP3    H137992   6.851   0.596  15.521 -1.4918 -0.1130  1.4765
 4599TIP3    H237993   6.741   0.512  15.459  0.3168  0.8473 -3.5086
 4600TIP3   OH237994   0.826   3.659  14.232  0.2486 -0.3505 -0.4911
 4600TIP3    H137995   0.921   3.672  14.241  0.1607  0.0369 -0.0853
 4600TIP3    H237996   0.812   3.567  14.256  0.2839  0.1111  1.4560
 4601TIP3   OH237997   8.168   1.323  13.321  0.2663  0.1764  0.1668
 4601TIP3    H137998   8.191   1.290  13.408  0.3147  1.8437  0.8130
 4601TIP3    H237999   8.246   1.305  13.268  0.3366 -0.6233  0.5236
 4602TIP3   OH238000   0.332   1.877  13.314 -0.7145 -0.1844  0.2278
 4602TIP3    H138001   0.306   1.951  13.259  1.0426 -0.5305 -1.1564
 4602TIP3    H238002   0.427   1.874  13.309 -0.7237 -3.3010 -0.9257
 4603TIP3   OH238003   5.244   6.863  13.897 -0.3149  0.7102 -0.1155
 4603TIP3    H138004   5.235   6.958  13.892  0.0418  0.8058  0.8507
 4603TIP3    H238005   5.186   6.837  13.968  0.4846  0.3554  0.4295
 4604TIP3   OH238006   7.035   1.694  14.518  0.0311 -0.2753 -0.1353
 4604TIP3    H138007   7.120   1.652  14.534  0.3100 -0.2533 -1.4556
 4604TIP3    H238008   6.973   1.644  14.572  0.9229 -0.0148  1.1957
 4605TIP3   OH238009   2.589   4.076  15.149 -0.3789  0.8583 -0.2428
 4605TIP3    H138010   2.666   4.132  15.138 -1.6833  2.9142  0.5950
 4605TIP3    H238011   2.600   4.037  15.236 -0.2187  1.0359 -0.1837
 4606TIP3   OH238012   3.593   3.175  14.272  0.7421  0.6261  0.0468
 4606TIP3    H138013   3.544   3.093  14.272 -0.9793  1.6140 -0.3145
 4606TIP3    H238014   3.542   3.234  14.326  0.6472  2.1814 -1.6204
 4607TIP3   OH238015   5.718   4.651  13.814  0.5043 -0.1235  0.1407
 4607TIP3    H138016   5.715   4.697  13.899  1.1067 -0.6129  0.4286
 4607TIP3    H238017   5.805   4.612  13.811  1.6444  2.2873 -2.0084
 4608TIP3   OH238018   7.401   6.773  13.990 -0.3027  0.2461  0.1829
 4608TIP3    H138019   7.419   6.836  14.060  3.3620  1.7021 -1.8227
 4608TIP3    H238020   7.479   6.718  13.986 -1.5260 -1.5198 -1.1175
 4609TIP3   OH238021   6.096   7.940  14.803  0.1043 -0.5481 -0.3432
 4609TIP3    H138022   6.019   7.901  14.760 -1.0261  1.4252 -0.2229
 4609TIP3    H238023   6.085   7.917  14.896 -0.0693 -0.7076 -0.4021
 4610TIP3   OH238024   5.808   1.840  14.546  0.0876 -0.0546  0.3718
 4610TIP3    H138025   5.831   1.842  14.639 -1.0386 -1.4555  0.7146
 4610TIP3    H238026   5.838   1.755  14.515 -0.4495 -0.0044 -0.3063
 4611TIP3   OH238027   7.339   0.152  13.917  0.2177  0.0897 -0.2223
 4611TIP3    H138028   7.379   0.232  13.953 -0.2605  0.8986 -1.4037
 4611TIP3    H238029   7.319   0.098  13.993  1.7769  0.5113  0.5156
 4612TIP3   OH238030   2.913   6.364  14.995 -0.3192 -0.7815  0.1278
 4612TIP3    H138031   2.851   6.364  14.923 -0.1402  1.6088 -0.1354
 4612TIP3    H238032   2.915   6.455  15.025  3.8296 -0.3940 -0.6136
 4613TIP3   OH238033   2.194   4.864  14.967 -1.0757  0.6110  0.3440
 4613TIP3    H138034   2.219   4.772  14.963 -1.8590  0.3445  1.2637
 4613TIP3    H238035   2.269   4.911  14.931  0.1870 -0.2415  1.7531
 4614TIP3   OH238036   2.331   8.398  13.796  0.0416 -0.1331 -0.0959
 4614TIP3    H138037   2.267   8.462  13.765  0.2917  0.2862  0.2424
 4614TIP3    H238038   2.281   8.340  13.853 -0.1889 -0.2535 -0.4140
 4615TIP3   OH238039   8.358   3.609  14.137 -0.6285  0.1831 -0.3282
 4615TIP3    H138040   8.352   3.552  14.060 -1.3393 -0.1643 -0.0263
 4615TIP3    H238041   8.393   3.691  14.103 -0.1965 -0.2200 -0.8844
 4616TIP3   OH238042   2.475   1.626  14.254  0.3888  0.0599 -0.3440
 4616TIP3    H138043   2.521   1.576  14.321  0.1960  0.0918 -0.1880
 4616TIP3    H238044   2.521   1.604  14.173 -0.4807 -1.3848 -0.4909
 4617TIP3   OH238045   0.743   2.131  14.879 -0.2551 -0.0497  0.1294
 4617TIP3    H138046   0.761   2.050  14.831 -1.5220  0.2073 -0.8493
 4617TIP3    H238047   0.726   2.195  14.811  0.9264  1.1102  0.8939
 4618TIP3   OH238048   6.775   3.495  13.970 -0.1961 -0.1624  0.3131
 4618TIP3    H138049   6.762   3.570  13.913 -1.8729 -1.5893 -1.3060
 4618TIP3    H238050   6.869   3.479  13.969  0.2458  2.0376  0.9545
 4619TIP3   OH238051   1.156   0.174  14.506 -0.3020 -0.6422 -0.2536
 4619TIP3    H138052   1.208   0.218  14.574 -0.3587 -2.3618  0.9642
 4619TIP3    H238053   1.182   0.218  14.424  0.3360  0.9693  0.7536
 4620TIP3   OH238054   7.938   8.309  13.781  0.6221  0.4032 -0.3971
 4620TIP3    H138055   7.966   8.332  13.869  0.7639  1.3719 -0.6789
 4620TIP3    H238056   8.018   8.284  13.736  0.5514 -0.0812 -0.2583
 4621TIP3   OH238057   6.126   8.105  13.769 -0.0844  0.2632  0.2678
 4621TIP3    H138058   6.086   8.061  13.695  0.3192  1.3490 -0.6256
 4621TIP3    H238059   6.209   8.140  13.735 -0.7919  2.4594  0.6424
 4622TIP3   OH238060   3.431   5.748  15.034  0.2450 -0.5743 -0.1907
 4622TIP3    H138061   3.482   5.796  14.969 -0.9505 -0.8157 -1.3589
 4622TIP3    H238062   3.479   5.667  15.048  1.5802  0.3328  0.8001
 4623TIP3   OH238063   4.614   7.924  13.744  0.0947  1.0127 -0.8178
 4623TIP3    H138064   4.518   7.924  13.743  0.0662 -0.1689 -0.1765
 4623TIP3    H238065   4.639   8.001  13.693 -1.1931  1.8915 -0.1694
 4624TIP3   OH238066   7.903   0.848  13.057  0.1387  0.5607  0.2687
 4624TIP3    H138067   7.959   0.848  13.134 -2.1540  1.1958  2.0645
 4624TIP3    H238068   7.912   0.760  13.020 -0.3709 -0.5750  2.6313
 4625TIP3   OH238069   3.337   0.098  14.883 -0.3723  0.1278  0.2943
 4625TIP3    H138070   3.368   0.181  14.921  0.4219  0.1436 -0.3524
 4625TIP3    H238071   3.293   0.124  14.802 -0.3311 -0.0617  0.2123
 4626TIP3   OH238072   1.255   7.992  13.328 -0.1534  0.1102 -0.2693
 4626TIP3    H138073   1.289   7.903  13.334 -0.4466  0.0470  0.5996
 4626TIP3    H238074   1.242   8.019  13.419 -1.3791  0.5278 -0.5392
 4627TIP3   OH238075   5.888   0.517  13.400 -0.2986 -0.3448 -0.5202
 4627TIP3    H138076   5.898   0.586  13.465  1.1056 -1.4261  0.4589
 4627TIP3    H238077   5.863   0.563  13.319  1.0107  1.3339 -0.0053
 4628TIP3   OH238078   4.956   6.675  13.961 -0.2785  0.0129  0.2892
 4628TIP3    H138079   4.968   6.764  13.994  0.1708 -0.0146  0.2066
 4628TIP3    H238080   4.884   6.640  14.013 -0.1763  0.2780  0.6129
 4629TIP3   OH238081   4.643   2.637  14.795  0.0204  0.3986  0.0679
 4629TIP3    H138082   4.553   2.606  14.789  0.4877 -0.7618 -1.6173
 4629TIP3    H238083   4.662   2.638  14.889 -0.3161 -3.8043  0.3855
 4630TIP3   OH238084   0.172   4.181  14.702 -0.3518 -0.1251  0.4884
 4630TIP3    H138085   0.146   4.170  14.610  0.4106 -0.4007  0.2939
 4630TIP3    H238086   0.090   4.189  14.750 -0.8636 -2.0908  0.0522
 4631TIP3   OH238087   2.385   4.472  14.434 -0.3750 -0.1619 -0.2108
 4631TIP3    H138088   2.436   4.537  14.483 -0.5156  0.4128 -0.8076
 4631TIP3    H238089   2.351   4.413  14.501 -0.8169  0.7804  0.4231
 4632TIP3   OH238090   5.068   3.902  14.508 -0.5873  0.4497 -0.5385
 4632TIP3    H138091   5.058   3.828  14.567 -1.1191  0.8998 -0.0521
 4632TIP3    H238092   5.006   3.967  14.540 -0.9450  0.6739 -1.6461
 4633TIP3   OH238093   3.638   6.191  13.333  0.6243  0.0959  0.3942
 4633TIP3    H138094   3.588   6.116  13.364  2.5475 -0.5146  2.2909
 4633TIP3    H238095   3.728   6.160  13.329  1.1435  1.6435 -1.1626
 4634TIP3   OH238096   8.216   7.078  14.441  0.0120 -0.1641 -0.4198
 4634TIP3    H138097   8.129   7.056  14.410  0.3599 -0.8192 -0.9461
 4634TIP3    H238098   8.273   7.064  14.366  0.7596 -0.9991  0.2857
 4635TIP3   OH238099   6.937   0.377  13.421  0.6364  0.3133 -0.2319
 4635TIP3    H138100   6.945   0.422  13.338  2.2660  3.2394  1.3584
 4635TIP3    H238101   6.854   0.330  13.416  0.4201  0.8602 -3.2265
 4636TIP3   OH238102   0.782   8.214  13.398  0.3798  0.1766  0.1039
 4636TIP3    H138103   0.869   8.250  13.417  0.7206  0.3274 -1.6123
 4636TIP3    H238104   0.725   8.291  13.396 -0.3126 -0.1050  3.4869
 4637TIP3   OH238105   1.736   3.747  14.211  0.1500  0.0592  0.2642
 4637TIP3    H138106   1.826   3.722  14.190  0.1554 -0.6805  1.1285
 4637TIP3    H238107   1.690   3.664  14.222 -0.8546  0.4114 -0.9770
 4638TIP3   OH238108   5.902   4.801  15.162 -0.4294  0.0647 -0.2185
 4638TIP3    H138109   5.978   4.743  15.158 -1.6313 -1.5522 -0.5789
 4638TIP3    H238110   5.833   4.747  15.201 -1.4905  1.4039 -0.1695
 4639TIP3   OH238111   1.523   4.218  13.260 -0.3280 -0.0751  0.0266
 4639TIP3    H138112   1.564   4.191  13.342 -0.4543 -0.7370 -0.1152
 4639TIP3    H238113   1.500   4.135  13.217  0.8313  0.2195 -1.2400
 4640TIP3   OH238114   0.709   2.898  13.879 -0.1487 -0.0770 -0.4389
 4640TIP3    H138115   0.675   2.809  13.879 -1.3321  0.3379  0.7783
 4640TIP3    H238116   0.794   2.891  13.924 -0.1991 -0.5973 -0.4220
 4641TIP3   OH238117   5.648   2.846  13.506  0.3895 -0.2589 -0.3434
 4641TIP3    H138118   5.712   2.894  13.559 -1.4761  2.5534 -0.4085
 4641TIP3    H238119   5.695   2.768  13.476  3.9061  1.7753 -0.6973
 4642TIP3   OH238120   8.430   6.097  13.227 -0.0044 -0.2961  0.2990
 4642TIP3    H138121   8.514   6.135  13.252 -1.4828  2.4455  1.5988
 4642TIP3    H238122   8.431   6.096  13.132  0.9706  1.1399  0.2558
 4643TIP3   OH238123   3.347   3.323  13.468  0.0058  0.2457  0.3697
 4643TIP3    H138124   3.317   3.404  13.426  0.2880  0.4423  0.5433
 4643TIP3    H238125   3.391   3.352  13.548  0.6683 -0.0345  0.1150
 4644TIP3   OH238126   1.684   5.145  13.420  0.3398 -0.4637  0.5973
 4644TIP3    H138127   1.590   5.126  13.418  0.2021  0.1506  1.1136
 4644TIP3    H238128   1.698   5.194  13.501  0.8938  0.5486 -0.0879
 4645TIP3   OH238129   1.167   8.198  14.568 -0.2196  0.3021 -0.3425
 4645TIP3    H138130   1.129   8.230  14.486  0.1474  0.3533 -0.4956
 4645TIP3    H238131   1.181   8.276  14.621  2.4009  0.6716 -1.4348
 4646TIP3   OH238132   2.955   8.393  13.699 -0.4793 -0.6174  0.4066
 4646TIP3    H138133   2.896   8.420  13.769  0.2194 -0.7790  1.0655
 4646TIP3    H238134   2.998   8.474  13.671 -3.4401  0.1722 -2.4592
 4647TIP3   OH238135   1.967   1.265  13.879 -0.1991  0.4408 -0.0494
 4647TIP3    H138136   2.042   1.209  13.899 -1.4383 -1.5956 -0.8586
 4647TIP3    H238137   1.989   1.306  13.796  0.0077 -0.2033 -0.3180
 4648TIP3   OH238138   1.228   3.172  13.615  0.0866  0.3122  0.0860
 4648TIP3    H138139   1.156   3.128  13.661  0.2227 -0.2146 -0.1918
 4648TIP3    H238140   1.293   3.103  13.601  1.3336  1.1087  1.6554
 4649TIP3   OH238141   7.451   4.893  14.706 -0.0154 -0.1227 -0.5938
 4649TIP3    H138142   7.508   4.907  14.630  0.9510 -1.1981 -0.0884
 4649TIP3    H238143   7.400   4.974  14.713  0.3129  0.2335 -2.0168
 4650TIP3   OH238144   3.578   0.903  14.545 -0.2477 -0.0739  0.3204
 4650TIP3    H138145   3.561   0.911  14.639  0.3170 -0.9477  0.5086
 4650TIP3    H238146   3.669   0.933  14.535 -0.5981  0.8883 -0.0946
 4651TIP3   OH238147   3.152   2.967  13.360  0.0995  0.2549  0.3195
 4651TIP3    H138148   3.139   3.053  13.320  2.4210 -0.1328 -1.4474
 4651TIP3    H238149   3.149   2.906  13.287  1.4660 -0.8324  1.1413
 4652TIP3   OH238150   5.115   5.334  13.627 -0.1931 -0.0359  0.4889
 4652TIP3    H138151   5.020   5.332  13.636 -0.4444  1.4350 -1.2568
 4652TIP3    H238152   5.144   5.248  13.656 -1.8612  0.1021  2.7814
 4653TIP3   OH238153   1.275   7.910  14.277  0.4537 -0.0772 -0.2913
 4653TIP3    H138154   1.185   7.895  14.307  1.4035 -0.0321  2.9234
 4653TIP3    H238155   1.291   8.002  14.296  0.9092  0.1897 -1.8157
 4654TIP3   OH238156   1.308   4.747  14.587 -0.0737  0.1531  0.1363
 4654TIP3    H138157   1.361   4.748  14.666  0.5069  1.6931 -0.2375
 4654TIP3    H238158   1.246   4.819  14.598 -0.8092 -0.3936 -0.2915
 4655TIP3   OH238159   0.273   5.376  12.976  0.1063 -0.4311 -0.6129
 4655TIP3    H138160   0.237   5.348  13.061 -0.7808 -0.7341 -1.0735
 4655TIP3    H238161   0.202   5.424  12.934  0.3041 -0.8545 -1.4594
 4656TIP3   OH238162   0.169   8.203  14.905 -0.0731 -0.2204 -0.1793
 4656TIP3    H138163   0.095   8.195  14.846  0.1024 -0.6696 -0.3447
 4656TIP3    H238164   0.182   8.297  14.916  0.9377 -0.0737 -2.1965
 4657TIP3   OH238165   1.659   6.555  14.160 -0.0793  0.0284 -0.3584
 4657TIP3    H138166   1.662   6.635  14.213 -0.1299 -0.7916  0.9256
 4657TIP3    H238167   1.750   6.541  14.134 -0.1101  0.6448 -0.8225
 4658TIP3   OH238168   4.258   4.059  12.872  0.6389 -0.4169  0.2308
 4658TIP3    H138169   4.275   3.966  12.857  1.7470 -0.1305 -0.4198
 4658TIP3    H238170   4.295   4.077  12.959  0.4001 -0.5805  0.3680
 4659TIP3   OH238171   7.003   6.710  14.769 -0.5031  0.6799  0.0813
 4659TIP3    H138172   6.970   6.660  14.843 -0.8099  1.0214  0.1734
 4659TIP3    H238173   6.958   6.794  14.773 -0.4647  0.7342 -0.4452
 4660TIP3   OH238174   7.684   5.801  13.716  0.0749 -0.2276  0.3537
 4660TIP3    H138175   7.767   5.839  13.687 -0.6353  1.1317  0.0212
 4660TIP3    H238176   7.630   5.876  13.741 -0.6711 -1.1513  1.6576
 4661TIP3   OH238177   7.407   5.815  15.261 -0.2196 -0.4540 -0.0928
 4661TIP3    H138178   7.363   5.733  15.282  0.7580 -0.8689  0.3956
 4661TIP3    H238179   7.351   5.856  15.195 -0.7267 -1.5042 -0.3353
 4662TIP3   OH238180   7.191   3.527  14.249 -0.2663 -0.4868 -0.2841
 4662TIP3    H138181   7.112   3.530  14.303  1.2075 -0.5589  2.0408
 4662TIP3    H238182   7.235   3.610  14.267  2.4026 -2.2434  2.2583
 4663TIP3   OH238183   5.859   1.707  13.904 -0.1785  1.1181  0.0595
 4663TIP3    H138184   5.794   1.758  13.951 -0.8282  0.1120  0.2835
 4663TIP3    H238185   5.856   1.620  13.944 -2.5640 -0.5762 -3.3370
 4664TIP3   OH238186   5.520   3.767  13.692  0.4899  0.0880 -0.0427
 4664TIP3    H138187   5.546   3.847  13.645  0.4175 -0.1358 -0.4751
 4664TIP3    H238188   5.437   3.742  13.651 -0.0088  0.3553  0.7874
 4665TIP3   OH238189   2.574   7.948  13.805 -0.2215  0.4747  0.1245
 4665TIP3    H138190   2.515   7.874  13.818 -0.4128  0.7595  0.9471
 4665TIP3    H238191   2.557   7.976  13.714 -0.2546 -0.3794 -0.1395
 4666TIP3   OH238192   7.020   7.210  14.117 -0.2911  0.1104 -0.0964
 4666TIP3    H138193   7.001   7.269  14.191  1.1438  2.1011 -1.2107
 4666TIP3    H238194   7.046   7.128  14.159 -1.6704  0.4396  1.5491
 4667TIP3   OH238195   1.311   1.991  13.960 -0.0109 -0.0758  0.0285
 4667TIP3    H138196   1.309   1.937  13.881  1.3152  0.1905 -0.2139
 4667TIP3    H238197   1.395   2.037  13.955  0.5002 -0.7000  2.0147
 4668TIP3   OH238198   0.510   1.462  14.890 -0.0209 -0.0147 -0.2048
 4668TIP3    H138199   0.476   1.379  14.924  0.2783 -0.3983 -0.8129
 4668TIP3    H238200   0.595   1.473  14.933 -0.1906  0.1203  0.0936
 4669TIP3   OH238201   5.573   1.001  12.741 -0.3966 -0.2551  0.2434
 4669TIP3    H138202   5.652   1.039  12.701 -0.5007 -0.9136 -0.6288
 4669TIP3    H238203   5.569   0.913  12.704 -1.2026 -0.4400  0.7692
 4670TIP3   OH238204   7.678   6.866  15.137  0.2913  0.2204 -0.2592
 4670TIP3    H138205   7.729   6.791  15.167 -1.1092 -0.7038 -0.0743
 4670TIP3    H238206   7.735   6.911  15.075  1.6341 -0.2727  0.5771
 4671TIP3   OH238207   3.766   6.809  13.155  0.1235  0.1421 -0.5187
 4671TIP3    H138208   3.840   6.866  13.135 -1.2272  2.7088  1.2133
 4671TIP3    H238209   3.710   6.862  13.211 -1.5845 -2.7282  0.7092
 4672TIP3   OH238210   7.351   0.289  13.220 -0.6766  0.6557  0.2280
 4672TIP3    H138211   7.335   0.304  13.313  1.8000 -0.4383  0.9055
 4672TIP3    H238212   7.395   0.368  13.190 -1.1053  0.8414  0.0885
 4673TIP3   OH238213   7.787   7.834  14.163  0.5519  0.4466  0.4927
 4673TIP3    H138214   7.868   7.884  14.162 -0.1709  1.6719 -0.7428
 4673TIP3    H238215   7.724   7.892  14.207 -0.2907  0.6324 -0.9160
 4674TIP3   OH238216   7.028   4.293  15.154  0.3361  0.4264 -0.5816
 4674TIP3    H138217   7.003   4.382  15.130  1.7422  0.5691 -1.6112
 4674TIP3    H238218   6.947   4.254  15.188 -0.4969  1.8184 -0.8898
 4675TIP3   OH238219   7.541   1.302  14.877 -0.3050  0.4296 -0.3278
 4675TIP3    H138220   7.616   1.270  14.928 -1.0006 -0.6737  0.0487
 4675TIP3    H238221   7.492   1.223  14.855 -0.4771  0.9786 -2.0151
 4676TIP3   OH238222   7.968   7.488  14.221 -0.4800 -0.2712  0.0794
 4676TIP3    H138223   7.939   7.400  14.246 -0.6176 -0.3532 -0.3591
 4676TIP3    H238224   7.887   7.538  14.210 -0.4423 -0.3445 -0.5822
 4677TIP3   OH238225   0.301   4.847  14.230  0.0458 -0.0263 -0.4911
 4677TIP3    H138226   0.218   4.804  14.213  0.8077 -1.9400  0.3047
 4677TIP3    H238227   0.285   4.904  14.305 -0.4965 -0.5770 -0.1869
 4678TIP3   OH238228   8.435   0.065  14.389 -0.2645 -0.7313 -0.0261
 4678TIP3    H138229   8.381   0.052  14.312  1.2270 -1.3145 -1.0307
 4678TIP3    H238230   8.496  -0.009  14.389  0.0276 -0.5453  1.5061
 4679TIP3   OH238231   1.146   3.344  14.220 -0.5496 -0.0089 -0.4114
 4679TIP3    H138232   1.058   3.321  14.249  0.1805 -2.3192  0.2499
 4679TIP3    H238233   1.152   3.439  14.230 -1.4848 -0.2076  3.9785
 4680TIP3   OH238234   5.805   1.794  14.826 -0.1866  0.2009 -0.1947
 4680TIP3    H138235   5.718   1.761  14.848 -0.0662  1.6894  3.2390
 4680TIP3    H238236   5.863   1.720  14.840 -0.6402 -0.0692  0.2976
 4681TIP3   OH238237   8.371   1.171  14.377  0.0850  0.4797 -0.6496
 4681TIP3    H138238   8.381   1.253  14.329  1.6855  1.2634  0.8840
 4681TIP3    H238239   8.419   1.107  14.325 -0.4917  0.6902 -1.4505
 4682TIP3   OH238240   7.636   6.628  13.918 -0.0802  0.0894  0.0507
 4682TIP3    H138241   7.690   6.703  13.892  1.2024 -0.4714  1.0092
 4682TIP3    H238242   7.576   6.615  13.844  0.0551  1.6949 -0.3735
 4683TIP3   OH238243   3.484   6.469  14.539  0.2750  0.7495 -0.2030
 4683TIP3    H138244   3.567   6.470  14.492  1.6794 -1.5219  2.0124
 4683TIP3    H238245   3.499   6.522  14.618  0.2289 -1.0235  1.0473
 4684TIP3   OH238246   5.188   2.283  14.970  0.1314  0.4900  0.2278
 4684TIP3    H138247   5.247   2.348  14.931  0.8666  0.0968  0.6483
 4684TIP3    H238248   5.125   2.264  14.901  0.6395  0.7544 -0.3222
 4685TIP3   OH238249   0.658   3.411  14.646 -0.0203 -0.3022  0.3942
 4685TIP3    H138250   0.580   3.436  14.696 -1.0500  2.2724 -2.2047
 4685TIP3    H238251   0.727   3.469  14.678  0.0233 -0.4706  0.6074
 4686TIP3   OH238252   7.055   4.335  14.718  0.1933 -0.8107  0.1845
 4686TIP3    H138253   7.007   4.278  14.778 -0.9478 -0.2174 -0.1308
 4686TIP3    H238254   7.074   4.279  14.642 -0.1126 -1.0245  0.2614
 4687TIP3   OH238255   5.026   4.773  14.414 -0.3972  0.8439  0.1623
 4687TIP3    H138256   5.093   4.839  14.398 -1.7625  2.0555 -1.0342
 4687TIP3    H238257   5.042   4.706  14.348 -0.7201  1.4696 -0.5783
 4688TIP3   OH238258   2.204   2.630  13.551  0.1781  0.1853 -0.4024
 4688TIP3    H138259   2.243   2.556  13.599  0.7377  1.9825  2.1201
 4688TIP3    H238260   2.276   2.693  13.543 -0.8923  1.4432 -0.3214
 4689TIP3   OH238261   7.186   7.251  14.939  0.4153  0.2276  0.1817
 4689TIP3    H138262   7.105   7.230  14.986 -0.6811  0.3503 -1.5394
 4689TIP3    H238263   7.157   7.305  14.865  2.0744  0.2203 -0.5145
 4690TIP3   OH238264   3.273   6.198  15.202 -0.3525 -0.1864  0.0046
 4690TIP3    H138265   3.232   6.143  15.268  0.1401  1.4628  1.7742
 4690TIP3    H238266   3.233   6.284  15.213  0.6675  0.4468 -0.9615
 4691TIP3   OH238267   6.415   0.743  14.410  0.4466 -0.4142 -0.9061
 4691TIP3    H138268   6.471   0.808  14.453 -1.2033  1.5360 -1.5755
 4691TIP3    H238269   6.458   0.659  14.429  0.9190  0.4728  2.7827
 4692TIP3   OH238270   3.202   6.099  14.145 -0.5210  0.7178  0.2666
 4692TIP3    H138271   3.156   6.135  14.069 -2.5514  0.0637  1.0995
 4692TIP3    H238272   3.233   6.175  14.193 -1.3118  1.2313 -0.0112
 4693TIP3   OH238273   3.392   1.744  13.975  0.4056  0.1298 -0.1084
 4693TIP3    H138274   3.464   1.755  13.913  1.1203  0.4685  0.7564
 4693TIP3    H238275   3.328   1.811  13.951  0.1551 -0.4607 -1.1651
 4694TIP3   OH238276   1.188   4.075  13.849  0.1358  0.2941  0.1374
 4694TIP3    H138277   1.093   4.071  13.852  0.1162 -1.9869 -1.1766
 4694TIP3    H238278   1.208   4.121  13.768  0.1493  0.4008  0.2012
 4695TIP3   OH238279   4.654   0.275  13.609  0.5345 -0.0223  0.0686
 4695TIP3    H138280   4.560   0.293  13.604  0.3456 -1.0655 -0.6652
 4695TIP3    H238281   4.672   0.221  13.531  0.8980 -3.3144  2.2001
 4696TIP3   OH238282   3.324   0.200  13.488  0.7771  0.0430 -0.5621
 4696TIP3    H138283   3.233   0.187  13.463  0.0147  1.6694  1.1208
 4696TIP3    H238284   3.350   0.117  13.529 -0.0038 -0.3587 -0.8614
 4697TIP3   OH238285   3.588   5.067  12.923 -0.1257 -0.2077 -0.2735
 4697TIP3    H138286   3.677   5.035  12.916 -0.6842 -1.4938 -2.3486
 4697TIP3    H238287   3.551   5.022  12.998 -0.1024 -2.5702 -1.5988
 4698TIP3   OH238288   7.983   0.340  12.847 -0.8324  0.2195 -0.7909
 4698TIP3    H138289   8.041   0.327  12.773  0.9769 -0.3322  0.6532
 4698TIP3    H238290   7.997   0.264  12.903 -0.3881  1.6930  1.2050
 4699TIP3   OH238291   0.481   5.190  12.951 -0.1402 -0.5566 -0.9233
 4699TIP3    H138292   0.550   5.251  12.978  0.6598 -0.5609 -2.7581
 4699TIP3    H238293   0.403   5.245  12.941  0.2819 -0.0202 -1.4131
 4700TIP3   OH238294   7.614   0.733  15.037 -0.6449 -0.1365  0.1326
 4700TIP3    H138295   7.587   0.798  14.972 -0.0580 -0.4579 -0.4390
 4700TIP3    H238296   7.552   0.745  15.110  0.0678  1.7434  0.4741
 4701TIP3   OH238297   3.447   8.126  14.910 -0.0825  0.0799 -0.2088
 4701TIP3    H138298   3.504   8.093  14.841 -0.4147  0.2143 -0.5543
 4701TIP3    H238299   3.454   8.221  14.905 -1.5199  0.1566 -1.2932
 4702TIP3   OH238300   1.517   3.589  13.304 -0.0746 -0.1527 -0.2990
 4702TIP3    H138301   1.492   3.571  13.213  1.6845 -1.0397 -0.6451
 4702TIP3    H238302   1.560   3.509  13.334 -0.5263  0.1708  1.3000
 4703TIP3   OH238303   1.472   2.789  12.992  0.0078 -0.1920  0.6034
 4703TIP3    H138304   1.550   2.769  13.042  1.5647  0.0293 -1.5869
 4703TIP3    H238305   1.438   2.703  12.965  1.0593 -0.2568 -0.6245
 4704TIP3   OH238306   4.698   5.917  14.718  0.2486 -0.1154  0.1242
 4704TIP3    H138307   4.637   5.846  14.738  0.5021 -0.3883 -0.0674
 4704TIP3    H238308   4.777   5.873  14.687 -0.0355  0.2676 -1.2407
 4705TIP3   OH238309   0.381   2.873  15.026 -0.2650  0.2146 -0.2110
 4705TIP3    H138310   0.374   2.873  14.930 -1.8838 -1.9523 -0.1795
 4705TIP3    H238311   0.297   2.837  15.056  0.7789 -0.6106  1.9490
 4706TIP3   OH238312   2.407   7.507  13.364 -0.3234  0.3766  0.3537
 4706TIP3    H138313   2.455   7.439  13.316  0.8031 -1.6104  3.9154
 4706TIP3    H238314   2.475   7.561  13.404 -1.0232 -0.2904  2.5869
 4707TIP3   OH238315   4.140   1.125  14.128  0.2724  0.8301 -0.3411
 4707TIP3    H138316   4.227   1.162  14.145  0.5098  0.9220 -1.6617
 4707TIP3    H238317   4.090   1.198  14.091 -0.4412  0.8304  0.5799
 4708TIP3   OH238318   0.023   7.459  14.650 -0.4585  0.3677 -0.2884
 4708TIP3    H138319   0.095   7.492  14.596  0.3282 -1.2724 -0.3304
 4708TIP3    H238320  -0.048   7.522  14.638 -0.1877  0.3108 -2.9444
 4709TIP3   OH238321   0.462   3.181  14.700 -0.0829  0.5948 -0.2076
 4709TIP3    H138322   0.420   3.216  14.778  0.4779 -1.8827  1.3242
 4709TIP3    H238323   0.506   3.257  14.660 -1.5766  2.1920  1.0375
 4710TIP3   OH238324   4.933   2.417  13.802  0.2926 -0.3249 -0.3271
 4710TIP3    H138325   4.876   2.493  13.810  0.3133 -0.2884 -0.5246
 4710TIP3    H238326   4.991   2.438  13.729  0.5597 -0.3616 -0.1254
 4711TIP3   OH238327   0.356   0.200  14.508 -0.0779 -0.3854 -0.5638
 4711TIP3    H138328   0.372   0.266  14.575  0.2039 -0.2370 -0.7689
 4711TIP3    H238329   0.413   0.227  14.435  0.0863 -0.8910 -0.6238
 4712TIP3   OH238330   3.555   5.058  15.050  0.1410 -0.2714  0.1967
 4712TIP3    H138331   3.534   5.030  15.138  0.2904 -1.0605 -0.0139
 4712TIP3    H238332   3.534   4.983  14.994  0.9815 -0.1357 -0.3240
 4713TIP3   OH238333   6.123   2.461  14.294 -0.0405 -0.4948 -0.5971
 4713TIP3    H138334   6.156   2.413  14.218 -0.1327 -1.8940  0.2119
 4713TIP3    H238335   6.174   2.428  14.368  1.3139  2.1070 -0.2207
 4714TIP3   OH238336   4.455   5.546  14.126 -0.3148  0.4222  0.5332
 4714TIP3    H138337   4.501   5.497  14.193  0.3549  0.2697 -0.0286
 4714TIP3    H238338   4.520   5.560  14.057 -0.9980  0.5407 -0.1019
 4715TIP3   OH238339   1.559   5.976  14.693 -0.5025  0.0599  0.0995
 4715TIP3    H138340   1.480   5.937  14.730 -0.8024 -0.0477 -0.6441
 4715TIP3    H238341   1.557   5.952  14.601 -0.8040  1.9722 -0.4518
 4716TIP3   OH238342   3.418   0.933  14.139  0.1265 -0.0599 -0.3094
 4716TIP3    H138343   3.464   0.928  14.055 -0.0069  3.0238 -0.6977
 4716TIP3    H238344   3.486   0.916  14.204  0.8015 -0.0816 -1.0047
 4717TIP3   OH238345   0.118   3.374  14.831  0.4682 -0.2537  1.3456
 4717TIP3    H138346   0.024   3.381  14.843  0.2572  1.6282 -0.9153
 4717TIP3    H238347   0.154   3.455  14.867  0.8695  0.4737 -0.6060
 4718TIP3   OH238348   4.443   4.262  13.662 -0.5499  0.4488 -0.1579
 4718TIP3    H138349   4.467   4.284  13.572  0.6235 -1.1775 -0.2788
 4718TIP3    H238350   4.509   4.306  13.715 -1.9473  2.4449  0.0617
 4719TIP3   OH238351   4.650   2.893  13.774 -0.4038 -0.5185 -0.2719
 4719TIP3    H138352   4.647   2.804  13.739  0.6863 -0.5140 -0.4120
 4719TIP3    H238353   4.616   2.948  13.703  0.1383 -0.6996 -0.6836
 4720TIP3   OH238354   3.940   5.003  13.481  0.5047  0.3726  0.0930
 4720TIP3    H138355   3.855   4.978  13.444  0.1558 -0.7681  1.5618
 4720TIP3    H238356   4.003   4.944  13.438  0.5115  0.9520 -0.7074
 4721TIP3   OH238357   8.407   7.500  13.769 -0.0038  0.4074  0.2904
 4721TIP3    H138358   8.326   7.454  13.788 -0.5080  1.5761  1.0594
 4721TIP3    H238359   8.421   7.486  13.675 -0.9277 -0.0553  0.2106
 4722TIP3   OH238360   7.005   3.886  14.514 -0.2424  0.8853 -0.4722
 4722TIP3    H138361   6.932   3.924  14.564 -0.0135  0.7704 -0.0473
 4722TIP3    H238362   6.968   3.807  14.474  0.2858 -0.5697  1.7726
 4723TIP3   OH238363   6.119   8.411  13.170 -0.2418 -0.3698 -0.1877
 4723TIP3    H138364   6.075   8.394  13.087  1.4587 -0.1342 -1.1792
 4723TIP3    H238365   6.210   8.384  13.156  0.1526 -0.0721  1.5105
 4724TIP3   OH238366   1.957   6.317  13.721 -0.0830 -0.1730 -0.4350
 4724TIP3    H138367   2.034   6.272  13.686  0.0798  0.8612 -1.4843
 4724TIP3    H238368   1.977   6.329  13.814  0.9238 -0.1448 -0.6386
 4725TIP3   OH238369   0.013   0.721  13.931 -0.0051 -0.3722  0.6379
 4725TIP3    H138370  -0.073   0.681  13.926 -0.0211 -0.1939 -0.9415
 4725TIP3    H238371   0.033   0.748  13.842  1.7449 -0.5122  0.9381
 4726TIP3   OH238372   3.961   3.484  13.847 -0.0778 -0.1675 -0.6847
 4726TIP3    H138373   3.880   3.460  13.891  2.2607 -2.8315  2.7809
 4726TIP3    H238374   3.976   3.413  13.784 -0.0527 -0.1071 -0.7476
 4727TIP3   OH238375   7.530   1.604  12.796 -0.4049  0.1415 -0.0352
 4727TIP3    H138376   7.569   1.681  12.838  0.5228 -0.8213  0.9349
 4727TIP3    H238377   7.519   1.541  12.867  0.0933 -1.1028 -1.0224
 4728TIP3   OH238378   6.696   1.522  14.359  0.1303 -0.1484  0.0267
 4728TIP3    H138379   6.727   1.575  14.286  0.4466  0.9842  0.9367
 4728TIP3    H238380   6.739   1.437  14.348  0.7710  0.2564 -0.6746
 4729TIP3   OH238381   3.161   1.853  14.773 -0.5990  0.4550 -0.0264
 4729TIP3    H138382   3.147   1.919  14.705 -0.3445 -1.9348 -2.5665
 4729TIP3    H238383   3.073   1.833  14.805 -0.7683  1.2905  0.0691
 4730TIP3   OH238384   4.252   2.890  14.163  0.6462 -0.2037 -0.0988
 4730TIP3    H138385   4.307   2.860  14.235  0.8521  0.5638  0.0701
 4730TIP3    H238386   4.307   2.881  14.085  1.5490  1.8753  0.2403
 4731TIP3   OH238387   8.265   0.009  14.631  0.3277 -0.0310  0.7047
 4731TIP3    H138388   8.303  -0.002  14.544  0.2982  2.2690  0.3371
 4731TIP3    H238389   8.240   0.102  14.635 -2.4724 -0.7417  2.0491
 4732TIP3   OH238390   3.794   6.837  14.727  0.6840 -0.5419  0.8453
 4732TIP3    H138391   3.745   6.756  14.717 -0.3875  0.0502  1.0840
 4732TIP3    H238392   3.730   6.900  14.762  1.9032 -0.0353  2.2973
 4733TIP3   OH238393   5.096   0.292  13.503  0.1076  0.2878 -0.2280
 4733TIP3    H138394   5.064   0.207  13.534 -1.0379  1.5056  2.2253
 4733TIP3    H238395   5.191   0.283  13.503  0.0941 -0.4433  1.9187
 4734TIP3   OH238396   7.730   7.081  14.493  0.1816  0.7668 -0.8735
 4734TIP3    H138397   7.652   7.106  14.443  0.3410  0.7453 -1.1339
 4734TIP3    H238398   7.701   7.008  14.548  0.1403  0.4436 -1.3190
 4735TIP3   OH238399   2.613   1.027  14.455  0.2884 -0.0796 -0.0873
 4735TIP3    H138400   2.686   1.053  14.399 -0.3454  0.4077 -0.7231
 4735TIP3    H238401   2.575   1.110  14.484 -1.3945 -0.2274 -1.6370
 4736TIP3   OH238402   4.458   4.107  14.313  0.0861 -0.0575 -0.7060
 4736TIP3    H138403   4.388   4.165  14.343  1.1838  1.4080 -0.8896
 4736TIP3    H238404   4.414   4.025  14.292 -1.2098 -0.0798  1.7265
 4737TIP3   OH238405   4.020   1.345  14.019  0.4703  0.2669  0.3992
 4737TIP3    H138406   3.976   1.417  14.063 -0.6872  0.2063 -0.5822
 4737TIP3    H238407   3.948   1.295  13.979  1.3032 -0.9804  0.4027
 4738TIP3   OH238408   7.823   8.215  14.519  0.1291  0.0464  0.1202
 4738TIP3    H138409   7.760   8.221  14.448  0.7933  1.3921 -0.3993
 4738TIP3    H238410   7.770   8.210  14.599 -0.6860  2.3080 -0.2183
 4739TIP3   OH238411   4.033   5.372  14.446 -0.1110  0.0633  0.2425
 4739TIP3    H138412   4.083   5.313  14.389 -0.6610 -0.9394  0.7704
 4739TIP3    H238413   4.053   5.342  14.535 -2.2861 -0.9292  0.4455
 4740TIP3   OH238414   0.162   3.687  13.872 -0.2846  0.1258  0.1969
 4740TIP3    H138415   0.199   3.774  13.886 -0.2523 -0.2616  2.8873
 4740TIP3    H238416   0.230   3.627  13.903 -1.1907 -0.7682  0.4834
 4741TIP3   OH238417   0.585   6.569  14.699  0.4442  0.0874 -0.2235
 4741TIP3    H138418   0.521   6.589  14.631 -1.1582 -0.2309  1.1214
 4741TIP3    H238419   0.651   6.516  14.655  0.0658  0.8537 -1.7802
 4742TIP3   OH238420   1.824   5.691  13.908 -0.4951  0.0350 -0.0691
 4742TIP3    H138421   1.872   5.701  13.826 -1.4347 -0.0695 -0.6560
 4742TIP3    H238422   1.888   5.658  13.971  0.6130  1.5369 -0.3532
 4743TIP3   OH238423   4.437   8.120  14.485  0.5603 -0.2715 -0.5006
 4743TIP3    H138424   4.533   8.120  14.487  0.6300 -0.7721 -2.0819
 4743TIP3    H238425   4.413   8.211  14.506  1.3854 -0.0956 -0.2616
 4744TIP3   OH238426   1.176   6.950  13.657  0.4128  0.1979  0.2032
 4744TIP3    H138427   1.145   7.002  13.732  0.6151  0.2823  0.2289
 4744TIP3    H238428   1.234   6.885  13.696  0.7289  0.4103  0.0904
 4745TIP3   OH238429   1.648   0.583  14.055 -0.0004 -0.2113  0.3859
 4745TIP3    H138430   1.622   0.618  13.970  0.0558  0.5228  0.6640
 4745TIP3    H238431   1.692   0.500  14.035 -2.4243 -1.4566 -0.1211
 4746TIP3   OH238432   4.582   5.883  13.555  0.6424  0.8359  0.7377
 4746TIP3    H138433   4.625   5.968  13.564 -0.9737  2.1784 -2.6716
 4746TIP3    H238434   4.653   5.820  13.544  1.8890  2.5124 -1.4923
 4747TIP3   OH238435   3.500   6.858  13.915 -0.1558 -0.4217 -0.9601
 4747TIP3    H138436   3.568   6.801  13.879  0.0204 -0.7755 -0.0965
 4747TIP3    H238437   3.547   6.920  13.971 -0.4587 -0.1041 -1.0518
 4748TIP3   OH238438   2.785   5.068  14.283 -0.3341  0.6879  0.4623
 4748TIP3    H138439   2.740   5.009  14.222 -1.5447  1.0030  1.0127
 4748TIP3    H238440   2.878   5.057  14.263 -0.3256 -2.7230  1.6974
 4749TIP3   OH238441   5.141   3.448  14.241  0.2035  0.0734  0.7654
 4749TIP3    H138442   5.183   3.532  14.259  0.9813 -0.0136 -0.5628
 4749TIP3    H238443   5.049   3.461  14.266  0.2375  1.4486  0.2311
 4750TIP3   OH238444   2.377   5.944  14.531 -0.1029  0.1952 -1.3328
 4750TIP3    H138445   2.439   5.987  14.591  0.8851  0.2277 -2.3408
 4750TIP3    H238446   2.381   5.851  14.555 -1.1053  0.4359 -0.1485
 4751TIP3   OH238447   6.559   5.584  14.102  0.2607  0.1633 -0.3387
 4751TIP3    H138448   6.645   5.573  14.143 -0.1456 -2.1834  0.0429
 4751TIP3    H238449   6.497   5.549  14.167 -0.6613 -1.1278 -1.8327
 4752TIP3   OH238450   6.419   6.383  14.322  0.5508 -0.0495  0.1338
 4752TIP3    H138451   6.462   6.306  14.286 -0.5656 -0.4266 -0.4108
 4752TIP3    H238452   6.339   6.393  14.271 -0.4416  0.1482  1.6513
 4753TIP3   OH238453   2.506   4.155  14.491 -0.6758 -0.0837  0.1396
 4753TIP3    H138454   2.474   4.123  14.575 -1.8929 -1.6128 -0.8376
 4753TIP3    H238455   2.429   4.155  14.434 -0.0643  1.7350 -0.7837
 4754TIP3   OH238456   7.722   7.579  14.108 -0.5011  0.0466  0.1661
 4754TIP3    H138457   7.689   7.584  14.019 -0.0065  1.2346  0.0341
 4754TIP3    H238458   7.771   7.661  14.121 -1.5450  0.4523  1.9155
 4755TIP3   OH238459   2.453   4.924  12.870  0.0476 -0.8983  0.3026
 4755TIP3    H138460   2.436   5.017  12.886  0.9646 -0.7459  0.4634
 4755TIP3    H238461   2.535   4.923  12.820 -0.7781 -1.5548 -1.1151
 4756TIP3   OH238462   8.023   4.392  13.928  0.1242 -0.0233  0.2657
 4756TIP3    H138463   8.110   4.431  13.922 -0.5139  1.2702 -1.5737
 4756TIP3    H238464   7.967   4.461  13.961 -0.8279  0.4143 -2.0426
 4757TIP3   OH238465   4.565   3.429  13.845  0.5792 -0.3581 -0.9464
 4757TIP3    H138466   4.497   3.371  13.881 -0.6056  0.0908 -2.3605
 4757TIP3    H238467   4.620   3.450  13.920 -0.2485 -1.5572  0.0492
 4758TIP3   OH238468   7.630   4.874  14.073 -0.0344  0.5251 -0.0646
 4758TIP3    H138469   7.649   4.960  14.035  0.2592  0.3252 -0.3816
 4758TIP3    H238470   7.689   4.867  14.149 -0.7867  1.0214  0.5779
 4759TIP3   OH238471   6.037   7.738  15.095 -0.0127 -0.0084 -0.1395
 4759TIP3    H138472   5.943   7.730  15.111  0.1744 -0.6569  0.6817
 4759TIP3    H238473   6.058   7.664  15.037 -0.1650  0.6723 -1.0875
 4760TIP3   OH238474   2.309   4.361  13.566  0.0256 -0.5402 -0.3710
 4760TIP3    H138475   2.338   4.451  13.577  0.3201 -0.8867  2.4972
 4760TIP3    H238476   2.378   4.319  13.516  1.0397  0.3149  0.2761
 4761TIP3   OH238477   0.348   1.688  12.977  0.2593  0.0668  0.1486
 4761TIP3    H138478   0.273   1.713  13.032 -0.5457 -0.7852 -0.5428
 4761TIP3    H238479   0.320   1.707  12.888  1.5406  1.3820  0.0003
 4762TIP3   OH238480   4.087   8.283  14.839 -0.2503  0.1428  0.8511
 4762TIP3    H138481   4.154   8.229  14.797 -1.1611  0.1674 -0.7142
 4762TIP3    H238482   4.053   8.229  14.910 -1.1144 -1.3852 -0.6534
 4763TIP3   OH238483   1.072   6.820  15.002  0.1755 -0.7556  0.1473
 4763TIP3    H138484   1.035   6.736  14.975  0.1187 -0.4353 -0.8268
 4763TIP3    H238485   1.083   6.868  14.920  1.6797 -0.4065  0.5187
 4764TIP3   OH238486   2.034   5.253  14.077 -0.6757  0.5083  0.0867
 4764TIP3    H138487   2.097   5.281  14.011 -0.8254 -1.2795 -0.8970
 4764TIP3    H238488   2.088   5.213  14.145 -0.6683 -0.4782 -0.4720
 4765TIP3   OH238489   6.896   3.507  14.923 -0.2365  0.4338  0.0968
 4765TIP3    H138490   6.864   3.596  14.929 -0.3186  0.6375 -2.3256
 4765TIP3    H238491   6.833   3.455  14.972 -1.8376  1.3846 -0.8613
 4766TIP3   OH238492   6.558   4.144  13.462  0.6575  0.1989 -0.2496
 4766TIP3    H138493   6.626   4.137  13.395  2.9443 -0.1538  1.9239
 4766TIP3    H238494   6.534   4.237  13.463 -0.5902 -0.0439 -2.5361
 4767TIP3   OH238495   4.899   0.884  14.806 -0.2958 -0.0746 -0.5930
 4767TIP3    H138496   4.816   0.930  14.815 -0.0787  0.4751 -1.2769
 4767TIP3    H238497   4.878   0.792  14.822 -0.8437  0.1858  0.2211
 4768TIP3   OH238498   1.407   2.892  14.110 -0.4535  0.5297 -0.3459
 4768TIP3    H138499   1.462   2.867  14.184  0.1032  0.9967 -0.5909
 4768TIP3    H238500   1.374   2.979  14.132 -2.8756 -0.5836  0.7808
 4769TIP3   OH238501   2.035   2.769  13.924  0.4319 -0.5212  0.1463
 4769TIP3    H138502   2.109   2.816  13.887  0.0105 -0.4547 -0.6335
 4769TIP3    H238503   1.958   2.817  13.894  0.0114 -1.4714 -0.3295
 4770TIP3   OH238504   3.971   7.418  13.887 -0.6974  0.1999 -0.0633
 4770TIP3    H138505   3.993   7.338  13.934  0.1975 -0.3064 -1.2899
 4770TIP3    H238506   4.053   7.445  13.846 -0.8925  1.9647  0.6176
 4771TIP3   OH238507   3.036   8.294  14.968 -0.6129 -0.1731 -0.2810
 4771TIP3    H138508   3.105   8.311  15.032  1.0830 -0.7689 -1.8312
 4771TIP3    H238509   2.984   8.374  14.965  2.1313  1.7149 -1.4973
 4772TIP3   OH238510   6.470   3.903  13.559  0.2396  0.0049 -0.0769
 4772TIP3    H138511   6.508   3.976  13.510  0.7069  0.1921  0.5441
 4772TIP3    H238512   6.545   3.863  13.604 -0.3091  0.5179  1.3526
 4773TIP3   OH238513   3.954   7.795  13.169 -0.4991  0.5532 -0.4041
 4773TIP3    H138514   3.888   7.765  13.231 -0.7665 -0.3261 -1.0849
 4773TIP3    H238515   3.904   7.829  13.095 -0.2175 -0.5421 -1.1208
 4774TIP3   OH238516   2.496   3.246  13.658  0.0360  0.0539 -0.6753
 4774TIP3    H138517   2.486   3.155  13.685 -0.8655  0.5867  0.8939
 4774TIP3    H238518   2.455   3.249  13.571  0.9031 -1.2111 -1.1566
 4775TIP3   OH238519   6.435   4.723  14.041  0.3703  0.3799 -0.3915
 4775TIP3    H138520   6.415   4.782  14.113  0.7218  0.3531 -0.2761
 4775TIP3    H238521   6.504   4.666  14.074 -0.6229 -0.7340 -0.1642
 4776TIP3   OH238522   7.300   2.928  13.360  0.7035  0.4225  0.1126
 4776TIP3    H138523   7.302   2.883  13.276  2.8208  0.3611  0.1435
 4776TIP3    H238524   7.208   2.925  13.387  0.3941 -1.7739 -0.9904
 4777TIP3   OH238525   5.465   8.178  13.912 -0.1676 -0.0163 -0.7687
 4777TIP3    H138526   5.449   8.097  13.961 -2.7646  1.4412  1.0669
 4777TIP3    H238527   5.525   8.228  13.968 -2.1074  1.1065  0.4102
 4778TIP3   OH238528   3.890   2.382  14.547  0.3906 -0.1241 -0.3023
 4778TIP3    H138529   3.933   2.319  14.489  2.3160  1.9591 -1.2877
 4778TIP3    H238530   3.865   2.455  14.490 -1.7235  0.0845  0.8012
 4779TIP3   OH238531   2.761   5.087  14.569 -0.8052  0.4331 -0.3153
 4779TIP3    H138532   2.748   5.106  14.476  1.7659  0.9249 -0.6406
 4779TIP3    H238533   2.822   5.154  14.599 -0.3148 -0.6907  1.3136
 4780TIP3   OH238534   2.692   0.271  14.159  0.2720  0.1683  0.5084
 4780TIP3    H138535   2.754   0.226  14.217 -1.0492 -1.0737  0.9920
 4780TIP3    H238536   2.733   0.266  14.072  0.3163 -1.7406  0.5968
 4781TIP3   OH238537   3.487   0.282  14.655  0.2819 -0.7169  0.2331
 4781TIP3    H138538   3.398   0.317  14.667 -0.3307 -2.4103  1.0698
 4781TIP3    H238539   3.541   0.332  14.716 -0.3291 -0.4802  0.5891
 4782TIP3   OH238540   0.368   6.292  14.833 -0.3138  0.3545  0.6007
 4782TIP3    H138541   0.413   6.240  14.766 -0.8522 -0.6177  0.9689
 4782TIP3    H238542   0.435   6.309  14.898 -0.1108  0.1674  0.4441
 4783TIP3   OH238543   0.896   1.571  13.521  0.9188  0.2184  0.5805
 4783TIP3    H138544   0.867   1.630  13.590 -2.3842  0.1915 -0.6088
 4783TIP3    H238545   0.876   1.617  13.439  3.0019 -0.5027 -0.4074
 4784TIP3   OH238546   6.251   8.027  13.281 -0.1134  0.3541  0.0888
 4784TIP3    H138547   6.319   8.092  13.300  0.4784 -0.4065  0.6671
 4784TIP3    H238548   6.239   8.032  13.186  1.7092 -0.3964 -0.2267
 4785TIP3   OH238549   3.812   5.779  13.391 -0.1396  1.1039 -0.3951
 4785TIP3    H138550   3.786   5.709  13.332  1.1988  0.0970  0.1594
 4785TIP3    H238551   3.733   5.833  13.400 -1.1855 -0.2647 -0.9241
 4786TIP3   OH238552   1.312   7.256  13.667 -0.5605  0.5328 -0.2413
 4786TIP3    H138553   1.387   7.202  13.692 -1.8733 -1.3772 -0.1687
 4786TIP3    H238554   1.345   7.345  13.666  1.8924 -0.3101 -0.9151
 4787TIP3   OH238555   0.318   6.896  14.896 -0.8265  0.0883  0.6754
 4787TIP3    H138556   0.311   6.801  14.903  1.3689 -0.1422  0.2491
 4787TIP3    H238557   0.302   6.928  14.985 -2.2394 -0.5960  0.6948
 4788TIP3   OH238558   1.590   3.543  13.788 -0.3277  0.7696  0.1206
 4788TIP3    H138559   1.641   3.498  13.720  1.0488  0.6722  1.1811
 4788TIP3    H238560   1.514   3.486  13.802  0.1220  0.0436 -0.3015
 4789TIP3   OH238561   3.702   6.029  15.143 -0.0264  0.1666  0.0928
 4789TIP3    H138562   3.762   5.955  15.143  1.6332  1.4279 -1.3024
 4789TIP3    H238563   3.651   6.019  15.063 -0.9639 -0.3240  0.7349
 4790TIP3   OH238564   5.718   4.041  13.739 -0.7797  0.1463  0.0789
 4790TIP3    H138565   5.648   4.049  13.674 -1.8089 -0.7641  1.0268
 4790TIP3    H238566   5.768   3.964  13.710 -2.1065 -1.1549  1.1014
 4791TIP3   OH238567   3.152   6.085  15.423  0.2758  0.0842  0.1011
 4791TIP3    H138568   3.233   6.048  15.457 -0.4544 -1.4881  0.1953
 4791TIP3    H238569   3.136   6.162  15.478  0.0252 -1.4155  2.2477
 4792TIP3   OH238570   2.816   7.539  14.830  0.3987  0.0592 -0.1772
 4792TIP3    H138571   2.818   7.595  14.907 -0.7434  1.1764 -0.9247
 4792TIP3    H238572   2.772   7.459  14.859 -0.4419  0.6585  0.2206
 4793TIP3   OH238573   4.256   3.500  14.535  0.0535 -0.5934 -0.2047
 4793TIP3    H138574   4.336   3.495  14.483  1.6742  0.0178  2.0801
 4793TIP3    H238575   4.212   3.417  14.519  0.6449 -0.5659 -2.2262
 4794TIP3   OH238576   7.081   6.380  14.455  0.3361  0.0032  0.4009
 4794TIP3    H138577   7.078   6.475  14.467  0.4981  0.2763 -1.4380
 4794TIP3    H238578   7.003   6.360  14.402  0.0744 -0.9622  1.1150
 4795TIP3   OH238579   5.969   2.775  13.475  0.1006  0.5289 -0.4242
 4795TIP3    H138580   6.023   2.697  13.465 -0.7218 -0.0727 -0.3008
 4795TIP3    H238581   5.999   2.815  13.557  0.2857  0.1497 -0.3082
 4796TIP3   OH238582   4.890   3.738  15.009 -0.1561  0.1815 -0.3600
 4796TIP3    H138583   4.916   3.809  14.950  0.2675 -0.2357 -0.6859
 4796TIP3    H238584   4.939   3.662  14.977  1.1870  0.2637  1.3849
 4797TIP3   OH238585   2.697   7.955  15.156 -0.4357  0.3868  0.1701
 4797TIP3    H138586   2.741   8.023  15.106 -1.2977 -0.6926 -2.1694
 4797TIP3    H238587   2.604   7.966  15.136 -0.7861 -0.2913  1.2893
 4798TIP3   OH238588   1.931   6.893  14.677  0.5379 -0.3282 -0.3114
 4798TIP3    H138589   1.960   6.874  14.766  0.6223 -0.2261 -0.3165
 4798TIP3    H238590   2.009   6.928  14.634  1.2006 -2.5868 -1.1135
 4799TIP3   OH238591   7.087   7.719  14.850  0.1467  0.4135 -0.1127
 4799TIP3    H138592   7.125   7.793  14.896  0.3436  1.3104 -1.6341
 4799TIP3    H238593   7.143   7.707  14.773 -2.2546  1.5012 -2.1881
 4800TIP3   OH238594   2.482   3.009  13.831  0.4894 -0.4399 -0.0178
 4800TIP3    H138595   2.559   2.952  13.835  0.4782 -0.6211 -1.6631
 4800TIP3    H238596   2.494   3.071  13.903  1.1077 -1.7554  1.0559
 4801TIP3   OH238597   2.708   4.354  14.508  0.1773 -0.0820  0.5460
 4801TIP3    H138598   2.638   4.295  14.479 -0.2822  0.5376  0.3758
 4801TIP3    H238599   2.664   4.415  14.568  0.1112  1.5794 -1.1082
 4802TIP3   OH238600   7.742   4.765  14.747 -0.0426  0.1183  0.1507
 4802TIP3    H138601   7.799   4.822  14.799 -0.2235  0.4309  0.0141
 4802TIP3    H238602   7.717   4.819  14.672 -2.0658  0.7019  1.1641
 4803TIP3   OH238603   7.336   5.542  14.572  0.3474  0.0452 -0.1103
 4803TIP3    H138604   7.347   5.479  14.643  0.3986 -0.6070 -0.6812
 4803TIP3    H238605   7.369   5.624  14.607 -0.4461 -0.0548  0.9248
 4804TIP3   OH238606   6.981   6.336  13.232  0.1294 -0.3136 -0.0876
 4804TIP3    H138607   7.049   6.401  13.212  0.0071 -0.1099  0.1568
 4804TIP3    H238608   6.899   6.386  13.231 -0.1250 -0.7188 -1.2508
 4805TIP3   OH238609   5.354   3.011  14.325  0.1868 -0.0586 -0.4342
 4805TIP3    H138610   5.385   2.934  14.277 -1.2981 -0.0305 -1.5062
 4805TIP3    H238611   5.272   2.984  14.365  1.3544 -0.0791  2.2156
 4806TIP3   OH238612   3.200   5.708  14.869  0.0196  0.2740 -0.0117
 4806TIP3    H138613   3.290   5.676  14.869 -0.7096 -1.9345  0.4199
 4806TIP3    H238614   3.176   5.713  14.961 -0.3894  0.6170 -0.1312
 4807TIP3   OH238615   1.156   5.139  13.551 -0.1501 -0.0366 -0.5656
 4807TIP3    H138616   1.146   5.227  13.515  0.0843 -0.3324 -1.3707
 4807TIP3    H238617   1.076   5.093  13.526 -0.8696  0.3035  0.9649
 4808TIP3   OH238618   5.998   1.392  13.911 -0.3930 -0.5941  0.2032
 4808TIP3    H138619   6.040   1.470  13.876  0.8511 -0.1437  2.4664
 4808TIP3    H238620   6.066   1.325  13.911 -0.3577 -0.5985  1.5583
 4809TIP3   OH238621   6.689   7.997  14.381  0.2234 -0.0942  0.1540
 4809TIP3    H138622   6.652   8.074  14.339 -0.0673 -0.3347 -0.0325
 4809TIP3    H238623   6.775   7.985  14.340  0.2105  0.0456  0.0874
 4810TIP3   OH238624   3.632   7.157  15.229  0.1991 -0.0129  0.4086
 4810TIP3    H138625   3.702   7.186  15.171  1.9399 -1.4310  1.6860
 4810TIP3    H238626   3.602   7.237  15.272 -2.1571  1.3758 -3.2560
 4811TIP3   OH238627   1.526   4.380  15.042  0.5318 -0.1783  0.3479
 4811TIP3    H138628   1.439   4.375  15.001  0.9632 -0.3018 -0.5860
 4811TIP3    H238629   1.508   4.399  15.134 -0.4522  0.9226 -0.0401
 4812TIP3   OH238630   6.033   6.894  14.258 -0.2096  0.3293  0.3991
 4812TIP3    H138631   6.074   6.892  14.171 -1.5975  0.8081 -0.2936
 4812TIP3    H238632   6.018   6.987  14.275 -2.6044  0.1215 -0.1960
 4813TIP3   OH238633   4.192   7.764  13.995 -0.1434  0.0441  0.5706
 4813TIP3    H138634   4.156   7.842  13.953 -1.1357 -1.8076 -2.2285
 4813TIP3    H238635   4.118   7.726  14.043  0.3699  0.7982  2.0349
 4814TIP3   OH238636   3.634   0.791  12.985  0.0528  0.6599  0.3902
 4814TIP3    H138637   3.565   0.729  12.962  0.3246  0.4340  0.1782
 4814TIP3    H238638   3.698   0.739  13.033 -0.4320  1.0905  1.5606
 4815TIP3   OH238639   1.097   1.855  13.224  0.5035  0.0566 -0.3281
 4815TIP3    H138640   1.149   1.805  13.161  0.2838  0.6378 -0.9846
 4815TIP3    H238641   1.056   1.789  13.280 -0.5216 -0.5599 -1.7503
 4816TIP3   OH238642   0.149   4.821  15.153 -0.1752  0.3951 -0.0301
 4816TIP3    H138643   0.181   4.757  15.217 -2.5004  0.6043  1.4628
 4816TIP3    H238644   0.189   4.904  15.180 -0.3697  0.2987  0.5699
 4817TIP3   OH238645   3.696   6.540  14.369  0.3285 -0.2645  0.0313
 4817TIP3    H138646   3.689   6.629  14.405  1.5654 -0.2887  0.3535
 4817TIP3    H238647   3.702   6.552  14.275 -2.0210 -0.1567 -0.1829
 4818TIP3   OH238648   0.208   3.639  13.243 -0.3017  0.2189 -0.0296
 4818TIP3    H138649   0.270   3.705  13.210  0.1917 -0.8559 -1.3410
 4818TIP3    H238650   0.123   3.683  13.240  0.0929  0.9804 -0.3464
 4819TIP3   OH238651   6.962   4.848  12.671 -0.0667 -0.1638  0.0700
 4819TIP3    H138652   6.894   4.803  12.622 -0.8117  0.2325  0.7193
 4819TIP3    H238653   6.942   4.941  12.661  2.3923  0.2442 -2.6481
 4820TIP3   OH238654   1.618   1.160  12.759 -0.3924 -0.2673 -0.5414
 4820TIP3    H138655   1.619   1.086  12.699 -0.9603 -1.1334  0.4708
 4820TIP3    H238656   1.613   1.120  12.846 -0.7202  0.9590  0.0278
 4821TIP3   OH238657   8.149   7.397  13.824  0.6723  0.5472  0.2146
 4821TIP3    H138658   8.079   7.335  13.846  1.7656 -1.3350 -1.2054
 4821TIP3    H238659   8.180   7.430  13.908 -0.2869 -0.4954  1.0011
 4822TIP3   OH238660   1.579   1.316  14.349  0.1761  0.2028 -0.3314
 4822TIP3    H138661   1.525   1.253  14.397 -0.8833  1.1248 -0.2625
 4822TIP3    H238662   1.638   1.353  14.414  1.8396 -1.7437 -0.6566
 4823TIP3   OH238663   4.001   6.364  15.426 -0.3441 -0.3225 -0.0090
 4823TIP3    H138664   3.924   6.400  15.382  0.2837 -0.3073 -1.1304
 4823TIP3    H238665   3.966   6.296  15.484 -1.4323  1.3226  1.3629
 4824TIP3   OH238666   7.621   0.790  14.087 -0.0352 -0.1652 -0.2126
 4824TIP3    H138667   7.537   0.824  14.056 -0.0487 -0.9496 -1.0824
 4824TIP3    H238668   7.600   0.704  14.124  0.3811 -0.3698 -0.4435
 4825TIP3   OH238669   7.808   3.272  14.781  0.3846 -0.3460 -0.2411
 4825TIP3    H138670   7.880   3.209  14.782  0.0654 -0.7343 -0.9470
 4825TIP3    H238671   7.770   3.264  14.694 -1.2327 -0.9637  0.4774
 4826TIP3   OH238672   4.433   4.576  13.801 -0.4227 -0.1661  0.4607
 4826TIP3    H138673   4.432   4.636  13.727  1.7587  0.4800  0.8780
 4826TIP3    H238674   4.522   4.540  13.802 -0.6181 -0.7092  2.3207
 4827TIP3   OH238675   8.184   2.084  13.604  0.5191 -0.0401  0.7485
 4827TIP3    H138676   8.136   2.135  13.539 -0.6929 -1.2443  0.6691
 4827TIP3    H238677   8.270   2.069  13.564 -0.8645 -2.5708 -1.6224
 4828TIP3   OH238678   0.578   7.859  14.334 -0.0419  0.3658  0.3746
 4828TIP3    H138679   0.607   7.849  14.425 -0.0445 -3.0530  0.1226
 4828TIP3    H238680   0.486   7.832  14.335  0.5489 -1.9743 -0.8953
 4829TIP3   OH238681   2.645   3.889  13.731  0.1311  0.4012  0.3299
 4829TIP3    H138682   2.661   3.906  13.639 -0.3549  1.2172  0.3921
 4829TIP3    H238683   2.568   3.941  13.753 -0.4955 -0.7163  0.9050
 4830TIP3   OH238684   7.615   1.720  13.612 -0.4821 -0.5662  0.1356
 4830TIP3    H138685   7.703   1.711  13.577 -1.0852  0.0303 -1.6460
 4830TIP3    H238686   7.609   1.811  13.641 -0.2663 -0.8274  1.0350
 4831TIP3   OH238687   2.278   0.344  14.503  0.4645  0.0412 -0.2527
 4831TIP3    H138688   2.273   0.420  14.445 -0.4149 -0.1780 -0.4688
 4831TIP3    H238689   2.193   0.301  14.495  0.6609 -0.5122  0.4960
 4832TIP3   OH238690   8.370   3.949  13.583 -0.3777 -0.3326 -0.2277
 4832TIP3    H138691   8.368   3.890  13.659 -0.5581 -0.0023  0.0311
 4832TIP3    H238692   8.321   4.026  13.612  0.4016  0.2127 -0.3341
 4833TIP3   OH238693   3.328   3.776  14.371 -1.1363 -0.0844  0.2030
 4833TIP3    H138694   3.272   3.850  14.347 -1.4563 -0.5015 -0.3341
 4833TIP3    H238695   3.268   3.712  14.409 -1.1446 -0.8146 -0.9976
 4834TIP3   OH238696   3.451   2.283  14.094  0.3455  0.3328 -0.0923
 4834TIP3    H138697   3.386   2.348  14.122  0.5820  0.0900  1.1129
 4834TIP3    H238698   3.501   2.326  14.025 -1.1477  0.4888 -1.1300
 4835TIP3   OH238699   5.219   2.883  13.578 -0.6461  0.0738  0.4469
 4835TIP3    H138700   5.165   2.907  13.653 -0.6997  1.6606 -0.0708
 4835TIP3    H238701   5.159   2.881  13.504 -0.2763  0.2910  0.1391
 4836TIP3   OH238702   2.450   0.589  13.431 -0.2799  0.0027  0.6091
 4836TIP3    H138703   2.405   0.591  13.347  2.1504 -1.4192 -0.8605
 4836TIP3    H238704   2.543   0.588  13.408  0.4736 -0.4208  3.3303
 4837TIP3   OH238705   2.089   3.108  15.038  0.4307 -0.0609  0.1494
 4837TIP3    H138706   2.028   3.181  15.028  0.6037  0.1888  0.8434
 4837TIP3    H238707   2.174   3.151  15.053  0.3400 -0.3758  1.7810
 4838TIP3   OH238708   7.085   1.129  13.207 -0.1357  0.2915  0.3762
 4838TIP3    H138709   7.141   1.108  13.281  1.2517  1.0940 -0.3995
 4838TIP3    H238710   7.018   1.188  13.242 -0.7218 -0.9321  1.3802
 4839TIP3   OH238711   4.410   3.825  13.461 -0.4935  0.2739  0.7445
 4839TIP3    H138712   4.418   3.735  13.493 -0.1064 -0.8324 -2.1184
 4839TIP3    H238713   4.498   3.861  13.471 -0.2242 -0.2651  0.4072
 4840TIP3   OH238714   3.510   3.726  14.795  0.0397 -0.0313 -0.1881
 4840TIP3    H138715   3.570   3.742  14.722  0.1908  0.0889 -0.0405
 4840TIP3    H238716   3.430   3.772  14.772  0.4735  0.9659  0.2383
 4841TIP3   OH238717   1.342   3.038  13.018  0.2117  0.8096 -0.5918
 4841TIP3    H138718   1.426   3.084  13.014  0.6673 -0.0928 -2.9730
 4841TIP3    H238719   1.366   2.946  13.023 -0.6719  0.6284  0.6138
 4842TIP3   OH238720   3.752   7.986  13.357 -0.7462  0.3124  0.1072
 4842TIP3    H138721   3.741   7.892  13.339  1.8403 -0.1152  0.4405
 4842TIP3    H238722   3.796   8.020  13.279 -0.7381  1.0501  0.4255
 4843TIP3   OH238723   0.168   0.684  13.456 -0.0154 -0.3811 -0.2375
 4843TIP3    H138724   0.095   0.745  13.464  0.4828  0.0799  0.9136
 4843TIP3    H238725   0.207   0.705  13.371 -0.1386  0.5704 -0.0667
 4844TIP3   OH238726   4.016   4.695  13.103 -0.0504 -0.1073 -0.1173
 4844TIP3    H138727   4.032   4.783  13.069 -0.0523  0.7421  1.9420
 4844TIP3    H238728   4.085   4.641  13.064 -1.8453 -0.0206 -3.9649
 4845TIP3   OH238729   7.929   7.663  13.797  0.1159  0.0423 -0.0112
 4845TIP3    H138730   7.883   7.747  13.804  1.6471  0.9444 -0.1828
 4845TIP3    H238731   7.984   7.660  13.875 -0.1151 -0.9449  0.1231
 4846TIP3   OH238732   4.578   0.005  13.134 -0.4972 -0.1319 -0.2714
 4846TIP3    H138733   4.518   0.043  13.069  0.1648 -0.3738 -1.0367
 4846TIP3    H238734   4.651   0.067  13.138 -0.9667  0.3762  0.9672
 4847TIP3   OH238735   5.539   6.155  13.850 -0.1378  0.1536  0.2273
 4847TIP3    H138736   5.586   6.077  13.879 -0.5812  0.1361  0.9285
 4847TIP3    H238737   5.512   6.198  13.932 -2.6108 -0.6152 -0.1031
 4848TIP3   OH238738   0.721   3.505  13.643  0.5572 -0.2684  0.1818
 4848TIP3    H138739   0.793   3.564  13.617 -0.5258  0.8132 -0.4576
 4848TIP3    H238740   0.757   3.417  13.630  2.1867  0.2201  1.0491
 4849TIP3   OH238741   4.323   6.631  14.665  0.2112 -0.0627 -0.0809
 4849TIP3    H138742   4.261   6.591  14.725  1.3041 -1.0166  0.4532
 4849TIP3    H238743   4.348   6.560  14.606  0.3554  0.4616 -0.6613
 4850TIP3   OH238744   3.174   0.428  13.857 -0.0590  0.0255  0.5841
 4850TIP3    H138745   3.186   0.418  13.951  0.6924 -0.4278  0.4484
 4850TIP3    H238746   3.194   0.520  13.840  1.1484 -0.1961  0.6887
 4851TIP3   OH238747   7.156   2.021  14.234  0.0771  0.0189  0.1020
 4851TIP3    H138748   7.084   1.966  14.264 -1.0828  1.3024 -0.2164
 4851TIP3    H238749   7.152   2.016  14.139  0.8955 -0.4697  0.0788
 4852TIP3   OH238750   5.864   8.125  13.910  0.1255 -0.3264 -0.1123
 4852TIP3    H138751   5.937   8.125  13.848  0.0370  1.3728 -0.2621
 4852TIP3    H238752   5.806   8.194  13.879 -0.8874 -0.7459  0.7780
 4853TIP3   OH238753   3.407   5.071  13.710  0.1116 -0.1419 -0.0671
 4853TIP3    H138754   3.378   5.047  13.622  0.6760 -0.3599 -0.2028
 4853TIP3    H238755   3.482   5.013  13.726 -0.6965 -0.9257  1.0277
 4854TIP3   OH238756   4.968   2.771  14.229 -0.2600  0.0791 -0.6395
 4854TIP3    H138757   5.028   2.790  14.157  0.6366 -1.0093 -0.1961
 4854TIP3    H238758   4.920   2.694  14.200 -1.1270  0.6557 -0.7823
 4855TIP3   OH238759   5.972   3.792  14.191 -0.2076  0.2038  0.2920
 4855TIP3    H138760   6.063   3.774  14.217 -0.0727  0.8497  0.2934
 4855TIP3    H238761   5.930   3.821  14.272 -0.5097 -0.4144  0.3649
 4856TIP3   OH238762   8.153   3.927  14.173 -0.0706 -0.1244  0.0460
 4856TIP3    H138763   8.108   4.007  14.148  0.7483 -0.5059 -3.1518
 4856TIP3    H238764   8.133   3.865  14.102  3.4900 -1.0092 -0.3921
 4857TIP3   OH238765   5.158   6.205  13.338 -0.1856 -0.0503  0.2181
 4857TIP3    H138766   5.152   6.188  13.244 -3.6110 -0.0881  0.3413
 4857TIP3    H238767   5.072   6.182  13.372  0.4929  1.3541  3.1622
 4858TIP3   OH238768   4.873   1.588  13.988 -0.2014  0.2756  0.3352
 4858TIP3    H138769   4.870   1.506  13.939  0.5277 -0.6536  1.7886
 4858TIP3    H238770   4.810   1.645  13.943 -2.9146 -2.0123  0.9496
 4859TIP3   OH238771   1.996   5.035  14.857  0.3467 -0.4650 -0.3916
 4859TIP3    H138772   2.010   4.976  14.783  0.9213 -1.2940  0.3583
 4859TIP3    H238773   2.059   5.006  14.923  0.0281  0.4337  0.3254
 4860TIP3   OH238774   2.117   3.818  14.566 -0.1933  0.0477 -0.2511
 4860TIP3    H138775   2.196   3.829  14.619  0.4095  0.1875 -1.1558
 4860TIP3    H238776   2.148   3.816  14.475 -1.4004  1.9366 -0.7637
 4861TIP3   OH238777   4.021   3.173  14.808 -0.2418  0.6192  0.6262
 4861TIP3    H138778   4.084   3.157  14.738 -0.7341 -0.9547  0.5223
 4861TIP3    H238779   3.938   3.187  14.763 -0.6903 -1.0390  0.8834
 4862TIP3   OH238780   3.370   7.216  14.368  0.0395 -0.4979  0.3365
 4862TIP3    H138781   3.429   7.279  14.329  0.0570 -1.4413 -1.2355
 4862TIP3    H238782   3.285   7.260  14.369  0.7490  1.0981  3.1643
 4863TIP3   OH238783   3.281   6.605  13.232 -0.3143  0.3240 -0.2215
 4863TIP3    H138784   3.244   6.532  13.282  1.8559 -1.0542 -0.5171
 4863TIP3    H238785   3.210   6.632  13.173 -1.8727 -0.0885  1.3690
 4864TIP3   OH238786   6.332   2.388  14.471 -0.2250 -0.1733 -0.0635
 4864TIP3    H138787   6.354   2.403  14.563 -1.0320  0.6305  0.0074
 4864TIP3    H238788   6.370   2.302  14.451  1.0895  0.2308  0.6380
 4865TIP3   OH238789   6.642   7.599  14.277 -0.5400  0.6207  0.2316
 4865TIP3    H138790   6.595   7.575  14.197 -2.6496  2.4035  0.8373
 4865TIP3    H238791   6.685   7.682  14.256 -0.4387  0.6849  0.6849
 4866TIP3   OH238792   0.230   0.718  14.682 -0.3171 -0.0019  0.1281
 4866TIP3    H138793   0.154   0.763  14.646  0.2921 -0.6788 -2.1967
 4866TIP3    H238794   0.193   0.648  14.736 -1.3579 -0.0747 -0.6525
 4867TIP3   OH238795   0.402   0.364  13.746 -0.4684 -0.4185 -0.0862
 4867TIP3    H138796   0.464   0.298  13.778 -0.5438 -0.5945 -0.2973
 4867TIP3    H238797   0.364   0.324  13.667 -1.0697 -0.4393  0.2067
 4868TIP3   OH238798   3.419   2.360  13.276  0.0742 -0.8054  0.0966
 4868TIP3    H138799   3.470   2.420  13.222 -0.5322 -0.8279 -0.5111
 4868TIP3    H238800   3.463   2.276  13.268  0.0521 -0.7833 -0.2843
 4869TIP3   OH238801   6.756   2.669  13.909 -0.1998 -0.3926  0.2128
 4869TIP3    H138802   6.769   2.691  13.817 -0.5553 -2.4257 -0.3857
 4869TIP3    H238803   6.805   2.735  13.957 -0.6792  1.2041 -1.3803
 4870TIP3   OH238804   7.560   1.162  14.499 -0.3417 -0.4321 -0.2336
 4870TIP3    H138805   7.556   1.257  14.487  1.3580 -0.1721  0.9905
 4870TIP3    H238806   7.468   1.135  14.505 -0.8950  0.9435 -1.7974
 4871TIP3   OH238807   4.042   3.942  13.160  0.3353 -0.7829  0.6659
 4871TIP3    H138808   4.040   4.010  13.093 -0.3977 -1.7954 -0.3813
 4871TIP3    H238809   4.135   3.917  13.166  0.6042  0.2529  1.0351
 4872TIP3   OH238810   4.123   5.465  14.739 -0.2640  0.5312  0.7977
 4872TIP3    H138811   4.109   5.550  14.780 -0.5281  1.5024 -1.1842
 4872TIP3    H238812   4.207   5.474  14.693 -0.1806 -0.3615  0.7528
 4873TIP3   OH238813   0.632   0.836  14.045 -0.2050  0.5134 -0.1336
 4873TIP3    H138814   0.594   0.750  14.025 -0.8730  0.9954 -1.0007
 4873TIP3    H238815   0.556   0.891  14.063  0.2742  0.3782  2.8735
 4874TIP3   OH238816   5.240   1.530  13.095  0.3905 -0.4375 -0.6098
 4874TIP3    H138817   5.306   1.505  13.159 -0.0793  0.7387  0.3703
 4874TIP3    H238818   5.200   1.609  13.131 -2.4867 -1.8180 -0.4743
 4875TIP3   OH238819   7.856   3.113  14.443  0.0307  0.4581  0.0332
 4875TIP3    H138820   7.795   3.187  14.446 -0.8052 -0.2054 -0.3547
 4875TIP3    H238821   7.803   3.037  14.467  0.6708 -0.1527 -0.4583
 4876TIP3   OH238822   6.807   4.519  14.583  0.2860  0.2665  0.0557
 4876TIP3    H138823   6.783   4.428  14.564 -0.0592  0.5966 -1.1638
 4876TIP3    H238824   6.900   4.515  14.606 -0.1348 -0.6156  1.7858
 4877TIP3   OH238825   0.186   1.087  13.375 -0.0673  0.2062  0.4309
 4877TIP3    H138826   0.120   1.105  13.442 -0.4746 -2.8258  0.9924
 4877TIP3    H238827   0.136   1.075  13.295  0.0042 -0.1740  0.4443
 4878TIP3   OH238828   0.360   0.913  13.466 -0.1225 -0.3933 -0.3744
 4878TIP3    H138829   0.410   0.879  13.393 -0.1777  0.1479 -0.6687
 4878TIP3    H238830   0.293   0.969  13.426  0.3555  0.5610  0.1111
 4879TIP3   OH238831   5.571   3.974  14.928  0.6108  0.1260  0.2293
 4879TIP3    H138832   5.489   3.941  14.966  0.1048 -0.0726 -0.9822
 4879TIP3    H238833   5.640   3.931  14.979 -0.0437 -1.5133 -0.1886
 4880TIP3   OH238834   2.213   4.667  14.601  0.5240  0.2193 -0.5089
 4880TIP3    H138835   2.304   4.663  14.570  1.0363  1.5583  0.7125
 4880TIP3    H238836   2.212   4.611  14.679  0.5620  0.9158  0.0084
 4881TIP3   OH238837   0.238   5.798  14.410 -0.0407 -0.2077  0.3232
 4881TIP3    H138838   0.306   5.736  14.384  0.9329  0.7341  0.5353
 4881TIP3    H238839   0.256   5.876  14.357 -0.7753  0.1644  0.6077
 4882TIP3   OH238840   5.447   1.115  14.577 -0.2688  0.1923 -0.1277
 4882TIP3    H138841   5.404   1.069  14.649  0.5724 -0.4852 -0.0389
 4882TIP3    H238842   5.454   1.050  14.508 -0.5537  0.6768 -0.6178
 4883TIP3   OH238843   8.107   4.701  15.331  0.5307  0.0045  0.2125
 4883TIP3    H138844   8.196   4.735  15.319  0.2780  0.3882 -0.6648
 4883TIP3    H238845   8.057   4.776  15.363  0.1065  0.3326 -1.1493
 4884TIP3   OH238846   1.899   3.315  14.478 -0.0881 -0.1582 -0.2190
 4884TIP3    H138847   1.968   3.360  14.527  0.1737 -1.2267  0.4364
 4884TIP3    H238848   1.945   3.272  14.406 -0.0436 -0.8936  0.2342
 4885TIP3   OH238849   3.294   7.852  13.298 -0.1424  0.2272  0.1456
 4885TIP3    H138850   3.361   7.907  13.339 -0.0065 -0.3007  0.6449
 4885TIP3    H238851   3.333   7.824  13.215  1.0510 -1.6019  1.2563
 4886TIP3   OH238852   2.910   3.003  12.815  0.5918 -0.1239  0.5307
 4886TIP3    H138853   2.830   3.040  12.853  0.2495 -0.8358  0.5087
 4886TIP3    H238854   2.963   3.080  12.793  0.0061  0.3487  0.7351
 4887TIP3   OH238855   5.716   1.111  14.592 -0.2306  0.2221 -0.3975
 4887TIP3    H138856   5.628   1.135  14.562  0.6162  0.2299 -3.0931
 4887TIP3    H238857   5.713   1.016  14.599 -0.6860  0.2856  0.3769
 4888TIP3   OH238858   2.808   6.921  13.449 -0.2050  0.1393 -0.0319
 4888TIP3    H138859   2.768   6.901  13.364  1.4728 -0.1044 -0.8071
 4888TIP3    H238860   2.836   7.012  13.441  1.8901 -0.5028 -0.6005
 4889TIP3   OH238861   4.530   1.754  14.143  0.2388 -0.0874 -0.2170
 4889TIP3    H138862   4.567   1.669  14.168 -1.3768 -0.4147  1.2772
 4889TIP3    H238863   4.585   1.818  14.188  1.1789 -0.3567 -0.9661
 4890TIP3   OH238864   5.851   7.690  13.694  1.0716  0.1099 -0.1707
 4890TIP3    H138865   5.924   7.680  13.633  1.8775  0.4764  0.7009
 4890TIP3    H238866   5.865   7.622  13.761  0.5395  0.0961 -0.0652
 4891TIP3   OH238867   6.706   2.247  14.127  0.0777  0.6294 -0.0991
 4891TIP3    H138868   6.620   2.243  14.087 -0.4938  0.2130  1.1226
 4891TIP3    H238869   6.709   2.333  14.169  2.0228  2.6263 -3.8209
 4892TIP3   OH238870   0.090   5.022  14.304  0.0392  0.1641 -0.1176
 4892TIP3    H138871   0.137   5.091  14.351  0.5419  0.0399 -0.4344
 4892TIP3    H238872   0.080   5.056  14.215 -0.1443  0.0333 -0.1473
 4893TIP3   OH238873   7.350   2.357  13.940 -0.2799 -0.3554  0.3924
 4893TIP3    H138874   7.434   2.402  13.933 -0.7875  1.1412  2.7579
 4893TIP3    H238875   7.371   2.264  13.931  1.7292 -0.0457  1.3623
 4894TIP3   OH238876   7.118   1.624  14.944 -0.5435  0.4716 -0.4948
 4894TIP3    H138877   7.058   1.616  15.018  0.4688 -0.6008  0.2453
 4894TIP3    H238878   7.085   1.561  14.880 -0.4339  0.1444 -0.2362
 4895TIP3   OH238879   5.049   6.616  14.838  0.3677  0.0446  0.2388
 4895TIP3    H138880   5.073   6.528  14.806  1.5603 -0.4348  2.2583
 4895TIP3    H238881   4.965   6.603  14.883  0.1093  0.1326 -0.2126
 4896TIP3   OH238882   8.216   6.128  13.449 -0.2320  0.6597 -0.3798
 4896TIP3    H138883   8.270   6.152  13.374 -0.1939  0.3353 -0.4559
 4896TIP3    H238884   8.182   6.040  13.428  0.6467  0.1060  0.4535
 4897TIP3   OH238885   0.366   4.531  13.915  0.1214 -0.5137 -0.0836
 4897TIP3    H138886   0.323   4.459  13.961  0.1391 -1.1645 -1.0551
 4897TIP3    H238887   0.459   4.520  13.936  0.1501 -0.9119 -0.4090
 4898TIP3   OH238888   0.406   4.356  13.140  0.0040  0.3610  0.0980
 4898TIP3    H138889   0.326   4.317  13.102 -1.5568  2.2494  1.2599
 4898TIP3    H238890   0.431   4.424  13.078  1.6318 -1.1209 -0.9799
 4899TIP3   OH238891   3.151   0.932  13.184 -0.1234  0.3313 -0.7539
 4899TIP3    H138892   3.229   0.928  13.129  0.0205 -1.0165 -0.4923
 4899TIP3    H238893   3.089   0.871  13.144  0.6322 -2.0907  1.4808
 4900TIP3   OH238894   3.241   8.391  15.140  0.4758  0.2984 -0.6092
 4900TIP3    H138895   3.292   8.415  15.062 -0.3294 -0.6156 -1.4442
 4900TIP3    H238896   3.289   8.316  15.176  0.3815  0.1843 -0.7184
 4901TIP3   OH238897   5.418   6.691  14.074  0.2105 -0.3946 -0.5841
 4901TIP3    H138898   5.373   6.738  14.003  2.4581  0.4565 -1.5493
 4901TIP3    H238899   5.467   6.623  14.030 -0.3583 -1.5295  0.4811
 4902TIP3   OH238900   4.791   3.201  13.780 -0.6283  0.2504 -0.3741
 4902TIP3    H138901   4.766   3.122  13.828 -0.7765 -0.3115 -1.3460
 4902TIP3    H238902   4.792   3.174  13.688 -1.6315  1.6316 -0.8156
 4903TIP3   OH238903   3.541   7.772  14.572 -0.1356  0.0956 -0.3997
 4903TIP3    H138904   3.475   7.810  14.631  0.0631  1.3409 -0.9485
 4903TIP3    H238905   3.620   7.823  14.589  0.9545 -1.8569  0.7776
 4904TIP3   OH238906   7.515   8.054  13.337 -0.2631  0.5546 -0.1938
 4904TIP3    H138907   7.601   8.094  13.326  0.0433  0.1409  0.5704
 4904TIP3    H238908   7.491   8.022  13.250 -0.5028  2.3248 -0.8068
 4905TIP3   OH238909   3.890   4.258  14.048 -0.0061 -0.0174  0.3791
 4905TIP3    H138910   3.929   4.212  13.974  0.0311 -0.2948  0.5703
 4905TIP3    H238911   3.881   4.348  14.018 -0.5841 -0.2533 -0.1992
 4906TIP3   OH238912   0.972   4.373  14.027 -0.5830 -0.2671  0.3311
 4906TIP3    H138913   0.905   4.434  14.055  0.2258  0.1762  1.3945
 4906TIP3    H238914   0.986   4.392  13.935  0.0044  1.5154  0.7568
 4907TIP3   OH238915   1.027   0.296  13.269  0.0527 -0.0881  0.4490
 4907TIP3    H138916   0.960   0.232  13.292  1.0670 -0.8736  1.3016
 4907TIP3    H238917   1.068   0.260  13.190  0.2179 -0.1674  0.5731
 4908TIP3   OH238918   0.266   2.948  13.709  0.0388 -0.4380 -0.1796
 4908TIP3    H138919   0.271   3.033  13.665  1.2359  0.6853  1.9956
 4908TIP3    H238920   0.183   2.951  13.757 -0.6023 -1.1049 -1.2148
 4909TIP3   OH238921   8.126   4.792  13.693  0.0662 -0.5343 -0.0125
 4909TIP3    H138922   8.195   4.729  13.711  0.8176  0.4411  0.6159
 4909TIP3    H238923   8.048   4.755  13.735  0.5465 -0.9294  0.5433
 4910TIP3   OH238924   5.251   0.447  14.845  0.4144  0.0241 -0.1418
 4910TIP3    H138925   5.264   0.531  14.800  0.3227  1.7761  2.8876
 4910TIP3    H238926   5.276   0.464  14.936 -0.2948 -3.0759  0.7472
 4911TIP3   OH238927   7.341   4.309  13.847 -0.6443 -0.0368  0.0981
 4911TIP3    H138928   7.321   4.395  13.883  0.3637  1.3178 -2.3208
 4911TIP3    H238929   7.257   4.263  13.844 -0.9647  0.2585  2.7792
 4912TIP3   OH238930   0.000   7.231  15.078  0.1230 -0.4004 -0.2219
 4912TIP3    H138931  -0.091   7.247  15.055 -0.0546 -0.8015  0.1778
 4912TIP3    H238932   0.021   7.300  15.141 -0.1726 -0.8101  0.3371
 4913TIP3   OH238933   7.805   0.854  14.502 -0.4522  0.1118  1.0716
 4913TIP3    H138934   7.800   0.799  14.581 -0.3281  0.8232  1.5852
 4913TIP3    H238935   7.896   0.846  14.473 -0.2914  0.4907  1.4696
 4914TIP3   OH238936   8.219   2.258  13.047  0.1209 -0.0319  0.4031
 4914TIP3    H138937   8.152   2.311  13.091 -0.1068  1.2403 -1.3441
 4914TIP3    H238938   8.297   2.314  13.047  0.4795 -0.5340  0.3350
 4915TIP3   OH238939   5.211   0.978  13.798  0.3307  0.0076 -0.7500
 4915TIP3    H138940   5.280   1.009  13.857  0.8431 -1.5928 -0.4605
 4915TIP3    H238941   5.259   0.947  13.721 -0.0448 -1.2972 -0.4628
 4916TIP3   OH238942   0.865   0.703  13.618 -0.1986 -0.3305 -0.7418
 4916TIP3    H138943   0.775   0.735  13.610  0.2557  0.9177 -1.0388
 4916TIP3    H238944   0.858   0.627  13.677 -1.2674  0.4689  0.2084
 4917TIP3   OH238945   6.340   3.097  13.723  0.2804 -0.0371  0.2671
 4917TIP3    H138946   6.358   3.150  13.801  1.8428  2.3684 -1.5988
 4917TIP3    H238947   6.406   3.028  13.724 -0.6494 -0.9590  1.7910
 4918TIP3   OH238948   3.117   6.874  13.327  0.0356  0.4165 -0.1165
 4918TIP3    H138949   3.110   6.917  13.412  0.7187 -0.4660  0.4022
 4918TIP3    H238950   3.083   6.786  13.343 -0.0270  0.3105 -0.8139
 4919TIP3   OH238951   0.495   4.004  14.045 -0.2676  0.0457 -0.4197
 4919TIP3    H138952   0.498   3.975  14.136  1.1936  1.3984 -0.0044
 4919TIP3    H238953   0.403   3.991  14.019 -0.8492  0.2120  1.4218
 4920TIP3   OH238954   1.673   4.659  14.596 -0.0221 -0.1373  0.3070
 4920TIP3    H138955   1.731   4.597  14.552  0.0417 -0.1316  0.3840
 4920TIP3    H238956   1.654   4.619  14.681  0.5803  0.2721  0.6402
 4921TIP3   OH238957   4.245   0.505  13.321 -0.2959  0.6848  0.3543
 4921TIP3    H138958   4.298   0.462  13.388  0.7347  1.6678  0.2088
 4921TIP3    H238959   4.192   0.435  13.283 -2.0426  0.3297  3.1848
 4922TIP3   OH238960   1.078   7.588  13.708 -0.2376 -0.0349 -0.1693
 4922TIP3    H138961   1.164   7.598  13.748 -1.0368 -0.5443  1.7761
 4922TIP3    H238962   1.029   7.666  13.734 -0.5850 -0.0783 -0.6687
 4923TIP3   OH238963   3.892   5.414  13.622  0.2153  0.1830  0.3641
 4923TIP3    H138964   3.899   5.323  13.649  2.6582  0.3004  0.3080
 4923TIP3    H238965   3.953   5.461  13.679 -1.3639  1.9005  0.7402
 4924TIP3   OH238966   5.599   6.868  14.155  0.2989  0.4353  0.0508
 4924TIP3    H138967   5.670   6.806  14.138  0.4656  1.2764 -2.8424
 4924TIP3    H238968   5.521   6.828  14.118  0.0870  1.2199 -0.3832
 4925TIP3   OH238969   8.266   3.538  13.681 -0.0868 -0.0465  0.2638
 4925TIP3    H138970   8.325   3.547  13.605 -0.4582 -2.5202 -0.4182
 4925TIP3    H238971   8.321   3.499  13.749 -0.5416 -0.9942  0.1092
 4926TIP3   OH238972   5.334   4.871  13.964 -0.1631  0.0013  0.4724
 4926TIP3    H138973   5.262   4.826  13.919  0.8731 -0.3146 -0.9468
 4926TIP3    H238974   5.338   4.829  14.050 -1.0593 -0.6201  0.2297
 4927TIP3   OH238975   5.068   1.143  13.567  0.2077  0.0853  0.1309
 4927TIP3    H138976   5.031   1.153  13.655 -2.0789  0.3804 -0.7821
 4927TIP3    H238977   5.037   1.057  13.537  0.5009  0.2165 -0.5744
 4928TIP3   OH238978   3.572   2.541  13.153  0.1479 -0.0061  0.2729
 4928TIP3    H138979   3.497   2.599  13.140  0.0093 -0.2627 -0.0988
 4928TIP3    H238980   3.637   2.569  13.089  0.5454  0.4986  0.8902
 4929TIP3   OH238981   1.684   0.031  14.569 -0.6558 -0.2546  0.2784
 4929TIP3    H138982   1.628  -0.047  14.564  2.0899 -2.3171 -1.7326
 4929TIP3    H238983   1.697   0.057  14.478 -1.1124  2.3630  0.8933
 4930TIP3   OH238984   6.573   2.760  14.967  0.2550  0.0838  0.3147
 4930TIP3    H138985   6.622   2.736  14.889 -2.1695  0.2889 -1.4081
 4930TIP3    H238986   6.617   2.838  15.001  1.2316  0.1275 -1.0051
 4931TIP3   OH238987   8.194   6.895  13.308 -0.2529 -0.6852  0.1821
 4931TIP3    H138988   8.136   6.865  13.238 -0.0187 -1.4165  0.2984
 4931TIP3    H238989   8.137   6.950  13.363 -0.3774  0.0880 -0.6941
 4932TIP3   OH238990   7.783   2.935  13.534 -0.6514  0.1456 -0.3935
 4932TIP3    H138991   7.826   2.898  13.610  1.2399  0.7770 -1.1075
 4932TIP3    H238992   7.739   3.014  13.567  1.6525  1.4311 -0.2287
 4933TIP3   OH238993   2.704   0.900  14.047 -0.4791 -0.4317  0.0359
 4933TIP3    H138994   2.743   0.826  14.093  1.2037 -0.4059 -1.2662
 4933TIP3    H238995   2.773   0.966  14.042 -0.9787  0.0283 -1.4576
 4934TIP3   OH238996   3.517   7.585  13.943 -0.5721 -0.2027 -0.4161
 4934TIP3    H138997   3.595   7.556  13.895 -1.1330 -1.3358 -0.6872
 4934TIP3    H238998   3.552   7.619  14.025  0.2563 -0.0553 -0.8065
 4935TIP3   OH238999   3.450   6.029  14.380 -0.2699 -0.0047  0.3671
 4935TIP3    H139000   3.506   6.082  14.437  0.2329  0.4014 -0.4838
 4935TIP3    H239001   3.365   6.073  14.383  0.0447  0.6432 -0.0418
 4936TIP3   OH239002   5.267   1.599  14.513  1.0237 -0.8088 -0.6464
 4936TIP3    H139003   5.228   1.687  14.520 -0.8684 -1.6425 -0.0828
 4936TIP3    H239004   5.328   1.606  14.440 -0.1381  0.6388 -1.5470
 4937TIP3   OH239005   3.707   8.431  14.044  0.0121  0.1202  0.0461
 4937TIP3    H139006   3.751   8.490  13.983 -1.1514  0.4797 -0.4900
 4937TIP3    H239007   3.662   8.489  14.106  1.1458 -0.2426  1.2553
 4938TIP3   OH239008   6.426   2.081  13.625  0.2738 -0.1979  0.2029
 4938TIP3    H139009   6.481   2.110  13.552 -0.3061  0.7344  0.1213
 4938TIP3    H239010   6.397   2.163  13.667 -1.6949 -0.6239 -0.2430
 4939TIP3   OH239011   7.508   1.473  13.536  0.0952 -0.0667 -0.5097
 4939TIP3    H139012   7.433   1.455  13.594  0.9115 -0.7081  0.3736
 4939TIP3    H239013   7.537   1.561  13.562  0.6636 -0.4815  0.3181
 4940TIP3   OH239014   8.198   6.927  14.728 -0.5264  0.2141 -0.4886
 4940TIP3    H139015   8.116   6.975  14.713 -0.7379 -0.3563 -1.1962
 4940TIP3    H239016   8.172   6.852  14.783 -0.2627  0.6835  0.2942
 4941TIP3   OH239017   3.313   6.351  13.341  0.3775 -0.2753  0.4852
 4941TIP3    H139018   3.287   6.353  13.433  0.3463 -2.7132  0.6031
 4941TIP3    H239019   3.409   6.349  13.343  0.3753 -0.4066  0.4701
 4942TIP3   OH239020   6.197   4.946  14.576 -0.1031 -0.4151 -0.2035
 4942TIP3    H139021   6.120   5.001  14.588 -0.0145 -0.3390  0.0240
 4942TIP3    H239022   6.250   4.991  14.510 -0.8889 -1.1507 -1.3706
 4943TIP3   OH239023   6.335   2.685  14.595 -0.0575 -0.4570 -0.0004
 4943TIP3    H139024   6.341   2.754  14.661  1.1142 -0.7675  0.2370
 4943TIP3    H239025   6.387   2.613  14.631  0.3364 -0.7444 -1.1065
 4944TIP3   OH239026   6.722   7.358  14.407  0.2432 -0.2640 -0.2959
 4944TIP3    H139027   6.707   7.428  14.344 -0.4955 -1.6061 -1.6804
 4944TIP3    H239028   6.690   7.279  14.363 -0.8495 -1.1733  2.0079
 4945TIP3   OH239029   0.452   2.450  14.481 -0.3119  0.5468 -0.2085
 4945TIP3    H139030   0.520   2.471  14.416  0.7680  2.7938  1.5044
 4945TIP3    H239031   0.371   2.483  14.442  0.2397  1.4773 -0.6050
 4946TIP3   OH239032   7.359   7.412  12.951  0.1378  0.0576 -0.3761
 4946TIP3    H139033   7.282   7.395  13.005  1.6147  0.0476  1.8737
 4946TIP3    H239034   7.393   7.326  12.930 -0.2306  0.0684 -1.0359
 4947TIP3   OH239035   5.985   2.999  14.680  0.2369 -0.0047 -0.8107
 4947TIP3    H139036   5.995   2.920  14.733 -1.9156  0.1768 -0.0083
 4947TIP3    H239037   6.021   3.069  14.735 -0.2154 -0.0865 -0.4037
 4948TIP3   OH239038   7.215   3.418  14.004 -0.4243  0.0609  0.2679
 4948TIP3    H139039   7.226   3.447  14.094  1.2990 -1.6110  0.6446
 4948TIP3    H239040   7.297   3.442  13.960 -1.4353  1.3308 -1.0371
 4949TIP3   OH239041   6.687   1.516  15.314  0.4120  0.2126 -0.4444
 4949TIP3    H139042   6.753   1.447  15.322 -0.1622 -0.3030 -0.0106
 4949TIP3    H239043   6.604   1.469  15.319 -0.0052  1.0643  1.0660
 4950TIP3   OH239044   6.431   6.592  13.941 -0.0050 -0.6219  0.5022
 4950TIP3    H139045   6.356   6.552  13.986 -0.1731 -0.9872 -0.0869
 4950TIP3    H239046   6.501   6.594  14.006 -0.3715 -0.7538  0.9014
 4951TIP3   OH239047   0.667   5.107  13.404  0.1407 -0.1991 -0.5015
 4951TIP3    H139048   0.633   5.058  13.329  1.5878 -1.2949 -0.4953
 4951TIP3    H239049   0.643   5.198  13.385 -0.1256 -0.5322 -1.9574
 4952TIP3   OH239050   4.222   6.185  13.634  0.4201 -0.6572  0.1679
 4952TIP3    H139051   4.229   6.138  13.551  0.5383  0.1774 -0.3005
 4952TIP3    H239052   4.244   6.276  13.613 -0.5397 -0.2324  0.9049
 4953TIP3   OH239053   1.006   2.819  14.279  0.3702  0.1630  0.1912
 4953TIP3    H139054   0.949   2.866  14.219  0.1284  0.8209  0.9099
 4953TIP3    H239055   1.024   2.736  14.236 -1.2836 -0.1448  0.0285
 4954TIP3   OH239056   4.103   8.096  13.443 -0.0924  0.3289  0.2998
 4954TIP3    H139057   4.024   8.061  13.402  0.7455 -1.0798 -0.1747
 4954TIP3    H239058   4.105   8.188  13.417 -1.9688  0.6147  0.9677
 4955TIP3   OH239059   4.928   6.937  13.822 -0.3745  0.2503 -0.0185
 4955TIP3    H139060   4.973   7.005  13.773  1.8446 -0.0505  1.4354
 4955TIP3    H239061   4.932   6.859  13.766  0.1655  0.4569 -0.2686
 4956TIP3   OH239062   0.841   8.086  14.594  0.5566  0.6036 -0.0790
 4956TIP3    H139063   0.788   8.057  14.520  1.9265 -2.1848 -0.0952
 4956TIP3    H239064   0.915   8.131  14.553 -0.6192  2.6311 -0.1348
 4957TIP3   OH239065   0.052   6.446  13.490  0.8061 -0.2549  0.4210
 4957TIP3    H139066   0.080   6.439  13.399  1.4939  2.3640  0.3712
 4957TIP3    H239067  -0.043   6.454  13.486  1.0127  4.3089 -0.5769
 4958TIP3   OH239068   0.877   0.532  13.216  0.0328  1.2909 -0.7488
 4958TIP3    H139069   0.821   0.499  13.145  0.7322 -0.4101 -0.5594
 4958TIP3    H239070   0.934   0.458  13.237  0.8717  2.2788  0.5524
 4959TIP3   OH239071   7.963   2.741  13.019  0.1388  0.5700 -0.2747
 4959TIP3    H139072   8.028   2.674  13.003 -0.3725  0.4702 -2.2390
 4959TIP3    H239073   8.007   2.805  13.075  0.8243 -1.0533  1.1440
 4960TIP3   OH239074   1.823   4.892  14.650  0.2857  0.2828 -0.4803
 4960TIP3    H139075   1.754   4.958  14.651  1.6794  1.8127  1.4235
 4960TIP3    H239076   1.776   4.809  14.645 -1.8038  1.2048  1.8238
 4961TIP3   OH239077   8.247   4.173  13.658  0.5875 -0.0321  0.2075
 4961TIP3    H139078   8.161   4.135  13.638 -0.5970  2.1285  0.8964
 4961TIP3    H239079   8.250   4.254  13.607  0.9041  1.4581  2.4546
 4962TIP3   OH239080   0.101   5.533  13.761  0.0986 -0.1347 -0.6477
 4962TIP3    H139081   0.164   5.468  13.730 -0.5936 -1.0723 -0.1500
 4962TIP3    H239082   0.128   5.614  13.720  1.6953 -0.4903 -0.3616
 4963TIP3   OH239083   3.594   7.828  13.638 -0.3333 -0.4790 -0.1212
 4963TIP3    H139084   3.647   7.757  13.602  0.0481 -0.9957  1.3632
 4963TIP3    H239085   3.517   7.784  13.673 -0.3668 -0.0928  0.2915
 4964TIP3   OH239086   5.308   6.420  14.644 -0.5762  0.5233  0.5190
 4964TIP3    H139087   5.351   6.445  14.726  0.2025 -0.0292  0.2972
 4964TIP3    H239088   5.372   6.441  14.577  0.4576 -2.5624  0.3502
 4965TIP3   OH239089   6.514   0.607  13.902  0.1779 -0.2749  0.0020
 4965TIP3    H139090   6.530   0.702  13.901  0.5410 -0.3200  0.7592
 4965TIP3    H239091   6.546   0.577  13.817  1.0159  0.1408  0.1495
 4966TIP3   OH239092   4.441   3.780  14.421 -0.3233  0.0426  0.3036
 4966TIP3    H139093   4.434   3.823  14.507 -3.1026 -2.1430  1.3271
 4966TIP3    H239094   4.373   3.820  14.368 -1.5937 -1.5773  0.6275
 4967TIP3   OH239095   2.076   1.745  13.378 -0.1142  0.3892 -0.0667
 4967TIP3    H139096   2.099   1.719  13.289  0.8225 -0.2856  0.3546
 4967TIP3    H239097   2.002   1.689  13.401  0.8074 -0.7547  0.2190
 4968TIP3   OH239098   1.074   7.748  13.303 -0.0061  0.1131 -0.1101
 4968TIP3    H139099   1.156   7.720  13.263 -0.6396  0.0480 -1.4303
 4968TIP3    H239100   1.006   7.723  13.239 -1.1598 -0.8192  1.4188
 4969TIP3   OH239101   4.255   6.102  14.962  0.5414  0.1996  0.0499
 4969TIP3    H139102   4.337   6.092  15.009 -0.5910  1.0824  2.3499
 4969TIP3    H239103   4.272   6.171  14.898  1.0911  1.8253  1.8576
 4970TIP3   OH239104   1.605   3.140  13.045  0.1657 -0.3695 -0.0459
 4970TIP3    H139105   1.649   3.219  13.013 -1.2904  0.3524 -0.3614
 4970TIP3    H239106   1.662   3.068  13.019  0.5838  0.4423 -1.4912
 4971TIP3   OH239107   8.232   6.463  13.462 -0.4541 -0.1914 -0.2296
 4971TIP3    H139108   8.235   6.444  13.369 -0.0200  0.3813 -0.3379
 4971TIP3    H239109   8.174   6.538  13.470 -0.7043 -0.4066 -0.0076
 4972TIP3   OH239110   0.328   5.583  13.367 -0.2466 -0.1391  0.2472
 4972TIP3    H139111   0.364   5.669  13.385  0.2095 -0.5140  1.1771
 4972TIP3    H239112   0.373   5.524  13.428 -0.1189 -1.1320 -0.7708
 4973TIP3   OH239113   4.537   1.880  13.468 -0.4398  0.4301  0.1378
 4973TIP3    H139114   4.491   1.868  13.551 -0.1857  0.7214  0.3202
 4973TIP3    H239115   4.467   1.892  13.403 -0.7243 -1.5987 -0.0056
 4974TIP3   OH239116   8.237   2.175  14.529  0.0594 -0.5024  0.0877
 4974TIP3    H139117   8.326   2.143  14.545  0.4761  0.9528  0.8784
 4974TIP3    H239118   8.238   2.203  14.438  0.3296 -0.7395  0.0137
 4975TIP3   OH239119   1.755   0.544  14.788 -0.2352  0.5432 -0.1658
 4975TIP3    H139120   1.779   0.533  14.696  1.7110  0.3126  0.3225
 4975TIP3    H239121   1.671   0.498  14.797 -0.9933  1.4520 -2.0140
 4976TIP3   OH239122   7.801   6.992  14.114  0.2886  0.0675 -0.1313
 4976TIP3    H139123   7.760   6.973  14.029 -0.4541  0.0783  0.2159
 4976TIP3    H239124   7.814   6.906  14.153 -0.2185  0.1048  0.1283
 4977TIP3   OH239125   4.432   5.446  14.734 -0.2533  0.0416  0.5085
 4977TIP3    H139126   4.438   5.354  14.759  0.0213 -0.0469  0.1400
 4977TIP3    H239127   4.379   5.445  14.654  0.1952  0.1377  0.2016
 4978TIP3   OH239128   2.974   1.325  14.942  0.2760  0.2229 -0.1256
 4978TIP3    H139129   2.964   1.352  14.850  0.3637  1.6751  0.2703
 4978TIP3    H239130   2.970   1.229  14.939 -1.8082  0.2870 -1.4173
 4979TIP3   OH239131   1.669   0.846  14.610  0.7314 -0.2104 -0.6168
 4979TIP3    H139132   1.704   0.921  14.563  1.1518 -0.1527 -0.2211
 4979TIP3    H239133   1.746   0.794  14.634  0.6727  0.4477  1.1691
 4980TIP3   OH239134   4.795   3.891  13.314 -0.5060  0.0904 -0.5184
 4980TIP3    H139135   4.780   3.932  13.399 -0.3696  0.3774 -0.6299
 4980TIP3    H239136   4.726   3.926  13.258  0.4045  1.2446 -0.9743
 4981TIP3   OH239137   6.255   6.266  14.120 -0.3433 -0.1531  0.4305
 4981TIP3    H139138   6.310   6.189  14.134  1.5583  0.9324 -0.7314
 4981TIP3    H239139   6.211   6.250  14.037  1.3409  0.6485 -0.6849
 4982TIP3   OH239140   1.689   0.506  12.772  0.0882  0.3449  0.3760
 4982TIP3    H139141   1.721   0.592  12.745  0.1290  0.0001 -0.7320
 4982TIP3    H239142   1.756   0.474  12.833  0.3697  0.8511  0.3403
 4983TIP3   OH239143   1.918   4.647  14.912 -0.0686 -0.0203 -0.0056
 4983TIP3    H139144   2.000   4.693  14.894  0.4202 -0.4265  1.0808
 4983TIP3    H239145   1.910   4.584  14.840  0.1339  0.5826 -0.5689
 4984TIP3   OH239146   2.376   4.104  14.760 -0.0195  0.0556 -0.4791
 4984TIP3    H139147   2.332   4.021  14.777  2.1454 -1.4808 -1.9846
 4984TIP3    H239148   2.390   4.142  14.847 -2.9098 -0.0468  0.1302
 4985TIP3   OH239149   0.482   5.096  15.504 -0.6700 -0.2692 -0.3166
 4985TIP3    H139150   0.527   5.116  15.586 -1.1838  1.8627 -0.5061
 4985TIP3    H239151   0.414   5.033  15.528 -0.2643 -0.3245  0.7198
 4986TIP3   OH239152   5.543   5.519  14.138 -0.6023 -0.0617 -0.5737
 4986TIP3    H139153   5.502   5.441  14.175 -1.7358  0.4212 -0.7648
 4986TIP3    H239154   5.512   5.591  14.194  2.6861  0.0168  1.4302
 4987TIP3   OH239155   6.987   2.297  14.514  0.7580 -0.3448  0.0745
 4987TIP3    H139156   6.978   2.355  14.438 -0.0941  2.1166  1.9094
 4987TIP3    H239157   6.914   2.237  14.507  0.3769  0.1881 -0.7865
 4988TIP3   OH239158   3.163   4.545  15.047  0.2997  0.3353 -0.3430
 4988TIP3    H139159   3.180   4.626  15.095  1.9511 -0.4192  0.4362
 4988TIP3    H239160   3.086   4.564  14.993  0.3823  2.2590  0.1567
 4989TIP3   OH239161   1.047   6.339  13.452 -0.3830  0.4452  0.1819
 4989TIP3    H139162   1.078   6.417  13.499 -0.5785  1.9118 -1.9895
 4989TIP3    H239163   1.115   6.273  13.467  1.7184  2.2111 -0.9029
 4990TIP3   OH239164   5.845   3.039  13.622 -0.4739 -0.1757 -0.1051
 4990TIP3    H139165   5.923   3.010  13.670  0.0028 -0.0134 -0.7746
 4990TIP3    H239166   5.814   3.115  13.672 -1.0855 -1.1448  1.0200
 4991TIP3   OH239167   4.349   6.054  14.263 -0.3272 -0.1215  0.1177
 4991TIP3    H139168   4.366   6.116  14.192 -0.7392  0.9074  0.9057
 4991TIP3    H239169   4.272   6.005  14.234  1.5452 -2.1959 -1.7421
 4992TIP3   OH239170   7.933   5.786  13.932 -0.2107  0.4955 -0.1504
 4992TIP3    H139171   7.889   5.868  13.953 -0.2673  0.0107  1.8062
 4992TIP3    H239172   7.868   5.718  13.950  0.0816 -0.0466 -1.0295
 4993TIP3   OH239173   3.542   0.357  13.000  1.1964 -0.3720 -0.3251
 4993TIP3    H139174   3.503   0.347  13.087 -0.3116  2.1075 -0.6262
 4993TIP3    H239175   3.469   0.347  12.939  1.7186  0.5838 -1.1324
 4994TIP3   OH239176   8.395   6.153  13.708  0.0020 -0.2992  0.3560
 4994TIP3    H139177   8.319   6.171  13.763 -0.2821 -2.2861  0.6859
 4994TIP3    H239178   8.360   6.154  13.618 -0.4892 -1.3914  0.5176
 4995TIP3   OH239179   0.499   6.237  14.210 -0.3166  0.2007 -0.4030
 4995TIP3    H139180   0.447   6.310  14.244 -0.8993 -0.9380  1.2924
 4995TIP3    H239181   0.556   6.276  14.144  0.2599  2.4267  1.2917
 4996TIP3   OH239182   6.268   6.777  14.672 -0.0789  0.5202 -0.3609
 4996TIP3    H139183   6.295   6.850  14.617 -0.0342  0.6928 -0.1105
 4996TIP3    H239184   6.231   6.817  14.751  0.1364  0.2757 -0.1316
 4997TIP3   OH239185   4.859   1.567  13.204  0.4221  0.6288 -0.6631
 4997TIP3    H139186   4.851   1.589  13.111 -1.1893  0.0628 -0.6891
 4997TIP3    H239187   4.783   1.607  13.245  1.0699  0.7921  0.4234
 4998TIP3   OH239188   3.408   2.952  14.289  0.0889  0.0604 -0.4188
 4998TIP3    H139189   3.324   2.944  14.242  1.0643 -2.9564 -1.9176
 4998TIP3    H239190   3.407   2.880  14.352  1.3367  0.3162 -0.0832
 4999TIP3   OH239191   5.158   7.129  13.881 -0.3236 -0.1137  0.2087
 4999TIP3    H139192   5.086   7.159  13.936  0.7241  0.4590  1.3000
 4999TIP3    H239193   5.172   7.201  13.818 -0.7382 -0.2580 -0.0521
 5000TIP3   OH239194   7.904   6.634  13.773 -0.0763  0.4842  0.2135
 5000TIP3    H139195   7.927   6.544  13.752 -1.2332  0.1497  0.3239
 5000TIP3    H239196   7.964   6.687  13.719 -0.3903 -0.3539 -1.0094
 5001TIP3   OH239197   2.483   2.238  13.801 -0.0342  0.1370 -0.6254
 5001TIP3    H139198   2.436   2.249  13.883  2.0934 -2.7044  1.1549
 5001TIP3    H239199   2.487   2.143  13.788  1.2429  0.4425 -3.0706
 5002TIP3   OH239200   4.034   2.603  13.970  0.2292 -0.1078 -0.6158
 5002TIP3    H139201   4.008   2.512  13.980  1.1234 -0.2652  0.4346
 5002TIP3    H239202   4.129   2.602  13.978  0.3102  0.8425 -1.2409
 5003TIP3   OH239203   6.086   2.945  13.717 -0.2310 -0.6264  0.2637
 5003TIP3    H139204   6.135   3.023  13.692  0.8596 -1.2234  0.5100
 5003TIP3    H239205   6.117   2.923  13.805  0.5612 -2.1710 -0.3567
 5004TIP3   OH239206   3.221   6.553  14.427 -0.0705  0.4085  0.0467
 5004TIP3    H139207   3.219   6.640  14.465  0.4691  0.0078  1.0266
 5004TIP3    H239208   3.312   6.525  14.436 -0.1923 -0.1752 -0.4509
 5005TIP3   OH239209   1.480   6.714  14.027  0.4188 -0.1769 -0.6900
 5005TIP3    H139210   1.512   6.629  14.057  1.2856 -0.2145 -1.6634
 5005TIP3    H239211   1.530   6.778  14.078  1.2797 -0.2471 -1.4224
 5006TIP3   OH239212   8.195   0.592  14.596  0.7296 -0.2186  0.3401
 5006TIP3    H139213   8.152   0.569  14.679  0.8334 -2.7661 -0.2070
 5006TIP3    H239214   8.276   0.541  14.596  1.0027  0.1777 -1.0774
 5007TIP3   OH239215   8.187   2.392  13.327  0.0357  0.7792 -0.4419
 5007TIP3    H139216   8.228   2.477  13.340 -0.1839  0.7601  0.4450
 5007TIP3    H239217   8.112   2.410  13.271  0.5679  1.0023 -1.0893
 5008TIP3   OH239218   4.906   2.458  14.594 -0.2159  0.1355 -0.8549
 5008TIP3    H139219   4.967   2.532  14.584 -2.1466  2.0215  0.3832
 5008TIP3    H239220   4.819   2.499  14.594 -1.3283 -2.0129  1.0153
 5009TIP3   OH239221   4.779   4.426  14.036  0.1852 -0.1484  0.1620
 5009TIP3    H139222   4.747   4.420  14.126 -0.1259  3.1167  0.4034
 5009TIP3    H239223   4.865   4.467  14.045 -0.3678  1.3626 -1.0449
 5010TIP3   OH239224   4.389   0.797  13.220 -0.6608 -0.4350  0.0629
 5010TIP3    H139225   4.397   0.827  13.130 -0.4565 -0.0808  0.1976
 5010TIP3    H239226   4.447   0.721  13.225  2.6249  1.9118  0.9426
 5011TIP3   OH239227   1.370   3.904  14.995  0.3274  0.3231 -0.3541
 5011TIP3    H139228   1.365   3.822  14.945  0.0240  1.0261 -1.5160
 5011TIP3    H239229   1.332   3.882  15.080  1.5227 -1.0940 -0.1416
 5012TIP3   OH239230   5.593   4.710  13.306  0.5848 -0.4464 -0.3226
 5012TIP3    H139231   5.622   4.756  13.228 -0.6787 -1.1526 -1.2415
 5012TIP3    H239232   5.589   4.618  13.281 -2.9858 -0.3856 -0.5542
 5013TIP3   OH239233   0.389   3.402  14.442 -0.8026 -0.2175  0.3850
 5013TIP3    H139234   0.420   3.493  14.445  0.5466 -0.5855 -1.0413
 5013TIP3    H239235   0.412   3.372  14.353  0.6402 -2.5725  1.4583
 5014TIP3   OH239236   2.983   8.152  13.877 -0.2510 -0.0157 -0.0824
 5014TIP3    H139237   2.970   8.222  13.814 -0.2471  0.3220  0.2853
 5014TIP3    H239238   3.049   8.186  13.938 -0.5045 -0.2015  0.3001
 5015TIP3   OH239239   1.216   3.746  15.173 -0.0043 -0.0258 -0.0741
 5015TIP3    H139240   1.152   3.726  15.241  1.7747 -2.9086  0.9511
 5015TIP3    H239241   1.297   3.706  15.203  1.0229 -1.0617 -3.6386
 5016TIP3   OH239242   0.767   5.598  14.337  0.6213 -0.5375  0.2214
 5016TIP3    H139243   0.812   5.677  14.366  0.1953 -0.8667  1.9511
 5016TIP3    H239244   0.821   5.526  14.369 -0.6439 -0.9329  1.6241
 5017TIP3   OH239245   5.542   7.000  14.845 -0.6633  0.0686 -0.1534
 5017TIP3    H139246   5.535   6.914  14.804  1.6289 -0.1049 -0.3187
 5017TIP3    H239247   5.578   6.982  14.932  0.0026  0.8492 -0.2551
 5018TIP3   OH239248   1.329   5.434  15.201 -0.8336 -0.2914 -0.2239
 5018TIP3    H139249   1.245   5.388  15.202 -1.5031  0.8008 -1.3658
 5018TIP3    H239250   1.345   5.450  15.108  1.4442 -1.8165 -0.1666
 5019TIP3   OH239251   3.721   6.074  14.470 -0.0253  0.3652 -0.7100
 5019TIP3    H139252   3.751   6.105  14.385 -0.1128  0.1486 -0.8206
 5019TIP3    H239253   3.776   5.999  14.489 -0.3050  0.1405 -0.7827
 5020TIP3   OH239254   6.548   2.068  14.652  0.0120 -0.2286  0.0395
 5020TIP3    H139255   6.618   2.049  14.715 -0.8088  0.1443  1.0943
 5020TIP3    H239256   6.590   2.060  14.566  1.4473  0.4295  0.6520
 5021TIP3   OH239257   6.951   1.865  14.318  0.2148 -0.5197  0.2809
 5021TIP3    H139258   6.970   1.808  14.392 -0.3615 -0.1720  0.7019
 5021TIP3    H239259   6.947   1.806  14.243  1.2717 -0.8117  0.4418
 5022TIP3   OH239260   1.985   8.030  14.275 -0.0659  0.6066  0.0311
 5022TIP3    H139261   1.982   7.936  14.295  1.7149  0.8422  1.6997
 5022TIP3    H239262   2.044   8.036  14.199 -1.2863  0.2906 -0.9696
 5023TIP3   OH239263   2.318   3.459  13.250 -0.4685 -0.1579 -0.2341
 5023TIP3    H139264   2.336   3.531  13.311  2.6780 -1.3880  0.4794
 5023TIP3    H239265   2.331   3.499  13.163 -2.7635  1.0424 -0.0992
 5024TIP3   OH239266   1.681   1.838  14.354 -0.0363  0.0140 -0.1956
 5024TIP3    H139267   1.766   1.828  14.396 -0.2213 -1.2872 -0.0847
 5024TIP3    H239268   1.619   1.848  14.426 -0.0637  0.2523 -0.2514
 5025TIP3   OH239269   0.871   3.741  15.031  0.0174 -0.1003  0.4798
 5025TIP3    H139270   0.786   3.702  15.013 -0.0984  0.6607 -0.7387
 5025TIP3    H239271   0.931   3.666  15.038 -0.8866 -0.7209  2.4552
 5026TIP3   OH239272   5.546   6.455  15.180  0.2170  0.2913 -0.1890
 5026TIP3    H139273   5.571   6.455  15.272  0.8194  2.3437 -0.3115
 5026TIP3    H239274   5.619   6.497  15.135  0.4469 -1.6571 -1.8113
 5027TIP3   OH239275   6.718   1.126  13.787  0.3540  0.2083  0.4880
 5027TIP3    H139276   6.703   1.108  13.694 -0.1144 -0.4869  0.6907
 5027TIP3    H239277   6.812   1.117  13.799  0.4870  0.8586 -0.0307
 5028TIP3   OH239278   3.840   5.640  14.724  0.8303 -0.3333  0.0077
 5028TIP3    H139279   3.888   5.657  14.806  1.7146  1.4723 -0.8221
 5028TIP3    H239280   3.908   5.642  14.656 -0.1991  0.7394 -1.0331
 5029TIP3   OH239281   0.434   3.742  13.422  0.3546  0.2907  0.2694
 5029TIP3    H139282   0.429   3.765  13.330  2.3670 -1.9942 -0.5035
 5029TIP3    H239283   0.344   3.721  13.447 -0.5117  2.5992 -0.6167
 5030TIP3   OH239284   7.773   4.555  14.236  0.0918  0.6285  0.0628
 5030TIP3    H139285   7.847   4.593  14.189 -0.2042  1.5189  0.3129
 5030TIP3    H239286   7.738   4.489  14.176  1.9453 -0.8371  0.4901
 5031TIP3   OH239287   1.265   6.996  14.135  0.0276  0.0712 -0.2029
 5031TIP3    H139288   1.174   7.021  14.120 -0.1264 -0.6035 -0.4673
 5031TIP3    H239289   1.261   6.935  14.209  0.0155 -1.3894 -1.3573
 5032TIP3   OH239290   3.535   3.970  13.765  0.3798 -0.1832 -0.2701
 5032TIP3    H139291   3.568   4.012  13.844  1.8757  0.3143 -1.1243
 5032TIP3    H239292   3.506   4.042  13.709  0.1752 -0.4743 -0.5421
 5033TIP3   OH239293   4.193   3.661  14.737  0.0765 -0.1033  0.7000
 5033TIP3    H139294   4.100   3.639  14.742 -0.0479  0.2288  0.0799
 5033TIP3    H239295   4.225   3.612  14.661  0.3548 -0.0538  0.7843
 5034TIP3   OH239296   7.808   6.966  14.924  0.5270 -0.2713  0.1883
 5034TIP3    H139297   7.867   6.988  14.853  2.1532 -1.8375  0.9990
 5034TIP3    H239298   7.725   7.009  14.900  1.9159  1.9163 -1.0050
 5035TIP3   OH239299   2.585   5.395  13.512 -0.0295  0.3941 -0.3957
 5035TIP3    H139300   2.555   5.363  13.427  0.3697  0.2264 -0.4747
 5035TIP3    H239301   2.520   5.460  13.538 -0.8265 -0.4270 -0.2615
 5036TIP3   OH239302   5.903   4.026  14.087  0.6582 -0.3649 -0.2529
 5036TIP3    H139303   5.808   4.020  14.078  0.5931  1.2370 -0.9915
 5036TIP3    H239304   5.928   3.947  14.135 -0.9437 -1.1912 -0.7257
 5037TIP3   OH239305   6.078   3.699  14.544  0.2058  0.7467 -0.1944
 5037TIP3    H139306   6.145   3.631  14.553  0.1943  0.6092 -1.0562
 5037TIP3    H239307   6.002   3.652  14.509  0.2882  1.2502 -1.0676
 5038TIP3   OH239308   1.292   4.857  13.349 -0.3530  0.1445 -0.1309
 5038TIP3    H139309   1.282   4.880  13.257  1.7964 -0.3531 -0.5542
 5038TIP3    H239310   1.363   4.913  13.380 -0.6191 -0.1440  1.0448
 5039TIP3   OH239311   7.147   2.389  13.754 -0.5258 -1.4839 -0.1914
 5039TIP3    H139312   7.193   2.372  13.835  1.2616  0.0099 -0.8228
 5039TIP3    H239313   7.213   2.379  13.685 -1.4997 -0.8089 -1.2789
 5040TIP3   OH239314   4.635   2.891  14.522 -0.8161 -0.1322  0.8817
 5040TIP3    H139315   4.576   2.954  14.563 -0.2194  0.6931  0.5323
 5040TIP3    H239316   4.641   2.920  14.431 -2.7333 -2.3896 -0.0506
 5041TIP3   OH239317   5.873   7.054  15.048  0.4106  0.0417 -0.7274
 5041TIP3    H139318   5.800   6.993  15.055  1.8533 -1.6066  0.8931
 5041TIP3    H239319   5.908   7.060  15.137  2.5469  0.4198 -1.5361
 5042TIP3   OH239320   2.635   1.353  14.299  0.0922  0.1917  0.3313
 5042TIP3    H139321   2.667   1.346  14.389  1.8403  2.1186 -0.0519
 5042TIP3    H239322   2.592   1.269  14.282  0.8681 -0.7217  2.5195
 5043TIP3   OH239323   3.894   4.039  14.617  0.4123 -0.2844  0.0111
 5043TIP3    H139324   3.888   4.038  14.713 -0.5373  0.6865 -0.0216
 5043TIP3    H239325   3.980   4.002  14.599  0.6037 -0.5072  1.2396
 5044TIP3   OH239326   3.449   3.184  13.775  0.0883  0.1865 -0.0034
 5044TIP3    H139327   3.521   3.127  13.801 -0.3495 -1.1829 -1.6467
 5044TIP3    H239328   3.488   3.271  13.767  1.2389 -0.2672  0.4602
 5045TIP3   OH239329   1.472   4.104  14.053  0.5248  0.3295 -0.0402
 5045TIP3    H139330   1.516   4.034  14.101 -1.7838 -2.2827 -1.4742
 5045TIP3    H239331   1.413   4.143  14.117  0.0169 -0.7484  0.1671
 5046TIP3   OH239332   6.813   8.328  14.627  0.1087 -0.6490  0.1178
 5046TIP3    H139333   6.839   8.413  14.592  0.7952 -1.2634 -0.9046
 5046TIP3    H239334   6.782   8.279  14.550 -0.5587 -1.2280  0.7397
 5047TIP3   OH239335   5.535   3.675  14.048 -0.1882  0.3771  0.4229
 5047TIP3    H139336   5.549   3.584  14.074 -0.5763  0.5185  1.1492
 5047TIP3    H239337   5.510   3.669  13.955 -2.9368 -0.5195  1.1245
 5048TIP3   OH239338   1.397   0.574  14.836 -0.5511 -0.5079 -0.6519
 5048TIP3    H139339   1.406   0.635  14.762  0.2854 -0.3903 -0.4618
 5048TIP3    H239340   1.475   0.518  14.831  1.1850  1.4513  1.8810
 5049TIP3   OH239341   6.728   1.756  14.188  0.0534  0.4172 -0.0579
 5049TIP3    H139342   6.721   1.836  14.240 -1.8193 -0.5615  1.3365
 5049TIP3    H239343   6.718   1.785  14.097 -1.1110  1.7235  0.4546
 5050TIP3   OH239344   1.666   1.105  15.019  0.3033  0.1349  0.1805
 5050TIP3    H139345   1.632   1.025  14.978 -0.1149 -0.5374  1.7638
 5050TIP3    H239346   1.689   1.078  15.108 -2.2050  2.3145  1.6282
 5051TIP3   OH239347   0.093   2.528  13.904  0.0605 -0.3880 -0.5137
 5051TIP3    H139348   0.027   2.458  13.907 -0.6285  0.2354  2.8517
 5051TIP3    H239349   0.060   2.589  13.837  0.3205 -2.8142 -3.0333
 5052TIP3   OH239350   2.430   3.020  14.748  0.4046 -0.4240 -0.2469
 5052TIP3    H139351   2.420   3.089  14.813  1.9522 -0.1555 -0.2546
 5052TIP3    H239352   2.349   3.022  14.698  0.0529  0.7794  0.3383
 5053TIP3   OH239353   6.987   8.256  14.127  0.0248  0.3476  0.1185
 5053TIP3    H139354   6.950   8.184  14.178  1.5983 -0.9999 -0.5738
 5053TIP3    H239355   6.998   8.327  14.190 -1.8900  0.1582  0.7324
 5054TIP3   OH239356   8.078   7.546  14.876 -0.4985 -0.1588  0.8356
 5054TIP3    H139357   8.073   7.617  14.811  0.2375 -0.3328  0.5783
 5054TIP3    H239358   8.131   7.582  14.947 -1.1409 -0.0371  1.2619
 5055TIP3   OH239359   6.733   1.341  12.699  0.8104 -0.1646 -0.2721
 5055TIP3    H139360   6.780   1.413  12.657  0.2153 -0.0463 -0.7421
 5055TIP3    H239361   6.641   1.364  12.691  0.5442 -1.5017 -1.4066
 5056TIP3   OH239362   1.181   4.856  13.967  0.6215  0.4193 -0.4590
 5056TIP3    H139363   1.270   4.868  14.001  0.5246  3.1057 -0.9413
 5056TIP3    H239364   1.193   4.842  13.873  0.5532  0.5351 -0.4853
 5057TIP3   OH239365   2.708   4.389  15.002  0.1061 -0.0830  0.0473
 5057TIP3    H139366   2.640   4.441  15.045  0.2824 -0.7189  1.1290
 5057TIP3    H239367   2.702   4.413  14.910 -1.5281 -0.0602  0.1332
 5058TIP3   OH239368   2.465   0.986  13.374  0.1452 -0.1977  0.0606
 5058TIP3    H139369   2.470   1.080  13.393  0.4532 -0.1824 -0.0829
 5058TIP3    H239370   2.538   0.970  13.314  2.4503 -1.1803  2.8850
 5059TIP3   OH239371   4.129   2.557  12.981  0.1858 -0.4389 -0.6226
 5059TIP3    H139372   4.085   2.557  13.065  0.8912 -2.2422 -0.2199
 5059TIP3    H239373   4.113   2.470  12.944  0.7031 -0.0213 -1.9140
 5060TIP3   OH239374   8.193   5.024  13.838  0.2800  0.0893  0.3141
 5060TIP3    H139375   8.269   5.002  13.893  0.9055  1.2726 -0.0312
 5060TIP3    H239376   8.178   4.945  13.787  1.3916 -0.1318  0.2860
 5061TIP3   OH239377   2.694   1.352  14.569  0.0325  0.8571 -0.0625
 5061TIP3    H139378   2.689   1.398  14.653 -1.4941 -0.3631  0.5598
 5061TIP3    H239379   2.766   1.289  14.581 -0.5196  0.3311  0.5276
 5062TIP3   OH239380   0.258   6.579  13.606 -0.5606  0.0599 -0.7297
 5062TIP3    H139381   0.184   6.544  13.557  0.0841 -0.3925 -1.4049
 5062TIP3    H239382   0.323   6.509  13.603  0.4256  0.9859 -1.3496
 5063TIP3   OH239383   6.000   4.516  15.138  0.1966  0.5089 -0.5936
 5063TIP3    H139384   5.963   4.508  15.050  0.3141  0.0026 -0.5966
 5063TIP3    H239385   5.975   4.435  15.182  0.3643  0.6474 -0.2433
 5064TIP3   OH239386   5.272   4.067  13.601  0.2149  0.2673  0.3905
 5064TIP3    H139387   5.362   4.035  13.603  0.4000  0.7573  2.6255
 5064TIP3    H239388   5.270   4.136  13.668 -1.6035  0.8957 -0.2506
 5065TIP3   OH239389   6.806   7.429  14.934  0.0504 -0.3682 -0.1279
 5065TIP3    H139390   6.867   7.372  14.982  3.3721 -0.0058 -3.4368
 5065TIP3    H239391   6.785   7.380  14.855  0.2596  1.5750 -1.4535
 5066TIP3   OH239392   1.335   5.559  13.265 -0.4790  1.0587 -0.0086
 5066TIP3    H139393   1.409   5.619  13.270 -0.3713  0.9129  0.1696
 5066TIP3    H239394   1.374   5.472  13.271 -0.5850  0.9492 -0.8060
 5067TIP3   OH239395   0.374   2.334  13.175  0.3169  0.1462 -0.2164
 5067TIP3    H139396   0.303   2.384  13.214 -0.1329 -2.3104  2.4404
 5067TIP3    H239397   0.443   2.335  13.241  2.2578  1.2556 -2.1450
 5068TIP3   OH239398   7.405   5.015  13.928 -0.4221  0.1281 -0.2007
 5068TIP3    H139399   7.439   4.925  13.935  0.7690  0.5309 -0.5134
 5068TIP3    H239400   7.476   5.063  13.885 -0.6490  1.4264  0.8240
 5069TIP3   OH239401   7.353   1.840  13.948 -0.9904 -0.0746 -0.4291
 5069TIP3    H139402   7.409   1.831  14.024 -1.1738 -2.9223 -0.5300
 5069TIP3    H239403   7.271   1.876  13.982 -0.9881 -1.0898  0.6987
 5070TIP3   OH239404   6.277   1.752  14.532  0.1922  0.1902  0.1026
 5070TIP3    H139405   6.353   1.800  14.567  0.5483 -1.6448  2.0739
 5070TIP3    H239406   6.252   1.801  14.454  1.6463  2.4855  0.9598
 5071TIP3   OH239407   5.758   2.054  14.875  0.4493  0.0374  0.1850
 5071TIP3    H139408   5.782   1.962  14.871  1.1676  0.2434 -0.4598
 5071TIP3    H239409   5.710   2.070  14.793 -1.6700 -0.2860  1.2952
 5072TIP3   OH239410   6.665   1.620  15.043  0.3679  0.0740 -0.1785
 5072TIP3    H139411   6.644   1.638  15.135 -1.5922 -0.4181 -0.4954
 5072TIP3    H239412   6.639   1.529  15.030  0.6155  0.1443 -1.2497
 5073TIP3   OH239413   3.431   0.552  13.205  0.2936 -0.0683  0.9415
 5073TIP3    H139414   3.363   0.485  13.196 -1.2763  1.3275  1.8086
 5073TIP3    H239415   3.387   0.635  13.186  1.6588  0.9223  1.8350
 5074TIP3   OH239416   5.144   2.069  14.325  0.3336  0.2941 -0.4939
 5074TIP3    H139417   5.128   2.033  14.412  0.4149  0.8265 -0.2540
 5074TIP3    H239418   5.221   2.022  14.293 -0.6262 -1.0330 -0.9310
 5075TIP3   OH239419   0.878   5.058  14.355 -0.5924  0.4126  0.2178
 5075TIP3    H139420   0.936   5.033  14.284 -0.8444 -0.5949  0.3561
 5075TIP3    H239421   0.790   5.038  14.323 -0.7689  0.7009  0.5131
 5076TIP3   OH239422   5.080   7.529  13.993 -1.0287  0.3455 -0.6317
 5076TIP3    H139423   5.095   7.578  13.912 -0.6364 -0.7779 -1.2597
 5076TIP3    H239424   5.080   7.596  14.062  0.4640  1.1180 -1.3468
 5077TIP3   OH239425   1.069   0.382  14.972 -0.3131  0.7060  0.5024
 5077TIP3    H139426   0.989   0.423  14.939  0.5875  0.0944 -2.8069
 5077TIP3    H239427   1.040   0.301  15.013 -1.4121  0.3658 -0.8854
 5078TIP3   OH239428   4.965   1.377  14.851  0.2118  0.3612 -0.1325
 5078TIP3    H139429   5.009   1.429  14.785  0.8066  0.3808  0.2738
 5078TIP3    H239430   4.929   1.441  14.912 -1.0671  0.3855 -0.8618
 5079TIP3   OH239431   7.672   2.955  13.170 -0.2375  0.1935  0.0300
 5079TIP3    H139432   7.590   2.962  13.121  0.5993 -0.3996 -1.5462
 5079TIP3    H239433   7.740   2.971  13.104  0.9457 -0.1986  1.1119
 5080TIP3   OH239434   1.532   7.888  13.355  0.0029  0.3382  0.1791
 5080TIP3    H139435   1.522   7.836  13.276 -2.0504  2.2833 -0.9711
 5080TIP3    H239436   1.589   7.960  13.329  0.2096  0.4036  0.7995
 5081TIP3   OH239437   0.564   7.052  13.931  0.5708 -0.2415 -0.3567
 5081TIP3    H139438   0.512   7.104  13.870 -1.7403 -1.4705  0.4666
 5081TIP3    H239439   0.629   7.009  13.875 -0.7246 -0.4299 -1.7912
 5082TIP3   OH239440   3.637   0.429  14.818  0.1215 -0.5351 -0.2377
 5082TIP3    H139441   3.720   0.398  14.781  0.2278  0.2157 -0.6436
 5082TIP3    H239442   3.642   0.524  14.811 -1.3869 -0.5168 -1.6291
 5083TIP3   OH239443   5.995   4.302  15.319 -0.3262  0.1397  0.2505
 5083TIP3    H139444   6.036   4.342  15.396  0.5888  2.3261 -1.2441
 5083TIP3    H239445   6.051   4.229  15.296  1.4204  1.5837 -0.2953
 5084TIP3   OH239446   4.447   4.717  13.574 -0.9110  0.9577  0.4908
 5084TIP3    H139447   4.442   4.757  13.487  0.6841 -1.0620 -0.6320
 5084TIP3    H239448   4.525   4.756  13.614  0.5588 -0.7646 -0.5463
 5085TIP3   OH239449   6.560   8.201  15.080  0.0753  0.1051 -0.4642
 5085TIP3    H139450   6.574   8.226  14.988  1.2348  0.1592 -0.2923
 5085TIP3    H239451   6.608   8.118  15.089  1.3714  0.9179  0.4868
 5086TIP3   OH239452   7.834   1.176  14.519 -0.6344 -0.0811  0.4650
 5086TIP3    H139453   7.866   1.090  14.547  0.2642  0.6510  1.7775
 5086TIP3    H239454   7.740   1.164  14.510 -0.4433 -1.3898 -0.1122
 5087TIP3   OH239455   4.207   2.012  13.504 -0.5920  0.2251 -0.3064
 5087TIP3    H139456   4.143   1.942  13.515  0.8572 -1.2738 -0.9207
 5087TIP3    H239457   4.245   1.997  13.418  2.4255 -0.6276  1.0054
 5088TIP3   OH239458   4.179   4.510  14.098  0.3366 -0.3749 -0.1419
 5088TIP3    H139459   4.260   4.464  14.121  0.5803 -0.5120 -1.2056
 5088TIP3    H239460   4.155   4.473  14.013  1.2921  2.3909 -1.7588
 5089TIP3   OH239461   2.343   4.224  15.096 -0.4827 -0.2404  0.0737
 5089TIP3    H139462   2.410   4.170  15.139 -0.7842  0.4574  1.4929
 5089TIP3    H239463   2.260   4.187  15.127 -0.7036  0.5497  0.4381
 5090TIP3   OH239464   7.563   6.048  13.772  0.1174  0.1835  0.5578
 5090TIP3    H139465   7.472   6.030  13.746  0.8568 -0.3445 -1.8864
 5090TIP3    H239466   7.566   6.143  13.780 -0.4726  0.2775 -0.1510
 5091TIP3   OH239467   4.897   4.843  13.720 -0.6579 -0.3781 -0.2171
 5091TIP3    H139468   4.923   4.889  13.640  0.6936 -1.2753 -0.3205
 5091TIP3    H239469   4.854   4.763  13.690  0.6378 -1.1533 -0.0872
 5092TIP3   OH239470   4.389   7.778  13.488 -0.5049 -0.5313 -0.4172
 5092TIP3    H139471   4.377   7.856  13.433 -0.4004 -0.3387 -0.1681
 5092TIP3    H239472   4.446   7.808  13.559 -1.2849 -0.5691  0.2378
 5093TIP3   OH239473   5.093   4.675  14.998 -0.8543  0.1421 -0.0035
 5093TIP3    H139474   5.151   4.602  14.978  0.1775  0.4662  1.5957
 5093TIP3    H239475   5.016   4.635  15.038 -0.6294 -0.1327  0.1590
 5094TIP3   OH239476   2.585   7.700  14.748 -0.6206 -0.2414 -0.4034
 5094TIP3    H139477   2.582   7.772  14.812 -1.0517 -1.0707  0.5369
 5094TIP3    H239478   2.667   7.654  14.769 -1.3872 -1.2720  0.4231
 5095TIP3   OH239479   2.425   1.776  13.371 -0.3125  0.2515  0.2096
 5095TIP3    H139480   2.463   1.834  13.304 -0.9744 -0.8651 -1.2018
 5095TIP3    H239481   2.473   1.694  13.362  0.6344  0.5389  2.2078
 5096TIP3   OH239482   4.812   7.471  13.967  0.1361 -0.0090  0.0467
 5096TIP3    H139483   4.777   7.560  13.974  1.3533  0.5107 -0.2044
 5096TIP3    H239484   4.906   7.483  13.957  0.4996 -1.3781  1.4034
 5097TIP3   OH239485   5.701   5.451  13.931  0.0952  0.1875  0.1105
 5097TIP3    H139486   5.633   5.462  13.997  0.5512 -0.6108  0.7336
 5097TIP3    H239487   5.777   5.417  13.979  0.0858 -1.4836 -0.9705
 5098TIP3   OH239488   4.494   1.056  13.883 -0.4412  0.1820  0.2052
 5098TIP3    H139489   4.553   1.026  13.953 -0.7756 -0.3246  0.2798
 5098TIP3    H239490   4.528   1.141  13.857  0.7978 -0.4270 -0.2792
 5099TIP3   OH239491   0.142   7.850  13.023  0.0251  0.2839  0.2912
 5099TIP3    H139492   0.172   7.796  12.950  4.1188  0.1162  1.8399
 5099TIP3    H239493   0.164   7.799  13.101 -0.3591  2.1736  1.6968
 5100TIP3   OH239494   8.125   5.553  14.755 -0.0576  0.4802  0.3889
 5100TIP3    H139495   8.193   5.570  14.820  0.3915  0.7806 -0.1523
 5100TIP3    H239496   8.058   5.504  14.803 -0.6144  2.2897  1.5793
 5101TIP3   OH239497   3.298   7.134  14.094 -0.4319 -0.3652  0.7057
 5101TIP3    H139498   3.302   7.153  14.187  1.4087 -1.7973  0.9788
 5101TIP3    H239499   3.215   7.088  14.082 -1.3369  1.0561  1.3517
 5102TIP3   OH239500   3.286   5.825  14.116  0.6186 -0.1682 -0.7326
 5102TIP3    H139501   3.274   5.920  14.112  0.2490 -0.1018  1.0477
 5102TIP3    H239502   3.201   5.791  14.144  1.3564 -0.7577  0.9758
 5103TIP3   OH239503   5.223   2.018  13.525 -0.0074 -0.4440  0.0430
 5103TIP3    H139504   5.296   1.998  13.466  1.2647  0.8309  1.0862
 5103TIP3    H239505   5.182   2.095  13.487  0.8432  0.4073  0.8090
 5104TIP3   OH239506   3.209   4.073  13.996 -0.3617 -0.1071 -0.3690
 5104TIP3    H139507   3.160   4.011  13.941 -1.1031  0.3262 -0.2147
 5104TIP3    H239508   3.269   4.116  13.934 -0.4794 -0.3300 -0.6452
 5105TIP3   OH239509   3.740   0.163  14.907  0.3582  0.0212 -0.3576
 5105TIP3    H139510   3.718   0.234  14.846 -0.0207  0.0583 -0.1816
 5105TIP3    H239511   3.803   0.201  14.967 -0.1523  0.3395 -0.0102
 5106TIP3   OH239512   0.324   2.419  14.061 -0.0124  0.1894  0.4812
 5106TIP3    H139513   0.392   2.484  14.081 -1.6580  1.4915  2.2061
 5106TIP3    H239514   0.267   2.463  13.998  0.0274 -0.4172  0.0178
 5107TIP3   OH239515   1.573   3.147  15.032  0.5414  0.0706 -0.0842
 5107TIP3    H139516   1.592   3.125  14.941 -3.0465  0.4834 -1.0861
 5107TIP3    H239517   1.494   3.096  15.053  0.3172  1.2235  2.2589
 5108TIP3   OH239518   0.030   4.915  13.886 -0.1355  0.4674 -0.5609
 5108TIP3    H139519   0.052   5.000  13.923  0.9082 -0.3754  0.9147
 5108TIP3    H239520   0.100   4.898  13.822  1.7205 -0.6819  1.6010
 5109TIP3   OH239521   1.737   2.552  13.521 -1.1936 -0.1627 -0.1715
 5109TIP3    H139522   1.680   2.621  13.556 -0.5299  0.7914 -0.9128
 5109TIP3    H239523   1.819   2.562  13.568 -0.9477 -0.1581 -0.5950
 5110TIP3   OH239524   1.050   0.843  13.979  0.2909  0.5659 -0.2951
 5110TIP3    H139525   1.135   0.807  13.951  0.3530  0.6538 -0.2180
 5110TIP3    H239526   1.072   0.922  14.027  0.2221  0.0341  0.6288
 5111TIP3   OH239527   5.774   3.319  13.099 -0.2824  0.1024 -0.0099
 5111TIP3    H139528   5.718   3.370  13.039 -0.8781  0.6545  0.9762
 5111TIP3    H239529   5.802   3.243  13.048 -1.1574  0.3172 -0.8366
 5112TIP3   OH239530   6.662   6.551  14.899 -0.2328  0.1567  0.2366
 5112TIP3    H139531   6.577   6.585  14.928 -0.9806 -1.0027 -0.5293
 5112TIP3    H239532   6.712   6.540  14.980 -1.7116 -1.5089  0.9746
 5113TIP3   OH239533   1.488   1.814  14.131 -0.2896 -0.4493 -0.4865
 5113TIP3    H139534   1.398   1.839  14.154  0.5506  0.5143  2.1987
 5113TIP3    H239535   1.539   1.838  14.208  2.4728  0.0010 -2.3319
 5114TIP3   OH239536   3.506   7.325  14.976  0.6244 -0.1993 -0.5345
 5114TIP3    H139537   3.587   7.371  14.952  0.4686 -0.1297 -0.9455
 5114TIP3    H239538   3.487   7.270  14.900  0.3450 -0.2992 -0.3925
 5115TIP3   OH239539   6.422   6.579  15.055  0.5055  0.1780  0.2228
 5115TIP3    H139540   6.371   6.643  15.104 -0.4384 -1.2027  1.1107
 5115TIP3    H239541   6.387   6.583  14.966 -1.6940 -1.2172  0.9608
 5116TIP3   OH239542   1.998   5.114  13.494 -0.1180  0.1638  0.5016
 5116TIP3    H139543   1.947   5.061  13.556  0.3601 -1.7109 -0.5998
 5116TIP3    H239544   1.992   5.203  13.528 -1.4673 -0.4826  2.1504
 5117TIP3   OH239545   0.546   6.630  14.252 -0.4025  0.4064 -0.4253
 5117TIP3    H139546   0.622   6.573  14.235 -0.7920 -0.1285 -0.3910
 5117TIP3    H239547   0.571   6.715  14.214  1.7431  1.3728  2.6863
 5118TIP3   OH239548   0.723   0.358  13.076 -0.0427  0.2283 -0.5368
 5118TIP3    H139549   0.702   0.270  13.108 -1.4078  0.5378 -0.5477
 5118TIP3    H239550   0.640   0.393  13.045  0.3176  1.8430  0.2207
 5119TIP3   OH239551   7.314   5.989  13.666  0.3273 -0.0255  0.1140
 5119TIP3    H139552   7.257   6.057  13.632  0.3940 -0.4786 -0.9355
 5119TIP3    H239553   7.339   5.938  13.589 -2.3736 -3.2897  1.1501
 5120TIP3   OH239554   6.439   0.567  15.072  0.2478  0.0910  0.0285
 5120TIP3    H139555   6.503   0.508  15.031  0.3734 -0.8857  1.5690
 5120TIP3    H239556   6.382   0.510  15.123 -1.5886  1.0093 -0.9006
 5121TIP3   OH239557   5.329   1.356  14.653  0.3777 -0.1131  0.0203
 5121TIP3    H139558   5.334   1.415  14.578  1.5128 -0.0075  0.1590
 5121TIP3    H239559   5.390   1.286  14.632 -1.4333 -1.6193 -0.4352
 5122TIP3   OH239560   4.034   7.872  14.376 -0.5320 -0.0347  0.2437
 5122TIP3    H139561   3.983   7.940  14.421  0.0318  0.7420 -0.2527
 5122TIP3    H239562   4.125   7.893  14.399 -0.3021 -0.1721 -0.5364
 5123TIP3   OH239563   0.175   2.886  14.232  0.1787 -1.0821  0.4920
 5123TIP3    H139564   0.127   2.894  14.314  1.4335  0.0558  1.1706
 5123TIP3    H239565   0.267   2.886  14.258  0.8893  3.5462 -1.0113
 5124TIP3   OH239566   4.258   8.186  14.004  1.0383  0.0015 -0.1241
 5124TIP3    H139567   4.190   8.236  14.050  1.9686  1.9926 -0.8005
 5124TIP3    H239568   4.340   8.216  14.043  1.6083 -1.9442  0.2778
 5125TIP3   OH239569   2.333   3.583  14.330  0.2339  0.1748  0.5682
 5125TIP3    H139570   2.414   3.583  14.278  2.5479 -1.7841  3.8403
 5125TIP3    H239571   2.300   3.673  14.322  2.4157  0.9074 -1.2754
 5126TIP3   OH239572   5.947   4.601  14.610  0.2276 -0.2581 -0.5336
 5126TIP3    H139573   5.992   4.667  14.662  1.3197 -2.7144  1.8932
 5126TIP3    H239574   6.008   4.583  14.538  2.7328 -2.4708  1.8932
 5127TIP3   OH239575   2.061   3.464  13.842  0.3005 -0.1253 -0.2675
 5127TIP3    H139576   2.135   3.467  13.781  1.5634  1.0989  1.2405
 5127TIP3    H239577   2.019   3.550  13.832  0.5222  0.0868  0.5776
 5128TIP3   OH239578   1.846   6.449  13.197 -0.4014 -0.4141  0.5267
 5128TIP3    H139579   1.870   6.449  13.289 -1.4205  1.2291  0.8394
 5128TIP3    H239580   1.929   6.459  13.150  0.0356 -0.3139  1.3122
 5129TIP3   OH239581   0.014   7.996  14.566  0.3889  0.2225  0.3991
 5129TIP3    H139582   0.011   8.058  14.639  1.1212  0.1059  0.5303
 5129TIP3    H239583   0.099   8.010  14.525  0.2480 -0.1701 -0.0367
 5130TIP3   OH239584   5.128   5.033  14.344 -0.0233  0.2094  0.1790
 5130TIP3    H139585   5.188   5.059  14.414 -0.8456  1.3150  0.5185
 5130TIP3    H239586   5.064   5.105  14.340 -0.5226 -0.2727 -1.0937
 5131TIP3   OH239587   1.864   7.836  13.613  0.2496 -0.4198 -0.2275
 5131TIP3    H139588   1.888   7.893  13.540 -2.0955  1.1862  0.1346
 5131TIP3    H239589   1.788   7.879  13.653  0.4871 -2.0492  2.2160
 5132TIP3   OH239590   4.233   6.509  13.615  0.3310  0.4833 -0.0100
 5132TIP3    H139591   4.142   6.485  13.599  0.3244  1.1946 -1.1326
 5132TIP3    H239592   4.243   6.594  13.573  1.5443  0.3580 -0.0054
 5133TIP3   OH239593   1.356   4.000  12.885 -0.1554 -0.0639  0.2789
 5133TIP3    H139594   1.370   3.936  12.815  2.7294 -1.9086  2.3395
 5133TIP3    H239595   1.392   4.082  12.850  0.2537 -0.6685 -0.7696
 5134TIP3   OH239596   1.326   3.714  14.817 -0.7572  0.7450 -0.0783
 5134TIP3    H139597   1.266   3.648  14.852 -0.0772 -0.9425 -1.9050
 5134TIP3    H239598   1.352   3.679  14.732  1.5703  2.1976 -0.0341
 5135TIP3   OH239599   2.119   1.554  13.115 -0.1136 -0.4066 -0.4670
 5135TIP3    H139600   2.076   1.597  13.041 -1.2324 -1.2732 -0.3531
 5135TIP3    H239601   2.150   1.470  13.080  2.8406  0.7609 -0.9240
 5136TIP3   OH239602   7.513   2.736  13.246  0.9306  0.4838 -0.3000
 5136TIP3    H139603   7.601   2.720  13.213  0.7712  0.4726 -0.7215
 5136TIP3    H239604   7.456   2.684  13.189  0.6194  0.7392 -0.2241
 5137TIP3   OH239605   1.931   7.509  14.220 -0.7038 -0.5384 -0.9099
 5137TIP3    H139606   1.993   7.460  14.166 -0.8868 -1.1844 -0.5429
 5137TIP3    H239607   1.919   7.455  14.298 -0.0087  0.6550  0.0538
 5138TIP3   OH239608   3.885   7.069  15.435 -0.1431  0.0382  0.3467
 5138TIP3    H139609   3.887   7.012  15.512 -0.5999  0.1762  0.4633
 5138TIP3    H239610   3.934   7.020  15.368  2.0979  0.8109  1.3119
 5139TIP3   OH239611   3.279   5.335  14.900 -0.0202  0.3444 -0.0492
 5139TIP3    H139612   3.324   5.310  14.819 -1.7903 -0.1143 -0.9628
 5139TIP3    H239613   3.210   5.268  14.910  0.4442  0.1304  2.1069
 5140TIP3   OH239614   1.116   5.333  14.833 -0.5076  0.1255 -0.0359
 5140TIP3    H139615   1.167   5.286  14.768 -0.9516  1.4660 -1.4106
 5140TIP3    H239616   1.026   5.303  14.821 -0.6080  0.4551 -0.1242
 5141TIP3   OH239617   8.231   6.863  18.586 -0.1883  0.4811  0.4899
 5141TIP3    H139618   8.162   6.807  18.620 -0.0976 -0.4464 -0.7956
 5141TIP3    H239619   8.252   6.826  18.501  1.1799  1.3650  0.4165
 5142TIP3   OH239620   0.006   2.669  13.641  0.5794 -0.6803 -0.2042
 5142TIP3    H139621  -0.019   2.584  13.605 -0.9251 -0.0448 -0.7524
 5142TIP3    H239622   0.046   2.716  13.567  0.0658 -0.3954 -0.3075
 5143TIP3   OH239623   0.751   6.169  14.504 -0.3374 -0.1108  0.2128
 5143TIP3    H139624   0.738   6.168  14.409 -0.3279 -2.0351  0.1936
 5143TIP3    H239625   0.812   6.241  14.519 -2.0471  1.6731 -0.9529
 5144TIP3   OH239626   4.033   1.706  14.324 -0.3103 -0.1881 -0.0128
 5144TIP3    H139627   3.959   1.727  14.380  0.2216 -1.4444  1.2287
 5144TIP3    H239628   4.087   1.786  14.324 -1.9968  1.0561 -1.6321
 5145TIP3   OH239629   7.923   0.742  14.195  0.6063  0.3267  0.0433
 5145TIP3    H139630   7.836   0.762  14.160  0.0835 -0.6595  0.7146
 5145TIP3    H239631   7.980   0.809  14.158 -0.4941  1.1749 -0.1671
 5146TIP3   OH239632   4.985   6.744  13.197 -0.0842  0.5452  0.4681
 5146TIP3    H139633   4.971   6.775  13.108 -2.1711 -1.2262  0.1003
 5146TIP3    H239634   4.907   6.692  13.217  1.9012 -2.0869  2.0206
 5147TIP3   OH239635   5.141   4.214  15.010  0.3865  0.3927 -0.3896
 5147TIP3    H139636   5.209   4.281  15.001  2.6759 -1.5492  1.0535
 5147TIP3    H239637   5.123   4.187  14.920  2.4811  0.1502 -0.8037
 5148TIP3   OH239638   7.688   4.091  13.282  0.3515 -0.1522  0.0793
 5148TIP3    H139639   7.633   4.028  13.236  0.6176 -0.2007 -0.1782
 5148TIP3    H239640   7.644   4.175  13.268  1.5297  0.1770 -2.1130
 5149TIP3   OH239641   0.103   2.210  14.141 -0.0083  0.6763  0.2086
 5149TIP3    H139642   0.162   2.138  14.163 -3.2243 -2.5826 -0.7634
 5149TIP3    H239643   0.087   2.200  14.047 -0.1892  3.0633 -0.0810
 5150TIP3   OH239644   3.232   2.870  14.975  0.1612 -0.5651 -0.4957
 5150TIP3    H139645   3.195   2.952  15.009 -0.0259 -0.8649  0.0354
 5150TIP3    H239646   3.278   2.832  15.049  0.5861 -0.7478 -0.8517
 5151TIP3   OH239647   5.687   2.979  14.553 -0.3087 -0.9098 -0.1689
 5151TIP3    H139648   5.757   2.991  14.617 -0.4253 -2.4097  0.2756
 5151TIP3    H239649   5.623   2.923  14.597 -3.0454  2.2566  0.3594
 5152TIP3   OH239650   2.431   5.296  13.194  0.2300  0.2292  0.1452
 5152TIP3    H139651   2.512   5.309  13.145  0.9221 -1.7569  0.6609
 5152TIP3    H239652   2.368   5.267  13.129  0.2960  0.5277 -0.0524
 5153TIP3   OH239653   4.461   4.275  13.361  0.0102 -0.2183 -0.4514
 5153TIP3    H139654   4.371   4.264  13.392  0.4657 -1.1121  0.6169
 5153TIP3    H239655   4.487   4.362  13.393  0.2090 -0.8107  1.0912
 5154TIP3   OH239656   6.902   5.263  14.421 -0.0357 -0.7419  0.4157
 5154TIP3    H139657   6.991   5.270  14.456  0.2303 -0.7033 -0.2421
 5154TIP3    H239658   6.901   5.325  14.347 -1.1528  0.5923  1.4837
 5155TIP3   OH239659   1.978   5.750  13.364 -0.5925 -0.1987  0.5486
 5155TIP3    H139660   1.941   5.800  13.292 -1.0511 -0.9610  0.2403
 5155TIP3    H239661   1.910   5.686  13.386  1.2632 -3.1844 -1.5315
 5156TIP3   OH239662   5.177   1.341  13.959 -0.0398 -0.0435 -0.1967
 5156TIP3    H139663   5.096   1.317  13.913 -0.1756 -1.9453  0.9439
 5156TIP3    H239664   5.233   1.378  13.891 -1.0728 -0.6549 -1.4272
 5157TIP3   OH239665   1.471   7.026  13.612  0.1812 -0.5321 -0.0336
 5157TIP3    H139666   1.528   7.068  13.676  1.2317  0.9072 -1.8018
 5157TIP3    H239667   1.463   6.935  13.642  0.8471  0.0072  1.9255
 5158TIP3   OH239668   5.409   2.967  13.928 -0.4822 -0.0623 -0.1530
 5158TIP3    H139669   5.439   2.986  13.840  0.8072  1.9811  0.6680
 5158TIP3    H239670   5.489   2.967  13.981 -1.2148 -1.3499  1.0315
 5159TIP3   OH239671   7.654   2.941  14.342 -0.1211 -0.6131  0.0098
 5159TIP3    H139672   7.582   2.888  14.308 -2.0849  0.3435  2.4332
 5159TIP3    H239673   7.615   3.027  14.359  2.6236  1.3004 -2.4538
 5160TIP3   OH239674   6.278   0.160  12.686  0.1291 -0.1379 -0.1006
 5160TIP3    H139675   6.306   0.239  12.640 -1.2164 -0.1343 -0.9616
 5160TIP3    H239676   6.296   0.089  12.625 -2.5520 -0.0412 -1.1470
 5161TIP3   OH239677   5.716   4.325  15.130  0.2616 -0.3399 -0.2160
 5161TIP3    H139678   5.641   4.313  15.190  1.1393 -1.6296  0.6925
 5161TIP3    H239679   5.792   4.330  15.188  1.0894 -1.1378 -1.1991
 5162TIP3   OH239680   3.166   6.464  13.923 -0.6109 -0.5000  0.2089
 5162TIP3    H139681   3.155   6.554  13.892  0.7499 -0.0043  1.0737
 5162TIP3    H239682   3.249   6.435  13.886 -1.2904 -1.6154 -0.5014
 5163TIP3   OH239683   8.015   3.413  14.874  0.0069  0.2569 -0.7636
 5163TIP3    H139684   7.924   3.385  14.864  0.0580 -0.3444  0.3456
 5163TIP3    H239685   8.028   3.475  14.802 -0.3830 -1.8045 -2.7301
 5164TIP3   OH239686   5.226   2.546  14.022  0.2262  0.7045  0.3365
 5164TIP3    H139687   5.153   2.484  14.022  1.5578 -0.9448 -0.8149
 5164TIP3    H239688   5.298   2.497  14.061  1.7839  0.8616 -2.1450
 5165TIP3   OH239689   7.130   3.020  14.619 -0.1535 -0.0165  0.1864
 5165TIP3    H139690   7.107   3.113  14.621  1.6048  0.4482  2.0036
 5165TIP3    H239691   7.205   3.014  14.561 -0.3931 -0.3429 -0.0941
 5166TIP3   OH239692   5.947   7.570  14.826  0.0613 -0.0400 -0.0065
 5166TIP3    H139693   5.864   7.547  14.869  0.8099  1.0579  2.2059
 5166TIP3    H239694   5.996   7.487  14.823 -0.7638 -0.5205 -0.5492
 5167TIP3   OH239695   7.970   5.205  13.245 -0.0866 -0.3286  0.4150
 5167TIP3    H139696   7.892   5.259  13.236  0.7231  0.6519 -1.2051
 5167TIP3    H239697   7.936   5.115  13.252 -1.4024 -0.4369 -4.1676
 5168TIP3   OH239698   0.567   3.708  14.284  0.1846 -0.2620 -0.3992
 5168TIP3    H139699   0.654   3.671  14.268  0.0017 -2.0252  1.9615
 5168TIP3    H239700   0.580   3.765  14.360 -0.6122 -0.0877 -0.3919
 5169TIP3   OH239701   3.589   8.203  14.481  0.1583 -0.7170  0.3623
 5169TIP3    H139702   3.572   8.178  14.572  0.6664 -0.8745  0.4193
 5169TIP3    H239703   3.581   8.298  14.481 -0.5051 -0.7706  0.4256
 5170TIP3   OH239704   2.055   4.246  13.541 -0.5763 -0.2714 -0.5005
 5170TIP3    H139705   2.147   4.232  13.561 -0.9624 -2.0401  0.2160
 5170TIP3    H239706   2.046   4.224  13.448 -0.3972 -0.7888 -0.3974
 5171TIP3   OH239707   6.155   7.405  14.091 -0.4622  0.4150  0.5099
 5171TIP3    H139708   6.190   7.399  14.002 -1.0282  2.5685  0.0601
 5171TIP3    H239709   6.191   7.487  14.125  1.0204 -1.1333  2.9048
 5172TIP3   OH239710   5.153   0.933  14.718 -0.2740  0.0565  0.2319
 5172TIP3    H139711   5.135   1.016  14.674 -0.5376 -0.9543 -1.6407
 5172TIP3    H239712   5.075   0.916  14.770 -1.0171  0.0633 -0.8604
 5173TIP3   OH239713   2.422   0.131  14.608  0.0996  0.1633 -0.0111
 5173TIP3    H139714   2.344   0.187  14.614  1.1592  1.6625  0.5946
 5173TIP3    H239715   2.439   0.124  14.514 -1.7232 -1.6445 -0.2667
 5174TIP3   OH239716   4.646   4.625  15.187  0.4195  0.0066  0.5362
 5174TIP3    H139717   4.722   4.569  15.203 -0.0760 -0.9670 -0.3765
 5174TIP3    H239718   4.576   4.587  15.241 -0.6266 -1.9022 -1.9717
 5175TIP3   OH239719   4.061   0.211  13.930  0.1414  0.0940 -0.5987
 5175TIP3    H139720   4.138   0.215  13.987  0.9765 -0.4040 -1.6610
 5175TIP3    H239721   3.988   0.230  13.988  0.7952 -1.8510  0.9831
 5176TIP3   OH239722   0.941   4.209  12.923 -0.2583 -0.3805  0.0997
 5176TIP3    H139723   0.858   4.255  12.916 -0.2858 -0.5888 -1.3015
 5176TIP3    H239724   1.007   4.278  12.931 -0.3050 -0.0581 -1.9045
 5177TIP3   OH239725   6.157   6.807  13.846 -0.3092  0.3074 -0.1207
 5177TIP3    H139726   6.203   6.865  13.907  0.1899  0.6503 -0.8138
 5177TIP3    H239727   6.181   6.718  13.875 -0.6186  0.4391  0.5847
 5178TIP3   OH239728   2.184   6.577  14.801  0.1905  0.2348  0.5571
 5178TIP3    H139729   2.126   6.619  14.865 -0.8355  0.1296 -0.2788
 5178TIP3    H239730   2.127   6.556  14.727  0.8741 -1.7201  0.5223
 5179TIP3   OH239731   1.307   5.728  15.202  0.0936 -0.2483 -1.5529
 5179TIP3    H139732   1.322   5.644  15.245  0.9541  1.1649  1.1901
 5179TIP3    H239733   1.382   5.739  15.143  1.0842 -0.5438 -0.3853
 5180TIP3   OH239734   0.444   5.991  13.928 -0.0823  0.1656  0.2087
 5180TIP3    H139735   0.518   6.015  13.983  0.3568 -0.4312 -0.1145
 5180TIP3    H239736   0.418   6.074  13.886  0.7161  0.2890 -0.0540
 5181TIP3   OH239737   3.970   3.016  13.879  0.0320  0.0961 -0.1446
 5181TIP3    H139738   3.975   3.013  13.975 -0.6541  1.0704 -0.0661
 5181TIP3    H239739   4.057   2.989  13.850  0.0454 -0.9093  0.7290
 5182TIP3   OH239740   2.235   1.578  13.538 -0.1322 -0.3970  0.6796
 5182TIP3    H139741   2.259   1.501  13.486 -1.1311 -0.9776  1.0574
 5182TIP3    H239742   2.206   1.642  13.473 -1.3251 -1.1039  0.4856
 5183TIP3   OH239743   6.581   2.677  13.455 -0.3169  0.3063 -0.0622
 5183TIP3    H139744   6.560   2.718  13.371  0.5318  0.1888 -0.3461
 5183TIP3    H239745   6.554   2.586  13.445 -2.3788  0.8016  0.6353
 5184TIP3   OH239746   0.955   6.994  14.182  0.5561 -0.3832  0.3845
 5184TIP3    H139747   0.928   6.915  14.135 -1.0593 -0.0039  0.6295
 5184TIP3    H239748   0.960   6.968  14.274 -1.4568  0.1052  0.6824
 5185TIP3   OH239749   3.654   6.567  13.748 -0.5504  0.0864  0.6379
 5185TIP3    H139750   3.666   6.652  13.706 -0.0840 -0.3520 -0.1462
 5185TIP3    H239751   3.669   6.504  13.677 -1.7749 -0.6277  1.0010
 5186TIP3   OH239752   2.048   7.367  12.952  0.2792 -0.6638 -0.0732
 5186TIP3    H139753   1.979   7.363  12.885 -0.1568  0.7186  0.2622
 5186TIP3    H239754   2.036   7.287  13.003 -1.7647 -0.0144  0.5932
 5187TIP3   OH239755   3.321   6.123  14.887  0.0410 -0.1680  0.0191
 5187TIP3    H139756   3.227   6.103  14.892  0.1681 -0.7347  0.2336
 5187TIP3    H239757   3.345   6.147  14.976  0.0561  0.1681 -0.0770
 5188TIP3   OH239758   5.204   1.867  14.528 -0.0707  0.4486  0.1670
 5188TIP3    H139759   5.198   1.857  14.623 -2.3235  0.3436  0.0466
 5188TIP3    H239760   5.295   1.893  14.514  0.9969 -1.8341  2.1115
 5189TIP3   OH239761   0.388   3.333  14.168  0.4489  0.4043 -0.0704
 5189TIP3    H139762   0.304   3.296  14.142  0.1171  1.7549 -0.9961
 5189TIP3    H239763   0.395   3.415  14.119  2.1139  0.5326  0.3148
 5190TIP3   OH239764   7.041   4.956  14.411 -0.2812  0.5125  0.1628
 5190TIP3    H139765   6.970   4.958  14.347 -0.6840 -0.3991  0.5646
 5190TIP3    H239766   6.998   4.945  14.495  0.3242  0.1445  0.4344
 5191TIP3   OH239767   7.257   3.735  13.313  0.9929  0.2494 -0.0674
 5191TIP3    H139768   7.321   3.704  13.248  0.7297 -0.2714 -0.0828
 5191TIP3    H239769   7.288   3.823  13.337  1.2264  0.3521 -0.7198
 5192TIP3   OH239770   6.636   4.599  13.320 -0.0360 -0.0450 -0.7233
 5192TIP3    H139771   6.642   4.687  13.283 -0.9149 -0.0890 -1.0036
 5192TIP3    H239772   6.671   4.607  13.409 -1.4332  0.9319 -0.2238
 5193TIP3   OH239773   3.017   0.278  14.892  0.0114  0.2328 -0.4871
 5193TIP3    H139774   3.064   0.253  14.972 -0.0769  0.9673 -0.2000
 5193TIP3    H239775   2.933   0.232  14.899  0.7964 -1.3550 -1.1671
 5194TIP3   OH239776   1.351   3.802  14.088  0.3532  0.4785 -0.5740
 5194TIP3    H139777   1.358   3.742  14.162 -2.9880 -0.5635 -0.9194
 5194TIP3    H239778   1.327   3.886  14.128 -2.0955 -0.2323 -0.3595
 5195TIP3   OH239779   2.136   2.602  13.278  0.0337 -0.1732  0.2327
 5195TIP3    H139780   2.188   2.523  13.263 -0.6810 -0.8874  1.4269
 5195TIP3    H239781   2.145   2.620  13.371 -1.8889 -0.3405  0.4735
 5196TIP3   OH239782   2.401   2.865  14.061  0.3064 -0.3665  0.3608
 5196TIP3    H139783   2.491   2.834  14.048  1.0430  2.0002 -0.7437
 5196TIP3    H239784   2.366   2.873  13.973 -0.3590  0.4490  0.6902
 5197TIP3   OH239785   6.082   4.636  13.028 -0.2303 -0.7613  0.2143
 5197TIP3    H139786   6.106   4.546  13.011 -1.1590 -1.1586  0.9062
 5197TIP3    H239787   6.114   4.653  13.117  0.5520 -0.1794 -0.1667
 5198TIP3   OH239788   5.575   3.142  14.385 -0.5302  0.2107 -0.3994
 5198TIP3    H139789   5.620   3.091  14.452 -2.1115 -0.8533 -0.1184
 5198TIP3    H239790   5.490   3.099  14.374 -1.2540  1.8022 -1.3569
 5199TIP3   OH239791   5.738   0.837  14.539  0.1510  0.0798  0.1718
 5199TIP3    H139792   5.663   0.779  14.527 -0.1866  0.4169  0.5894
 5199TIP3    H239793   5.788   0.829  14.458  1.3186 -2.4889  1.0430
 5200TIP3   OH239794   7.041   3.016  13.412 -0.7902 -0.0349  0.4369
 5200TIP3    H139795   6.980   2.943  13.419  0.2574 -0.7891  2.4807
 5200TIP3    H239796   6.984   3.093  13.400 -2.0233 -0.9308  0.3225
 5201TIP3   OH239797   5.783   1.927  13.392 -0.4330  0.8036 -0.1406
 5201TIP3    H139798   5.727   1.919  13.470 -2.1934 -2.0453 -1.5025
 5201TIP3    H239799   5.858   1.871  13.412 -0.6116  0.5237 -0.2371
 5202TIP3   OH239800   6.858   5.626  14.904 -0.6119  0.7410 -0.0450
 5202TIP3    H139801   6.888   5.690  14.968  0.2759 -0.4235  0.7615
 5202TIP3    H239802   6.802   5.567  14.954  0.1191 -0.2015 -0.3051
 5203TIP3   OH239803   6.059   5.699  15.138  0.0834 -0.5372  0.2264
 5203TIP3    H139804   6.038   5.606  15.127  0.4064 -0.5031 -0.7936
 5203TIP3    H239805   5.986   5.745  15.098  0.9242 -0.3965 -1.2206
 5204TIP3   OH239806   4.256   0.215  13.693  0.1926  0.3951 -0.0126
 5204TIP3    H139807   4.248   0.142  13.630  0.0282 -0.4568  0.9701
 5204TIP3    H239808   4.178   0.208  13.747  0.0232  1.5172 -0.1069
 5205TIP3   OH239809   7.929   5.483  15.264  0.0194 -0.4456  0.1210
 5205TIP3    H139810   8.021   5.503  15.280 -0.0233 -0.2015  0.0555
 5205TIP3    H239811   7.888   5.568  15.247  0.1808 -0.7268 -1.9536
 5206TIP3   OH239812   1.613   8.026  14.175 -0.3499 -0.5197 -0.6512
 5206TIP3    H139813   1.665   8.038  14.254 -0.7684  1.3349 -0.6318
 5206TIP3    H239814   1.538   8.084  14.186 -0.2516  0.0384 -2.5539
 5207TIP3   OH239815   5.200   5.977  14.739 -0.6284 -0.0614  0.6884
 5207TIP3    H139816   5.171   5.948  14.826 -0.3870 -0.6150  0.5854
 5207TIP3    H239817   5.295   5.981  14.745 -0.6107 -0.1080  0.4420
 5208TIP3   OH239818   1.829   4.405  13.558 -0.4781 -0.1848  0.5810
 5208TIP3    H139819   1.836   4.416  13.653 -0.0310  2.5597  0.3067
 5208TIP3    H239820   1.901   4.345  13.536  1.0502  1.1231  1.7280
 5209TIP3   OH239821   4.600   2.646  14.034 -0.1581  0.2137  0.0050
 5209TIP3    H139822   4.626   2.563  14.076  0.0319  0.7813  1.0550
 5209TIP3    H239823   4.661   2.656  13.961  0.0156 -0.4301  0.0542
 5210TIP3   OH239824   7.113   4.142  14.540 -0.0422 -0.2848 -0.7384
 5210TIP3    H139825   7.204   4.116  14.528 -0.0382 -0.2395 -0.8104
 5210TIP3    H239826   7.061   4.069  14.506 -0.0351 -0.4520 -0.3940
 5211TIP3   OH239827   3.450   3.991  14.666 -0.0189  0.0372 -0.7035
 5211TIP3    H139828   3.360   3.971  14.642 -0.2991  0.7024 -0.2303
 5211TIP3    H239829   3.477   4.059  14.604  0.1370 -0.1245 -0.8123
 5212TIP3   OH239830   1.977   2.089  15.082 -0.6145  0.4491  0.3653
 5212TIP3    H139831   1.903   2.084  15.021  0.0492  0.2660 -0.4534
 5212TIP3    H239832   1.953   2.157  15.144 -1.9835 -0.4162  0.8390
 5213TIP3   OH239833   0.479   5.493  13.164 -0.3005  0.2490 -0.1348
 5213TIP3    H139834   0.519   5.577  13.141 -3.1390  1.0739 -2.7416
 5213TIP3    H239835   0.404   5.516  13.218 -0.3314 -0.7432  0.2703
 5214TIP3   OH239836   6.997   3.671  13.375 -0.2967 -0.0090  0.0664
 5214TIP3    H139837   7.081   3.714  13.364 -0.1325 -0.1887  0.5795
 5214TIP3    H239838   6.957   3.672  13.288  0.6431 -0.7883 -0.3799
 5215TIP3   OH239839   2.075   2.898  14.460 -0.6965 -0.1097  0.2303
 5215TIP3    H139840   2.151   2.877  14.406 -0.0844 -0.4840  1.1883
 5215TIP3    H239841   2.096   2.858  14.545 -1.6643  0.3752  0.7050
 5216TIP3   OH239842   5.698   4.596  14.169  0.1137 -0.1497 -0.2274
 5216TIP3    H139843   5.794   4.599  14.167  0.1243  0.5753  0.7579
 5216TIP3    H239844   5.677   4.574  14.259 -0.6565 -1.2239 -0.6454
 5217TIP3   OH239845   1.358   5.787  14.814  0.1510  0.1135  0.3156
 5217TIP3    H139846   1.403   5.704  14.833 -0.5779 -0.1603  0.8821
 5217TIP3    H239847   1.285   5.763  14.757  0.2741  0.4498  0.0121
 5218TIP3   OH239848   6.147   0.002  14.078  0.4927 -0.2273  0.1109
 5218TIP3    H139849   6.135   0.091  14.109  0.5751 -0.4373  0.7620
 5218TIP3    H239850   6.082  -0.050  14.125 -0.2123 -0.3613 -0.9897
 5219TIP3   OH239851   4.579   6.717  14.723 -0.1928 -0.3610 -0.1147
 5219TIP3    H139852   4.611   6.666  14.648  0.2413  0.0515 -0.2140
 5219TIP3    H239853   4.485   6.698  14.726 -0.0972 -0.8881 -0.3665
 5220TIP3   OH239854   0.003   2.054  14.788 -0.0051  0.3932 -0.0346
 5220TIP3    H139855  -0.037   2.082  14.870 -0.6394  0.3034 -0.3092
 5220TIP3    H239856   0.055   2.130  14.760 -2.6494  1.8606 -1.3921
 5221TIP3   OH239857   3.673   6.547  14.049 -0.7720  0.2806  0.8561
 5221TIP3    H139858   3.577   6.542  14.047 -0.8821  1.4784  1.6791
 5221TIP3    H239859   3.701   6.505  13.968 -1.8741 -1.9193  1.5369
 5222TIP3   OH239860   2.683   5.719  14.073 -0.2593 -0.0119 -0.0160
 5222TIP3    H139861   2.700   5.764  14.156 -2.6509  0.9791  0.0257
 5222TIP3    H239862   2.714   5.630  14.087  0.9187  0.5710  1.3366
 5223TIP3   OH239863   3.690   3.426  14.416  0.5926 -0.3267  0.3768
 5223TIP3    H139864   3.737   3.378  14.347 -0.1783 -0.5306 -0.0114
 5223TIP3    H239865   3.603   3.386  14.418  0.8200 -0.8151  1.9742
 5224TIP3   OH239866   8.238   3.918  13.346 -0.0041  0.7900  0.1033
 5224TIP3    H139867   8.163   3.975  13.364  1.8158  3.0928  0.8821
 5224TIP3    H239868   8.286   3.915  13.429  0.8337 -0.5846 -0.3911
 5225TIP3   OH239869   7.726   5.324  13.225 -0.1227 -0.0086 -0.3855
 5225TIP3    H139870   7.640   5.316  13.184  1.4886 -1.8458 -3.8811
 5225TIP3    H239871   7.709   5.317  13.319 -3.7955  0.3633 -0.8767
 5226TIP3   OH239872   5.818   4.184  14.375  0.3886  0.1036  0.2835
 5226TIP3    H139873   5.764   4.209  14.300 -0.4999 -0.5051  0.7193
 5226TIP3    H239874   5.778   4.229  14.449 -0.0190 -0.9934  0.7399
 5227TIP3   OH239875   2.226   1.511  14.261 -0.4778  0.0333 -0.1190
 5227TIP3    H139876   2.244   1.467  14.178 -1.2098 -0.3302 -0.0943
 5227TIP3    H239877   2.303   1.565  14.276 -0.6519  0.6742 -1.4035
 5228TIP3   OH239878   0.670   3.796  12.774  0.4089  0.0978  0.0777
 5228TIP3    H139879   0.702   3.859  12.710  1.1887 -1.0245 -0.6783
 5228TIP3    H239880   0.624   3.730  12.721 -0.3967  0.0293  0.8465
 5229TIP3   OH239881   5.725   5.520  12.840  0.1714 -0.4017 -0.1789
 5229TIP3    H139882   5.717   5.465  12.762 -2.1973 -0.9970  0.4017
 5229TIP3    H239883   5.690   5.466  12.911  0.6550  0.7615  0.9889
 5230TIP3   OH239884   4.734   8.447  14.605 -0.4582 -0.0064 -0.4700
 5230TIP3    H139885   4.719   8.535  14.641  0.4231 -0.0239 -0.0247
 5230TIP3    H239886   4.787   8.462  14.527 -2.4244  0.0357 -1.8518
 5231TIP3   OH239887   0.135   4.108  15.361 -0.0663  0.6018  0.3172
 5231TIP3    H139888   0.114   4.193  15.322  0.9398  0.3786 -0.7906
 5231TIP3    H239889   0.192   4.129  15.435 -0.1631  0.9150  0.3048
 5232TIP3   OH239890   7.701   2.941  13.949 -0.0233 -0.1986 -0.1000
 5232TIP3    H139891   7.746   2.923  13.866 -0.3165  0.7091 -0.4736
 5232TIP3    H239892   7.772   2.961  14.011  0.1790 -0.5457 -0.2162
 5233TIP3   OH239893   7.893   7.213  14.253 -0.1933  0.6880  0.6885
 5233TIP3    H139894   7.856   7.191  14.338  1.6244 -1.1367  1.0962
 5233TIP3    H239895   7.838   7.165  14.190 -0.4894  0.6451  0.9767
 5234TIP3   OH239896   5.181   6.880  13.354 -0.5610 -0.2209 -0.5918
 5234TIP3    H139897   5.126   6.824  13.300 -1.2339  2.2126 -2.6430
 5234TIP3    H239898   5.267   6.839  13.353 -0.9364 -1.0222 -2.3422
 5235TIP3   OH239899   6.804   0.860  14.075  0.2356  0.4285  0.0006
 5235TIP3    H139900   6.829   0.807  13.999 -0.9010  1.8230 -1.4335
 5235TIP3    H239901   6.714   0.886  14.058  1.2368  4.4067 -0.5095
 5236TIP3   OH239902   6.345   3.825  13.172 -0.0069  0.0497 -0.2810
 5236TIP3    H139903   6.277   3.871  13.122  0.1912 -0.7765 -1.3512
 5236TIP3    H239904   6.424   3.876  13.157 -0.1930  0.5132  0.2463
 5237TIP3   OH239905   1.704   8.388  13.319 -0.6313  0.5243 -0.0523
 5237TIP3    H139906   1.764   8.441  13.371 -0.6791  1.1939 -0.6749
 5237TIP3    H239907   1.617   8.409  13.354 -0.5647 -0.0254  0.4721
 5238TIP3   OH239908   5.762   3.821  15.063  0.0568 -0.3643  0.4696
 5238TIP3    H139909   5.826   3.820  15.134  0.3238 -3.1348  0.2963
 5238TIP3    H239910   5.682   3.785  15.102 -0.7263  0.9015  0.0889
 5239TIP3   OH239911   1.615   4.018  14.914 -0.8575 -0.0394 -0.1181
 5239TIP3    H139912   1.546   4.018  14.980 -0.1263 -2.0214  0.7224
 5239TIP3    H239913   1.614   3.929  14.878 -0.1486  0.5203 -1.6317
 5240TIP3   OH239914   2.652   7.335  14.931 -0.2617  0.3692  0.1736
 5240TIP3    H139915   2.596   7.390  14.985  0.0110 -0.2986  1.1704
 5240TIP3    H239916   2.642   7.247  14.967  1.5463  0.2527  0.5207
 5241TIP3   OH239917   7.904   6.543  14.486 -0.1595 -0.0799  0.7910
 5241TIP3    H139918   7.961   6.466  14.490 -1.8365 -1.5440 -1.1242
 5241TIP3    H239919   7.963   6.616  14.469  1.1982 -1.5233 -1.1783
 5242TIP3   OH239920   3.572   6.655  15.299  0.1028 -0.0079 -0.1193
 5242TIP3    H139921   3.492   6.647  15.350  0.1508  1.0947  0.1630
 5242TIP3    H239922   3.610   6.739  15.327 -0.3793  1.1373 -2.6698
 5243TIP3   OH239923   6.109   8.351  12.557 -0.0380 -0.1778  0.5872
 5243TIP3    H139924   6.041   8.293  12.592 -1.1942  0.2103 -0.9174
 5243TIP3    H239925   6.064   8.434  12.541  1.2774  0.7286  1.3929
 5244TIP3   OH239926   3.882   6.595  14.999  0.1270  0.2085 -0.6815
 5244TIP3    H139927   3.815   6.528  14.986 -1.0852  1.5038 -1.2801
 5244TIP3    H239928   3.953   6.549  15.045 -0.9945 -1.2753 -0.3715
 5245TIP3   OH239929   3.612   2.073  13.550 -0.5656 -0.0459 -0.6618
 5245TIP3    H139930   3.572   2.074  13.464 -1.2429 -2.0046 -0.4161
 5245TIP3    H239931   3.704   2.094  13.534 -0.8364  0.3615 -1.7599
 5246TIP3   OH239932   4.992   8.029  14.387  0.1457 -0.5217 -0.4766
 5246TIP3    H139933   5.046   8.108  14.398  3.6077 -2.1308 -3.6775
 5246TIP3    H239934   5.005   7.980  14.468 -0.2381  1.1279  0.6442
 5247TIP3   OH239935   7.553   3.973  13.076  0.0610  0.3402  0.4047
 5247TIP3    H139936   7.529   4.048  13.022 -0.6650 -0.6221 -0.6243
 5247TIP3    H239937   7.580   3.905  13.014 -0.9315 -0.8355  1.2231
 5248TIP3   OH239938   5.135   7.583  14.439 -0.1861 -0.3848  0.0467
 5248TIP3    H139939   5.185   7.512  14.399  1.3949 -0.3662  1.8272
 5248TIP3    H239940   5.173   7.593  14.526 -0.7162  2.2809  0.0774
 5249TIP3   OH239941   5.659   1.061  14.022  0.1990 -0.4248  0.1154
 5249TIP3    H139942   5.743   1.034  13.986  0.1083 -1.1214  0.4231
 5249TIP3    H239943   5.602   1.070  13.946 -0.0405 -2.0587  0.0721
 5250TIP3   OH239944   0.802   5.547  13.734  0.4085 -0.0292 -0.1576
 5250TIP3    H139945   0.896   5.540  13.717  0.4873 -1.7581  0.8542
 5250TIP3    H239946   0.795   5.608  13.807  0.7403  0.1156 -0.2457
 5251TIP3   OH239947   3.133   4.734  13.699 -0.2125  0.3627  0.1440
 5251TIP3    H139948   3.133   4.671  13.772  2.4525  0.4795  0.3526
 5251TIP3    H239949   3.055   4.712  13.649 -0.6291 -1.5735  1.5087
 5252TIP3   OH239950   0.592   5.693  14.700  0.5126  0.0218 -0.5002
 5252TIP3    H139951   0.636   5.692  14.785 -0.2844  0.7620 -0.0599
 5252TIP3    H239952   0.642   5.757  14.649 -0.4859  1.4676  0.2663
 5253TIP3   OH239953   1.119   7.473  13.150  0.7792 -0.5934 -0.4570
 5253TIP3    H139954   1.190   7.529  13.181 -1.5194  1.3087  1.8325
 5253TIP3    H239955   1.066   7.456  13.228 -1.2399 -2.0080 -2.0158
 5254TIP3   OH239956   0.521   4.445  14.556 -0.0497  0.0220 -0.4213
 5254TIP3    H139957   0.583   4.502  14.512  0.4001 -1.2131 -1.4758
 5254TIP3    H239958   0.450   4.502  14.584  0.8046  1.2094 -0.6391
 5255TIP3   OH239959   0.879   6.770  14.036 -0.3833 -0.0415 -0.0127
 5255TIP3    H139960   0.798   6.737  14.075 -0.3180  1.0430  1.1147
 5255TIP3    H239961   0.945   6.704  14.059 -0.3785  0.4932  1.6966
 5256TIP3   OH239962   4.340   5.852  14.024  0.0951 -0.1252  0.1185
 5256TIP3    H139963   4.252   5.867  13.988  0.4310 -0.2087 -0.7565
 5256TIP3    H239964   4.353   5.758  14.016  0.7589  0.0409 -0.9614
 5257TIP3   OH239965   3.746   3.486  13.527 -0.2597  0.0409  0.5557
 5257TIP3    H139966   3.816   3.552  13.530 -0.7577  0.7688 -1.9309
 5257TIP3    H239967   3.736   3.459  13.618  2.7212  0.4499  1.1029
 5258TIP3   OH239968   5.675   5.081  15.043 -0.0088 -0.3324  0.3908
 5258TIP3    H139969   5.770   5.086  15.033 -0.1899 -1.2796 -3.2003
 5258TIP3    H239970   5.643   5.168  15.016 -0.2022 -0.2407  0.9050
 5259TIP3   OH239971   7.378   3.382  14.430  0.2647 -0.3628  0.1338
 5259TIP3    H139972   7.341   3.402  14.516  0.4502  1.2817 -0.1340
 5259TIP3    H239973   7.319   3.424  14.367 -0.3737 -2.2877 -0.6459
 5260TIP3   OH239974   5.700   8.373  13.894  0.2297  0.1297 -0.3328
 5260TIP3    H139975   5.717   8.445  13.833 -0.4982 -1.0254 -1.9772
 5260TIP3    H239976   5.734   8.404  13.978  2.9355  1.0964 -1.6634
 5261TIP3   OH239977   4.808   4.909  14.972 -0.1800  0.1375  0.3124
 5261TIP3    H139978   4.714   4.908  14.988 -0.0616  1.9101  1.3908
 5261TIP3    H239979   4.846   4.938  15.055  1.4749 -2.1390  0.4285
 5262TIP3   OH239980   4.855   4.515  14.596  0.0906  0.5901 -0.0625
 5262TIP3    H139981   4.835   4.602  14.561  0.3350  1.8546  2.6801
 5262TIP3    H239982   4.941   4.524  14.635  0.4466 -1.1411 -0.3734
 5263TIP3   OH239983   6.605   5.452  15.197 -0.6391  0.2149 -0.0993
 5263TIP3    H139984   6.562   5.401  15.129 -1.5012  0.8313 -0.0327
 5263TIP3    H239985   6.696   5.420  15.198 -1.3152 -1.8363  0.4536
 5264TIP3   OH239986   0.034   7.436  13.527 -0.2107  0.8100  0.2647
 5264TIP3    H139987   0.113   7.481  13.499  0.9170  0.7566  3.0834
 5264TIP3    H239988  -0.030   7.454  13.458  2.5901 -0.3576 -2.9009
 5265TIP3   OH239989   5.677   8.224  14.835 -0.0077 -0.2178 -0.3397
 5265TIP3    H139990   5.634   8.309  14.846  0.1324 -0.0584 -1.0153
 5265TIP3    H239991   5.686   8.191  14.925 -3.5137 -1.2655 -0.2152
 5266TIP3   OH239992   4.306   1.823  14.663 -0.4531  0.0950 -0.0921
 5266TIP3    H139993   4.313   1.773  14.582 -1.1314  1.4523 -1.0325
 5266TIP3    H239994   4.392   1.864  14.673  0.0470 -1.0685  0.5874
 5267TIP3   OH239995   8.120   7.574  12.976  0.3225 -0.0168  0.6893
 5267TIP3    H139996   8.210   7.605  12.972 -0.3222  2.1728 -3.6795
 5267TIP3    H239997   8.070   7.648  13.010 -0.1030 -0.1460  0.3574
 5268TIP3   OH239998   5.047   3.936  13.559 -0.5412 -0.3523  0.7384
 5268TIP3    H139999   5.023   3.955  13.650  0.9271 -1.8341  1.4952
 5268TIP3    H240000   5.129   3.984  13.547 -0.7625 -0.1161  0.1688
 5269TIP3   OH240001   6.298   0.444  12.639 -0.7234 -0.6375  0.1769
 5269TIP3    H140002   6.305   0.401  12.554 -0.7452 -0.4991  0.1031
 5269TIP3    H240003   6.275   0.535  12.617  2.2219  0.2153  0.1618
 5270TIP3   OH240004   0.873   1.955  14.661 -0.1524  0.0815  0.4534
 5270TIP3    H140005   0.882   1.869  14.621 -3.2236  0.6173 -1.7725
 5270TIP3    H240006   0.963   1.984  14.677  1.0985 -2.1379 -1.8406
 5271TIP3   OH240007   2.263   3.782  13.851 -0.5027  0.3250  0.5268
 5271TIP3    H140008   2.337   3.779  13.912  0.9974 -2.6344 -1.1956
 5271TIP3    H240009   2.194   3.733  13.895  0.4069 -1.3765  0.1600
 5272TIP3   OH240010   6.897   0.659  13.888  0.3581 -0.2821  0.0725
 5272TIP3    H140011   6.975   0.711  13.868  0.2616 -0.4360 -0.7356
 5272TIP3    H240012   6.930   0.569  13.894  0.2566 -0.3329 -0.1546
 5273TIP3   OH240013   6.686   3.092  13.168 -0.1476  0.1753  0.0598
 5273TIP3    H140014   6.646   3.007  13.187 -0.7358  0.4853  0.2318
 5273TIP3    H240015   6.680   3.101  13.073 -0.0535  0.0106  0.0378
 5274TIP3   OH240016   4.669   3.562  15.073  0.7664 -0.5394  0.5222
 5274TIP3    H140017   4.681   3.501  15.000 -1.7146  0.9912 -1.3263
 5274TIP3    H240018   4.716   3.641  15.046  0.1365 -0.0904  0.7227
 5275TIP3   OH240019   5.549   0.872  13.242 -0.1851 -0.3717  0.7501
 5275TIP3    H140020   5.533   0.962  13.271 -2.0706 -0.6732  0.8027
 5275TIP3    H240021   5.599   0.881  13.160 -0.1052  0.7034  0.9055
 5276TIP3   OH240022   1.401   5.090  13.425 -0.0872  0.6614  0.0698
 5276TIP3    H140023   1.386   5.138  13.344  0.3962 -0.9186 -1.0009
 5276TIP3    H240024   1.321   5.103  13.475 -0.4890  1.4781 -0.7430
 5277TIP3   OH240025   0.268   4.202  13.357 -0.2442 -0.2790  0.0654
 5277TIP3    H140026   0.253   4.292  13.329  2.3372  0.7167  1.5182
 5277TIP3    H240027   0.264   4.150  13.277  1.6479  1.6647 -1.4144
 5278TIP3   OH240028   3.764   4.756  14.089 -0.1718  0.4280  0.2964
 5278TIP3    H140029   3.680   4.709  14.093 -2.0591  3.4154 -0.5817
 5278TIP3    H240030   3.758   4.822  14.158  1.7948  0.2732  0.6582
 5279TIP3   OH240031   5.888   7.573  13.962  0.2398  0.0548 -0.5218
 5279TIP3    H140032   5.910   7.633  14.033 -0.5517 -2.6873  2.2253
 5279TIP3    H240033   5.973   7.539  13.932  0.5973  1.5018 -1.2409
 5280TIP3   OH240034   1.353   0.173  13.798  0.2093 -0.0570  0.7351
 5280TIP3    H140035   1.435   0.130  13.819  0.9315  0.9223  0.0426
 5280TIP3    H240036   1.371   0.222  13.717 -1.0756  0.1061  0.5176
 5281TIP3   OH240037   0.297   7.020  15.173 -0.5465  0.4190  0.5482
 5281TIP3    H140038   0.204   7.002  15.183 -0.4777 -2.2777 -2.2737
 5281TIP3    H240039   0.341   6.956  15.230 -0.4003  0.2898  0.2915
 5282TIP3   OH240040   7.822   0.369  14.487  0.2787  0.3553 -0.0826
 5282TIP3    H140041   7.860   0.419  14.415 -2.2174  3.3611  0.4687
 5282TIP3    H240042   7.762   0.308  14.445 -1.4719  2.3579 -0.7168
 5283TIP3   OH240043   2.101   4.312  14.878  0.1329  0.0064 -0.1854
 5283TIP3    H140044   2.141   4.255  14.944  0.0107 -0.2395 -0.3238
 5283TIP3    H240045   2.013   4.328  14.911 -0.0766 -0.4727 -0.5053
 5284TIP3   OH240046   0.222   3.686  13.606 -0.2009  0.1292  0.5911
 5284TIP3    H140047   0.229   3.779  13.584  0.4677 -0.3389 -1.3622
 5284TIP3    H240048   0.183   3.685  13.694 -0.1598  2.2376  0.6825
 5285TIP3   OH240049   3.377   1.701  14.761 -0.4076 -0.1933  0.0549
 5285TIP3    H140050   3.416   1.721  14.846 -0.6787  0.9255 -0.0757
 5285TIP3    H240051   3.292   1.745  14.762 -0.6090 -0.5474 -0.6299
 5286TIP3   OH240052   8.427   6.340  12.977  0.0975  0.4089  0.3458
 5286TIP3    H140053   8.342   6.303  12.953  0.4804  0.5229 -1.3196
 5286TIP3    H240054   8.485   6.264  12.985  0.2970  0.4580 -0.5527
 5287TIP3   OH240055   2.316   4.192  13.165  0.0026 -0.3541  0.0660
 5287TIP3    H140056   2.234   4.231  13.194  1.0379  0.4993  2.0186
 5287TIP3    H240057   2.352   4.255  13.102  0.6964  0.9274  1.6839
 5288TIP3   OH240058   1.225   6.126  14.636 -0.1298 -0.0617 -0.1222
 5288TIP3    H140059   1.206   6.129  14.730 -1.6309  1.0082 -0.4153
 5288TIP3    H240060   1.312   6.164  14.627  1.1872 -2.5289  1.0400
 5289TIP3   OH240061   1.181   1.151  14.747  0.5725  0.0986 -0.1508
 5289TIP3    H140062   1.219   1.083  14.803 -0.7038  0.4604  1.2117
 5289TIP3    H240063   1.104   1.110  14.708  1.6808 -0.2856 -2.0471
 5290TIP3   OH240064   3.800   4.153  15.017  0.0812 -0.1616 -0.0262
 5290TIP3    H140065   3.875   4.096  15.000  0.7082  0.3202  1.0064
 5290TIP3    H240066   3.741   4.138  14.943  0.3381 -1.9291  0.0835
 5291TIP3   OH240067   2.992   6.940  14.564 -0.6985 -0.3687 -0.0850
 5291TIP3    H140068   2.969   6.952  14.473  0.2826 -0.9133 -0.4254
 5291TIP3    H240069   2.992   7.028  14.601  4.0926  0.7231 -1.9504
 5292TIP3   OH240070   5.529   7.779  14.910 -0.3409  0.0069  0.0564
 5292TIP3    H140071   5.571   7.827  14.838 -2.1315  1.1496 -0.3104
 5292TIP3    H240072   5.520   7.689  14.877 -1.0858  0.5041 -1.1586
 5293TIP3   OH240073   7.935   5.938  13.670 -0.4938 -0.1151 -0.6638
 5293TIP3    H140074   7.980   5.929  13.587 -0.3183 -0.7839 -0.4992
 5293TIP3    H240075   8.003   5.923  13.736 -1.1283 -2.1756 -0.4091
 5294TIP3   OH240076   4.229   2.143  14.178 -0.1660  0.1090 -0.3143
 5294TIP3    H140077   4.285   2.207  14.221  1.5891 -0.5371 -1.5491
 5294TIP3    H240078   4.202   2.186  14.097 -2.7246  0.9686  0.8659
 5295TIP3   OH240079   7.871   7.935  13.546 -0.0853 -0.1965  0.2829
 5295TIP3    H140080   7.909   7.868  13.490 -0.1420 -1.2000  1.3996
 5295TIP3    H240081   7.777   7.920  13.542 -0.0846 -0.3299  0.6939
 5296TIP3   OH240082   0.040   0.952  13.150  0.0942  0.0130  0.5354
 5296TIP3    H140083  -0.053   0.967  13.136 -0.0044 -0.6397  0.4675
 5296TIP3    H240084   0.056   0.864  13.116  0.8657  0.3548 -0.0291
 5297TIP3   OH240085   7.022   5.179  14.777 -0.0886  0.3034  0.4174
 5297TIP3    H140086   7.042   5.273  14.778  2.2943 -0.1639  0.6490
 5297TIP3    H240087   7.037   5.153  14.686  1.5177 -0.2760  0.8281
 5298TIP3   OH240088   5.753   7.329  13.802 -0.6083 -0.5320  0.5012
 5298TIP3    H140089   5.792   7.307  13.886 -0.0993 -0.6111  0.2517
 5298TIP3    H240090   5.730   7.422  13.810  1.1266 -0.0221  0.1193
 5299TIP3   OH240091   0.925   6.957  13.275 -0.0615 -0.2444 -0.0159
 5299TIP3    H140092   1.008   6.939  13.232 -0.3387  0.8650 -1.0526
 5299TIP3    H240093   0.859   6.945  13.207 -0.3604  3.5235 -0.5894
 5300TIP3   OH240094   8.264   2.541  14.029 -0.3203 -0.4982 -1.0674
 5300TIP3    H140095   8.310   2.614  14.069 -0.5614 -1.2733  0.7205
 5300TIP3    H240096   8.303   2.463  14.069 -2.6847 -1.2143  0.0417
 5301TIP3   OH240097   7.156   1.258  15.183  0.2014  0.1982  0.1855
 5301TIP3    H140098   7.211   1.329  15.149  0.0454 -0.5555 -1.7210
 5301TIP3    H240099   7.202   1.178  15.159  1.7255 -0.5124  4.5233
 5302TIP3   OH240100   2.156   7.274  14.077  0.1600  0.4317  0.9106
 5302TIP3    H140101   2.148   7.293  14.170 -1.0600  0.3474  0.8314
 5302TIP3    H240102   2.071   7.239  14.051  0.4336  0.5784 -0.2722
 5303TIP3   OH240103   7.123   6.316  13.886  0.1190  0.2655 -0.0694
 5303TIP3    H140104   7.067   6.292  13.959  0.8298 -3.2690 -0.4987
 5303TIP3    H240105   7.206   6.340  13.927 -0.4083  1.3967  0.3752
 5304TIP3   OH240106   0.055   5.929  14.193 -0.0261 -0.4660  0.3729
 5304TIP3    H140107   0.024   5.926  14.103  0.0102 -0.6521  0.3669
 5304TIP3    H240108   0.149   5.945  14.186 -0.1534  0.2990  0.3966
 5305TIP3   OH240109   6.959   0.314  15.355  0.1090 -0.1001  0.1249
 5305TIP3    H140110   6.908   0.386  15.392 -1.1281  0.1861 -1.9681
 5305TIP3    H240111   7.049   0.334  15.380 -0.2542  1.9493  0.0091
 5306TIP3   OH240112   3.204   0.137  14.116  0.2473 -0.1510 -0.0055
 5306TIP3    H140113   3.121   0.099  14.088  0.0960 -0.9685  1.4404
 5306TIP3    H240114   3.187   0.167  14.205  1.1627  0.8003 -0.1400
 5307TIP3   OH240115   2.128   1.053  14.252  0.1743  0.4555 -0.6531
 5307TIP3    H140116   2.086   1.106  14.320  0.6947  1.2351 -0.9211
 5307TIP3    H240117   2.080   0.971  14.252 -0.9685  1.1079 -0.5512
 5308TIP3   OH240118   6.247   0.875  12.371 -0.2479 -0.1181 -1.0581
 5308TIP3    H140119   6.154   0.882  12.350 -0.9567  0.9768  1.9691
 5308TIP3    H240120   6.282   0.963  12.354 -0.0547 -0.1755 -0.9601
 5309TIP3   OH240121   0.956   6.182  14.131 -0.5315  0.2597 -0.0103
 5309TIP3    H140122   0.985   6.272  14.112  0.3442  0.1086  0.5490
 5309TIP3    H240123   0.999   6.160  14.213 -0.8739 -0.6220 -0.0567
 5310TIP3   OH240124   1.865   2.868  14.636  0.7273  0.1598  0.1814
 5310TIP3    H140125   1.906   2.875  14.550 -2.1913  1.8804 -1.2262
 5310TIP3    H240126   1.882   2.951  14.679  1.3882 -0.3431  0.9242
 5311TIP3   OH240127   5.857   5.641  13.791 -0.0341  0.0313 -0.5369
 5311TIP3    H140128   5.889   5.684  13.870 -0.7955 -1.7280  0.8127
 5311TIP3    H240129   5.791   5.579  13.823 -1.8505  0.6652 -2.7684
 5312TIP3   OH240130   0.373   1.343  14.180 -0.3093 -0.6005 -0.2710
 5312TIP3    H140131   0.339   1.427  14.211  1.8932 -0.2349  1.4271
 5312TIP3    H240132   0.419   1.364  14.099  0.8834  0.0612  0.5275
 5313TIP3   OH240133   8.274   5.609  13.782  0.0348  0.1863  0.0940
 5313TIP3    H140134   8.256   5.646  13.868  0.7862 -0.7944  0.6923
 5313TIP3    H240135   8.362   5.572  13.789 -0.0664 -0.3050 -0.9508
 5314TIP3   OH240136   4.402   2.855  13.943 -0.4276  0.1236 -0.4790
 5314TIP3    H140137   4.471   2.896  13.891  0.2513  2.0206  1.7435
 5314TIP3    H240138   4.440   2.772  13.973  0.1977  0.3283 -0.6984
 5315TIP3   OH240139   3.433   0.443  13.603 -0.4942 -0.3735 -0.3180
 5315TIP3    H140140   3.480   0.407  13.678 -0.1241 -1.5589 -1.0911
 5315TIP3    H240141   3.389   0.368  13.564  0.5633 -0.0912 -2.1782
 5316TIP3   OH240142   6.660   2.324  14.453  0.1891  0.1306  0.9513
 5316TIP3    H140143   6.647   2.408  14.409  1.3434 -0.0125  0.3046
 5316TIP3    H240144   6.588   2.269  14.422  0.5111  0.2949 -0.1073
 5317TIP3   OH240145   7.629   3.257  14.582  0.7029 -0.5259  0.0216
 5317TIP3    H140146   7.574   3.219  14.650  0.0601  1.5680  0.7182
 5317TIP3    H240147   7.569   3.305  14.526  1.1746 -2.3639 -2.2455
 5318TIP3   OH240148   5.100   5.289  14.755  0.4816  0.2227  0.0123
 5318TIP3    H140149   5.032   5.340  14.711 -1.1211 -0.5803  1.4244
 5318TIP3    H240150   5.090   5.309  14.848  1.6561 -0.5292  0.3320
 5319TIP3   OH240151   6.854   2.767  13.146  0.1727  0.0930  0.1437
 5319TIP3    H140152   6.784   2.704  13.129 -0.9482  1.0016  1.1963
 5319TIP3    H240153   6.894   2.783  13.060 -1.7034  0.4683 -0.6982
 5320TIP3   OH240154   2.966   4.600  13.045  0.4585  0.2873 -0.2366
 5320TIP3    H140155   2.934   4.515  13.075  0.7438 -0.8801 -2.9257
 5320TIP3    H240156   2.895   4.661  13.065 -0.0317 -0.6939  1.1582
 5321TIP3   OH240157   4.644   0.703  13.695  0.4013 -0.2210 -0.1479
 5321TIP3    H140158   4.683   0.766  13.634  1.4996  0.1303  0.8874
 5321TIP3    H240159   4.615   0.630  13.639 -0.9751  1.1881 -1.3803
 5322TIP3   OH240160   6.282   0.864  13.885  0.2860  0.1351  0.3806
 5322TIP3    H140161   6.200   0.911  13.870 -0.9243 -0.8230  3.3919
 5322TIP3    H240162   6.258   0.771  13.881  1.5458 -0.1968 -0.1109
 5323TIP3   OH240163   3.945   8.377  13.666  0.3420 -0.1450 -0.2001
 5323TIP3    H140164   3.910   8.299  13.624 -0.0657  0.2377 -0.5830
 5323TIP3    H240165   4.013   8.344  13.725  1.3057 -0.6648 -1.5343
 5324TIP3   OH240166   0.911   7.623  14.400  0.0857  0.9955  0.5621
 5324TIP3    H140167   0.989   7.615  14.455  0.4457 -2.8701 -0.1735
 5324TIP3    H240168   0.847   7.566  14.442 -1.0763  1.2783 -0.7685
 5325TIP3   OH240169   6.160   3.578  13.074 -0.2665 -0.1613  0.8414
 5325TIP3    H140170   6.251   3.595  13.049  0.1278 -0.8206  1.7766
 5325TIP3    H240171   6.110   3.645  13.026  0.7293  0.4185  0.5598
 5326TIP3   OH240172   3.377   4.693  13.246  0.5739  0.1864  0.3506
 5326TIP3    H140173   3.310   4.624  13.247  0.7275  0.0047  2.4017
 5326TIP3    H240174   3.458   4.647  13.266  1.1797  0.5798 -1.0695
 5327TIP3   OH240175   4.719   4.771  14.469 -0.3765 -0.1800  0.1158
 5327TIP3    H140176   4.768   4.835  14.416 -0.0461 -0.6089 -0.1094
 5327TIP3    H240177   4.668   4.721  14.405  0.6624 -1.2584  0.0842
 5328TIP3   OH240178   4.137   3.999  15.163  0.2023 -0.4161  0.2099
 5328TIP3    H140179   4.130   3.997  15.258 -1.9380 -0.8086  0.1126
 5328TIP3    H240180   4.093   3.919  15.134  0.4269 -0.0876 -1.1178
 5329TIP3   OH240181   0.739   2.811  14.172 -0.0179  0.0152  0.2456
 5329TIP3    H140182   0.646   2.834  14.177 -0.1558 -0.7696  2.4828
 5329TIP3    H240183   0.782   2.890  14.141 -1.3401  0.7014  0.0950
 5330TIP3   OH240184   1.715   0.380  13.387 -0.1745 -0.5724 -0.5233
 5330TIP3    H140185   1.792   0.358  13.439  1.7388  1.8954 -2.1131
 5330TIP3    H240186   1.740   0.361  13.297 -0.9352  1.3856 -1.2104
 5331TIP3   OH240187   8.314   3.432  15.210  0.0744 -0.4002 -0.0715
 5331TIP3    H140188   8.256   3.507  15.196  0.6612  0.5527  2.1708
 5331TIP3    H240189   8.261   3.356  15.187 -0.3889  0.6559 -2.8597
 5332TIP3   OH240190   2.878   5.307  14.125 -0.2454 -0.2524 -0.8873
 5332TIP3    H140191   2.864   5.349  14.210  0.1383 -0.0802 -0.9075
 5332TIP3    H240192   2.812   5.346  14.068 -0.9665 -0.8695 -0.5054
 5333TIP3   OH240193   0.853   2.156  12.715 -0.0285 -0.1868 -0.0510
 5333TIP3    H140194   0.902   2.155  12.796 -0.1702 -0.1106  0.0365
 5333TIP3    H240195   0.915   2.190  12.650  0.4215 -1.2631 -0.2011
 5334TIP3   OH240196   1.174   1.343  13.012 -0.1084  0.4865 -0.3117
 5334TIP3    H140197   1.227   1.343  13.092 -0.0773 -1.6016 -0.2625
 5334TIP3    H240198   1.089   1.309  13.040 -0.5899  1.1970 -0.8955
 5335TIP3   OH240199   5.939   1.659  13.579  0.0805 -0.2047  0.0051
 5335TIP3    H140200   5.973   1.717  13.512 -0.9043 -0.5363 -0.8075
 5335TIP3    H240201   6.014   1.642  13.636  0.4451  1.6515  0.1432
 5336TIP3   OH240202   7.327   6.231  15.028 -0.0980  0.2434 -0.4898
 5336TIP3    H140203   7.282   6.214  14.945  0.4075  0.1136 -0.7427
 5336TIP3    H240204   7.296   6.317  15.054  0.6843  0.8475 -1.4642
 5337TIP3   OH240205   3.721   0.932  13.253 -0.4524 -0.1218  0.3026
 5337TIP3    H140206   3.632   0.960  13.274 -0.1327  0.5822  0.7594
 5337TIP3    H240207   3.766   0.929  13.338  0.7925  2.5056 -0.1653
 5338TIP3   OH240208   4.231   5.511  13.925  0.2375 -0.1094 -0.1400
 5338TIP3    H140209   4.152   5.472  13.961  0.6482  0.3041  1.2737
 5338TIP3    H240210   4.292   5.515  13.999  1.8600 -1.1130 -1.3524
 5339TIP3   OH240211   3.978   6.947  14.586 -0.2276 -0.5180  0.1270
 5339TIP3    H140212   4.054   6.936  14.643  0.9120 -1.4995 -1.5256
 5339TIP3    H240213   3.906   6.907  14.636  0.6066 -0.8526  1.1161
 5340TIP3   OH240214   2.336   1.953  14.106 -0.1933  0.6618 -0.0154
 5340TIP3    H140215   2.375   1.912  14.183 -0.6216 -1.1571 -0.7146
 5340TIP3    H240216   2.245   1.922  14.105  0.0626 -0.1545 -1.7620
 5341TIP3   OH240217   1.909   4.657  14.084 -0.6031 -0.1403 -0.3509
 5341TIP3    H140218   1.989   4.612  14.056 -1.3256 -1.2861 -0.6283
 5341TIP3    H240219   1.935   4.748  14.093  1.5335 -0.8793  2.5083
 5342TIP3   OH240220   2.062   1.934  14.133 -0.1635  0.0483  0.1135
 5342TIP3    H140221   2.046   2.025  14.157 -2.3517 -0.4923  0.9476
 5342TIP3    H240222   1.993   1.913  14.071 -0.8137 -1.5511  1.3252
 5343TIP3   OH240223   5.619   3.715  12.987 -0.2004 -0.3917 -0.2673
 5343TIP3    H140224   5.547   3.750  12.934 -0.3402 -2.1920 -1.3638
 5343TIP3    H240225   5.697   3.762  12.956 -0.8754  1.9389  1.2807
 5344TIP3   OH240226   6.617   7.595  13.194 -0.3257 -0.0415 -0.5583
 5344TIP3    H140227   6.669   7.536  13.249 -1.9497 -0.9533  0.0635
 5344TIP3    H240228   6.609   7.675  13.245 -1.3863 -0.7013  0.3467
 5345TIP3   OH240229   7.760   1.493  12.702  0.3867 -0.0973 -0.1126
 5345TIP3    H140230   7.809   1.513  12.782 -0.3192 -0.3026  0.3814
 5345TIP3    H240231   7.675   1.535  12.716  0.2187 -0.2459 -0.7061
 5346TIP3   OH240232   1.653   6.410  13.795 -0.0194 -0.4107 -0.3934
 5346TIP3    H140233   1.731   6.457  13.827  0.4908 -0.6152 -1.3094
 5346TIP3    H240234   1.654   6.424  13.701 -2.7866  2.1574 -0.1974
 5347TIP3   OH240235   0.945   6.835  13.528 -0.0756 -0.2685  0.1107
 5347TIP3    H140236   0.947   6.860  13.435  0.5775 -0.9826 -0.0779
 5347TIP3    H240237   1.004   6.897  13.570 -0.2506 -0.0421  0.0274
 5348TIP3   OH240238   4.661   2.226  14.886 -0.3924 -0.1404 -0.6901
 5348TIP3    H140239   4.693   2.138  14.908 -0.3285 -0.2976 -1.3824
 5348TIP3    H240240   4.737   2.283  14.899 -0.6343 -0.0679  0.4729
 5349TIP3   OH240241   6.630   8.349  13.035  0.5441  0.8822  0.3069
 5349TIP3    H140242   6.687   8.399  12.977  0.3747  0.7869  0.0567
 5349TIP3    H240243   6.688   8.283  13.074  0.8519  1.5116  0.9368
 5350TIP3   OH240244   2.419   7.254  14.454  0.4552  0.5081 -0.6488
 5350TIP3    H140245   2.481   7.258  14.527  0.5645  0.6855 -0.7497
 5350TIP3    H240246   2.337   7.227  14.494  1.2864 -2.9488 -0.9355
 5351TIP3   OH240247   8.014   1.698  14.115 -0.4426  0.0912  0.5069
 5351TIP3    H140248   7.935   1.704  14.168 -0.6130  2.1474  0.1086
 5351TIP3    H240249   8.028   1.788  14.083  1.3841 -0.4677 -0.3856
 5352TIP3   OH240250   2.825   7.665  14.494  0.2191 -0.3447 -0.4350
 5352TIP3    H140251   2.916   7.640  14.512  1.0533  1.8497 -1.2862
 5352TIP3    H240252   2.782   7.657  14.579  1.3333 -0.9146  0.1033
 5353TIP3   OH240253   2.254   0.903  12.602  0.1928 -0.2316  0.1421
 5353TIP3    H140254   2.313   0.844  12.555 -1.0866 -0.9376 -0.5990
 5353TIP3    H240255   2.300   0.920  12.685  1.9759  0.1811 -0.8600
 5354TIP3   OH240256   1.781   4.178  13.121 -0.6756 -0.1391 -0.2991
 5354TIP3    H140257   1.776   4.186  13.026 -0.2026 -1.2786 -0.4415
 5354TIP3    H240258   1.692   4.191  13.151 -0.5106  2.3996 -0.6753
 5355TIP3   OH240259   0.287   3.957  13.841 -0.3776 -0.2510 -0.1805
 5355TIP3    H140260   0.257   4.047  13.837  2.5736  0.9077  0.5708
 5355TIP3    H240261   0.315   3.936  13.752  2.5859  1.1348  0.2830
 5356TIP3   OH240262   3.890   8.122  13.193  0.2380 -0.4511  0.4342
 5356TIP3    H140263   3.930   8.199  13.233 -1.5853  0.6903  0.1504
 5356TIP3    H240264   3.942   8.106  13.115  0.8644  0.2633  0.6966
 5357TIP3   OH240265   1.830   1.109  13.630 -0.7502 -0.2385  0.5379
 5357TIP3    H140266   1.914   1.064  13.634 -0.0052  0.9406 -1.1766
 5357TIP3    H240267   1.789   1.089  13.715  0.6591 -1.9155  0.8837
 5358TIP3   OH240268   5.345   4.245  13.812 -0.5653  0.1611 -0.2498
 5358TIP3    H140269   5.315   4.335  13.807 -0.4586  0.1684 -0.8845
 5358TIP3    H240270   5.430   4.249  13.853  0.0857  0.5177 -1.5709
 5359TIP3   OH240271   0.586   2.074  12.750 -0.0086 -0.1464  0.7201
 5359TIP3    H140272   0.577   1.986  12.714 -1.7029  0.4366 -0.3991
 5359TIP3    H240273   0.679   2.096  12.738  0.1058 -1.1830 -0.4023
 5360TIP3   OH240274   5.825   2.193  13.416  0.3099 -0.4915 -0.4897
 5360TIP3    H140275   5.908   2.231  13.387  0.5336 -1.3226 -0.9646
 5360TIP3    H240276   5.837   2.099  13.404 -0.1020 -0.7451  1.0168
 5361TIP3   OH240277   1.157   3.985  13.093  0.3981 -0.6418  0.6592
 5361TIP3    H140278   1.071   3.996  13.051  0.2012  0.1219  1.2178
 5361TIP3    H240279   1.220   3.988  13.022  0.0088 -0.3317  0.3234
 5362TIP3   OH240280   6.924   7.207  15.016 -0.4491 -0.0952  0.4256
 5362TIP3    H140281   6.882   7.175  15.096 -1.1585  0.7953  0.4254
 5362TIP3    H240282   6.874   7.167  14.945 -1.0153  0.5737  0.4299
 5363TIP3   OH240283   1.469   3.785  12.745  0.3444 -0.2092 -0.2395
 5363TIP3    H140284   1.553   3.785  12.791  0.1813  2.4107  0.2380
 5363TIP3    H240285   1.422   3.710  12.781  1.7879 -0.6298  0.8634
 5364TIP3   OH240286   0.658   3.891  13.026  0.3452  0.1568  0.6297
 5364TIP3    H140287   0.753   3.904  13.031  0.4427 -0.6592  1.1395
 5364TIP3    H240288   0.646   3.832  12.952  0.1602  0.8996  0.0640
 5365TIP3   OH240289   4.409   7.426  13.507 -0.1364 -0.0991  0.1747
 5365TIP3    H140290   4.485   7.371  13.526  0.3121  1.0025  1.6809
 5365TIP3    H240291   4.415   7.498  13.569 -1.3726  1.0313 -0.9619
 5366TIP3   OH240292   0.971   5.686  13.190 -0.5342  0.3834  0.4939
 5366TIP3    H140293   1.033   5.725  13.253 -0.2761  1.1976 -0.2400
 5366TIP3    H240294   0.973   5.593  13.210  1.4493  0.2829  0.0786
 5367TIP3   OH240295   8.144   5.355  13.388 -0.2530  0.2886 -0.4203
 5367TIP3    H140296   8.170   5.434  13.340  1.4922  0.0598  0.0940
 5367TIP3    H240297   8.103   5.299  13.322  1.7808  0.1236 -1.6363
 5368TIP3   OH240298   3.377   6.000  15.512  0.3690 -0.3154 -0.3793
 5368TIP3    H140299   3.422   6.023  15.593 -0.4307  1.9039 -0.4943
 5368TIP3    H240300   3.433   5.934  15.471  0.8352 -1.4010  1.8847
 5369TIP3   OH240301   8.108   2.267  15.137  0.2661 -0.0483  0.0580
 5369TIP3    H140302   8.080   2.306  15.220 -0.2687 -1.5478  0.6146
 5369TIP3    H240303   8.042   2.200  15.118 -0.6737  1.4791 -2.5680
 5370TIP3   OH240304   7.401   0.786  15.199 -0.2766  0.2789  0.5403
 5370TIP3    H140305   7.380   0.717  15.136  0.2620  0.6591 -0.0762
 5370TIP3    H240306   7.329   0.785  15.261 -1.1485  0.3061 -0.4401
 5371TIP3   OH240307   7.394   2.492  13.124  0.1431  0.5386  0.7064
 5371TIP3    H140308   7.388   2.448  13.039  0.6680  0.0770  0.9025
 5371TIP3    H240309   7.306   2.485  13.161  0.3752 -1.0228  1.0534
 5372TIP3   OH240310   4.371   6.256  14.749 -0.3704  0.1435 -0.7072
 5372TIP3    H140311   4.449   6.288  14.795 -0.7576 -0.0362  0.0990
 5372TIP3    H240312   4.406   6.204  14.676  0.3834 -2.5458  1.3904
 5373TIP3   OH240313   7.028   0.534  13.182 -0.4380 -0.3922  0.3181
 5373TIP3    H140314   6.991   0.600  13.124  0.8507  1.4120  1.4270
 5373TIP3    H240315   7.109   0.573  13.214 -1.1114 -1.1905  3.3908
 5374TIP3   OH240316   1.910   7.891  15.212  0.0800 -0.0673 -0.1610
 5374TIP3    H140317   1.942   7.980  15.196  0.1629 -0.3376 -1.6444
 5374TIP3    H240318   1.845   7.876  15.144  1.6426 -1.8969 -1.3719
 5375TIP3   OH240319   2.565   5.058  14.040 -0.2816  0.2321  0.4014
 5375TIP3    H140320   2.533   5.096  13.957 -0.5416  0.6794  0.6993
 5375TIP3    H240321   2.500   5.085  14.105  0.3772  0.6207  0.9102
 5376TIP3   OH240322   0.082   1.837  15.142  0.7848 -0.0145  0.4666
 5376TIP3    H140323   0.144   1.766  15.159  0.0052 -0.2614  2.6479
 5376TIP3    H240324   0.134   1.917  15.153  0.7407 -0.2161  2.4654
 5377TIP3   OH240325   3.135   3.656  13.140  0.2734  0.1368 -0.4625
 5377TIP3    H140326   3.190   3.658  13.062  0.6332 -2.1978 -0.3293
 5377TIP3    H240327   3.109   3.565  13.149 -1.5525  0.7258  0.9409
 5378TIP3   OH240328   3.595   3.878  13.342 -0.0218 -0.2290 -0.2529
 5378TIP3    H140329   3.639   3.940  13.398  1.6477 -0.2324 -1.5022
 5378TIP3    H240330   3.582   3.800  13.397  0.1011  0.3384  0.5828
 5379TIP3   OH240331   1.053   2.300  13.927 -0.2421 -0.6431 -0.4281
 5379TIP3    H140332   0.981   2.289  13.866 -1.2759  0.6169  0.5028
 5379TIP3    H240333   1.026   2.372  13.983  1.5266 -0.4771  0.2840
 5380TIP3   OH240334   8.065   5.561  13.184 -0.3347  0.1028  0.8059
 5380TIP3    H140335   7.979   5.599  13.200 -0.3250  0.0713  0.9335
 5380TIP3    H240336   8.126   5.634  13.191 -0.3439  0.1120  0.7870
 5381TIP3   OH240337   0.819   6.795  14.610  0.3096  0.3252 -0.3807
 5381TIP3    H140338   0.807   6.831  14.698 -0.4485 -0.2614 -0.2332
 5381TIP3    H240339   0.784   6.706  14.616  0.9223  0.0288 -1.0915
 5382TIP3   OH240340   2.401   4.629  12.687  0.9030  0.5106  0.3442
 5382TIP3    H140341   2.479   4.654  12.737  2.2388  1.3311 -1.9874
 5382TIP3    H240342   2.384   4.538  12.714  1.7455  0.7892  1.9644
 5383TIP3   OH240343   4.855   0.986  14.265 -0.5513 -0.1293 -0.1376
 5383TIP3    H140344   4.793   0.914  14.279  0.1160 -0.4009  1.7215
 5383TIP3    H240345   4.875   0.983  14.171 -0.0926 -2.7394 -0.0273
 5384TIP3   OH240346   3.673   4.363  14.556 -0.5483 -0.0994  0.1044
 5384TIP3    H140347   3.613   4.427  14.596 -0.2254 -0.0713  0.5454
 5384TIP3    H240348   3.732   4.416  14.503  0.8024  0.1727  1.8017
 5385TIP3   OH240349   5.173   6.211  14.235  0.2187  0.1990  0.5134
 5385TIP3    H140350   5.201   6.192  14.324 -0.1453  0.4080  0.6750
 5385TIP3    H240351   5.187   6.305  14.225 -0.6242  0.3510  0.6764
 5386TIP3   OH240352   5.249   1.481  13.702 -0.4890 -0.7849  0.2996
 5386TIP3    H140353   5.269   1.573  13.719  0.8254 -0.8151 -0.9031
 5386TIP3    H240354   5.167   1.483  13.652 -0.0678 -0.2040 -0.3852
 5387TIP3   OH240355   6.642   5.215  13.484  0.3359 -0.1937 -0.0573
 5387TIP3    H140356   6.639   5.304  13.449  0.5322 -0.5995 -1.1423
 5387TIP3    H240357   6.587   5.164  13.424 -1.5615 -0.4226  1.7557
 5388TIP3   OH240358   0.202   4.965  13.627  0.4547 -0.9040 -0.5330
 5388TIP3    H140359   0.178   4.905  13.557 -1.4976 -1.1542  0.2653
 5388TIP3    H240360   0.270   5.020  13.589  0.0743 -1.5869 -2.3302
 5389TIP3   OH240361   5.375   1.930  14.263 -0.3621 -0.2185 -0.3359
 5389TIP3    H140362   5.426   1.922  14.343 -0.3568  0.2723 -0.2884
 5389TIP3    H240363   5.406   1.859  14.207 -1.9419 -2.0074  0.9440
 5390TIP3   OH240364   1.517   1.586  14.646  0.3280  0.0721  0.9263
 5390TIP3    H140365   1.450   1.532  14.687  0.6578  0.2944  1.7906
 5390TIP3    H240366   1.489   1.595  14.555  0.5852 -2.0455  0.6042
 5391TIP3   OH240367   2.799   2.951   8.840 -0.0370  0.0629  0.2662
 5391TIP3    H140368   2.811   3.013   8.912  1.4043  0.8985 -0.6302
 5391TIP3    H240369   2.879   2.899   8.839 -1.0730 -1.5913  0.7594
 5392TIP3   OH240370   1.756   7.979   9.321 -0.2991  0.0997  0.6826
 5392TIP3    H140371   1.831   7.932   9.359 -0.5588  0.1538  1.2697
 5392TIP3    H240372   1.746   8.057   9.375 -1.1244 -0.1828  0.9608
 5393TIP3   OH240373   6.584   2.376   7.902  0.5358 -0.1979  0.3001
 5393TIP3    H140374   6.565   2.289   7.938  1.9568  0.3873  2.7108
 5393TIP3    H240375   6.500   2.423   7.907  0.6382 -0.1559  3.0410
 5394TIP3   OH240376   6.979   5.473   9.320 -0.2122  0.8417  0.8855
 5394TIP3    H140377   6.890   5.505   9.307 -0.4453  0.4929  1.5705
 5394TIP3    H240378   7.035   5.550   9.309 -0.5815  1.0271  0.2921
 5395TIP3   OH240379   4.027   1.057   9.243  0.3740  0.1527  0.6838
 5395TIP3    H140380   3.955   0.995   9.253  0.2214  0.4769  1.7183
 5395TIP3    H240381   4.057   1.072   9.333  2.1205 -0.4378  0.2398
 5396TIP3   OH240382   1.538   2.482   8.654  0.4176 -0.0729 -0.1999
 5396TIP3    H140383   1.627   2.477   8.621  0.4214 -1.9539  0.0182
 5396TIP3    H240384   1.531   2.411   8.718 -1.1302  0.2701  0.0641
 5397TIP3   OH240385   4.791   4.463  10.299  0.4163  0.3006 -0.2173
 5397TIP3    H140386   4.814   4.519  10.225  2.1845  0.1756  0.2067
 5397TIP3    H240387   4.857   4.482  10.365  1.3642 -2.6279 -0.2326
 5398TIP3   OH240388   8.120   0.981  10.048 -0.0666  0.1759  0.9838
 5398TIP3    H140389   8.061   0.927  10.101  0.1127  0.8712  1.9333
 5398TIP3    H240390   8.065   1.015   9.978 -0.7794  0.7052  1.7786
 5399TIP3   OH240391   8.027   7.967   9.670  0.0882 -0.5047 -0.3387
 5399TIP3    H140392   7.984   7.892   9.629  0.0832  0.5810 -2.5148
 5399TIP3    H240393   8.021   8.036   9.604 -1.5101  1.9993  2.1858
 5400TIP3   OH240394   5.713   0.601  10.025  0.5713 -0.4269 -0.2389
 5400TIP3    H140395   5.724   0.508  10.006  1.6355 -1.1848  3.3394
 5400TIP3    H240396   5.798   0.629  10.060 -0.6814  0.9750  1.9024
 5401TIP3   OH240397   6.293   7.690   9.236 -0.0801  0.1533  0.2628
 5401TIP3    H140398   6.280   7.783   9.254 -1.6439 -0.0458  0.3118
 5401TIP3    H240399   6.250   7.676   9.152  0.5249 -0.4486  0.0451
 5402TIP3   OH240400   0.879   5.479   8.751  0.2864  0.3538 -0.0565
 5402TIP3    H140401   0.953   5.420   8.736  1.5640  1.3029  2.1085
 5402TIP3    H240402   0.904   5.560   8.707 -0.1549  0.2362 -0.5421
 5403TIP3   OH240403   7.385   8.423   8.371 -0.9570 -0.0686 -0.3729
 5403TIP3    H140404   7.298   8.389   8.352 -0.7162 -0.5901 -0.5293
 5403TIP3    H240405   7.433   8.416   8.289  0.1935 -2.6565  0.4086
 5404TIP3   OH240406   4.814   8.367   9.098 -0.5467  0.2596 -0.1869
 5404TIP3    H140407   4.787   8.458   9.084  0.9840  0.4194 -2.6553
 5404TIP3    H240408   4.852   8.367   9.186 -1.8100  1.6599  0.4058
 5405TIP3   OH240409   6.532   2.871   9.336  0.0764  0.4922 -0.4011
 5405TIP3    H140410   6.563   2.910   9.417  0.1480  0.2336 -0.3023
 5405TIP3    H240411   6.498   2.944   9.285  1.0120  0.8203 -0.5876
 5406TIP3   OH240412   5.481   0.038   8.955 -0.0562 -0.2570  0.1579
 5406TIP3    H140413   5.570   0.039   8.992  0.3562  0.0818 -0.7893
 5406TIP3    H240414   5.450   0.128   8.966  0.6046  0.2111 -1.4962
 5407TIP3   OH240415   7.863   6.856   9.574 -0.2695  0.0585 -0.5165
 5407TIP3    H140416   7.895   6.945   9.587 -0.3735 -0.1098  1.1914
 5407TIP3    H240417   7.938   6.809   9.537  0.3465  0.4704  0.1762
 5408TIP3   OH240418   0.213   2.228   8.896  0.4754  0.0913  0.1677
 5408TIP3    H140419   0.235   2.275   8.816 -0.9440  0.6821  0.0906
 5408TIP3    H240420   0.153   2.286   8.942  0.4071 -0.7158  1.1247
 5409TIP3   OH240421   1.459   4.065   7.986  0.2883  0.3819 -0.3848
 5409TIP3    H140422   1.365   4.072   7.970  0.1910  0.2076  0.0983
 5409TIP3    H240423   1.473   4.110   8.069  0.6828  0.6929 -0.6190
 5410TIP3   OH240424   7.381   0.217   8.136 -0.0768  0.3767  0.5158
 5410TIP3    H140425   7.330   0.147   8.097  0.5773 -0.0064  0.3267
 5410TIP3    H240426   7.467   0.178   8.153  0.9029  1.5993 -1.2788
 5411TIP3   OH240427   1.601   3.686   8.161 -0.0078 -0.0625 -0.4050
 5411TIP3    H140428   1.531   3.624   8.142  0.3667 -1.2238  1.7738
 5411TIP3    H240429   1.667   3.670   8.094 -0.8301 -0.5318 -1.1166
 5412TIP3   OH240430   1.835   2.864   8.026  0.8069  0.5457  0.1259
 5412TIP3    H140431   1.799   2.824   8.106  2.6223 -2.3383 -0.3465
 5412TIP3    H240432   1.808   2.805   7.956  2.4056  0.9265 -0.8578
 5413TIP3   OH240433   5.239   4.510   9.332 -0.4679 -0.3999 -0.5133
 5413TIP3    H140434   5.238   4.596   9.374  1.6172  0.1596 -1.5141
 5413TIP3    H240435   5.320   4.469   9.361 -0.9161 -1.6168 -0.8978
 5414TIP3   OH240436   4.713   2.674   8.030  0.4794  0.3342  0.0275
 5414TIP3    H140437   4.738   2.694   7.940  1.0970  0.0804  0.1402
 5414TIP3    H240438   4.643   2.610   8.022  1.4709 -0.7364 -0.2494
 5415TIP3   OH240439   5.025   8.273   7.781 -0.3833 -0.0525  0.2177
 5415TIP3    H140440   5.025   8.180   7.756  0.3010  0.2009 -0.7707
 5415TIP3    H240441   5.112   8.304   7.758 -0.7869  0.9675  0.0259
 5416TIP3   OH240442   2.935   5.202   8.483 -0.3059 -0.7698 -0.6257
 5416TIP3    H140443   2.875   5.162   8.420 -1.8275  0.1338  0.1887
 5416TIP3    H240444   2.904   5.292   8.490  0.9791 -0.3704  0.0543
 5417TIP3   OH240445   6.447   6.643   9.708  0.2473  0.2603  0.4870
 5417TIP3    H140446   6.364   6.683   9.734 -1.0348 -1.7878 -0.2334
 5417TIP3    H240447   6.430   6.549   9.709  1.9841 -0.1573 -1.5048
 5418TIP3   OH240448   4.712   4.752   7.950 -0.5455  0.2070 -0.3333
 5418TIP3    H140449   4.745   4.829   7.905  0.6328 -0.2520 -0.2914
 5418TIP3    H240450   4.683   4.785   8.035 -3.6594  1.2431 -1.6448
 5419TIP3   OH240451   8.194   1.307   8.851 -0.0122  0.3061  0.0589
 5419TIP3    H140452   8.285   1.333   8.838  0.1608 -0.3603 -0.1170
 5419TIP3    H240453   8.198   1.212   8.866 -0.5676  0.4525  1.1962
 5420TIP3   OH240454   2.878   1.643   8.918  0.1674  0.1636  1.0137
 5420TIP3    H140455   2.794   1.689   8.921 -0.2149 -0.4757  0.6303
 5420TIP3    H240456   2.904   1.634   9.009  0.5106  1.5745  1.0739
 5421TIP3   OH240457   1.429   4.699   8.160 -0.2682  0.3826 -0.2778
 5421TIP3    H140458   1.482   4.629   8.197  1.1777  1.5442 -0.0491
 5421TIP3    H240459   1.361   4.654   8.110  1.4005 -1.1897 -1.2514
 5422TIP3   OH240460   6.565   6.906   9.776 -0.0468  0.0868  0.1976
 5422TIP3    H140461   6.528   6.817   9.778 -0.9192  0.4515  0.9798
 5422TIP3    H240462   6.541   6.941   9.691  0.9882 -0.6992 -0.4393
 5423TIP3   OH240463   6.692   4.159   9.106  0.3395  0.4551  0.4139
 5423TIP3    H140464   6.625   4.133   9.042 -0.2883  0.9916  0.8444
 5423TIP3    H240465   6.742   4.227   9.062  1.2111 -0.5937 -0.2605
 5424TIP3   OH240466   4.396   5.465   9.394  0.1305  0.1112 -0.4899
 5424TIP3    H140467   4.307   5.494   9.375 -0.6634 -1.2654  0.9158
 5424TIP3    H240468   4.409   5.389   9.337  1.4235  1.8319 -2.6150
 5425TIP3   OH240469   7.006   0.796   8.424 -0.0533 -0.1983 -0.5487
 5425TIP3    H140470   7.061   0.806   8.502  0.8985  1.2313 -1.3477
 5425TIP3    H240471   7.064   0.755   8.360 -0.2768  0.2316 -1.0349
 5426TIP3   OH240472   2.634   0.264   8.206 -0.0763  0.3195 -0.9418
 5426TIP3    H140473   2.633   0.360   8.214  2.3201  0.4248 -1.3691
 5426TIP3    H240474   2.547   0.238   8.237 -0.1852  2.4985  0.9003
 5427TIP3   OH240475   2.282   2.869   7.674 -0.2874 -0.1496  0.9787
 5427TIP3    H140476   2.278   2.933   7.745  0.6842  1.0239  0.0291
 5427TIP3    H240477   2.330   2.914   7.604 -0.1034 -1.7168  0.0488
 5428TIP3   OH240478   5.290   0.837   8.518  0.4865 -0.2851 -0.6188
 5428TIP3    H140479   5.282   0.813   8.610  1.5965  0.9154 -0.1712
 5428TIP3    H240480   5.318   0.757   8.474  1.6036 -0.4703  0.3834
 5429TIP3   OH240481   4.454   0.572   8.555  0.4941 -0.1471 -0.3870
 5429TIP3    H140482   4.510   0.646   8.579  0.0641  0.2426 -0.5642
 5429TIP3    H240483   4.366   0.601   8.576  0.3489 -0.7418 -0.1491
 5430TIP3   OH240484   0.635   0.925   8.754 -0.0819 -0.4942 -0.5926
 5430TIP3    H140485   0.662   1.006   8.798  1.0329 -1.7743  1.2017
 5430TIP3    H240486   0.616   0.952   8.664  1.1111  1.6039 -0.2814
 5431TIP3   OH240487   4.356   7.399   8.797 -0.5705  0.1274 -0.1714
 5431TIP3    H140488   4.281   7.366   8.847 -0.9618  1.6744  0.3252
 5431TIP3    H240489   4.406   7.320   8.774 -3.2347 -1.1776 -2.0839
 5432TIP3   OH240490   0.761   6.707   7.817  0.2104 -0.1346 -0.6063
 5432TIP3    H140491   0.769   6.614   7.834  0.9706 -0.1254 -0.8810
 5432TIP3    H240492   0.683   6.715   7.761  1.7896 -0.9748 -3.1172
 5433TIP3   OH240493   2.867   5.134   9.625 -0.2902  0.4887 -0.0956
 5433TIP3    H140494   2.904   5.219   9.599 -1.7325  1.7208  1.5891
 5433TIP3    H240495   2.940   5.073   9.622  0.6136  1.5942 -2.1821
 5434TIP3   OH240496   2.601   5.157   9.586  0.5006 -0.6860  0.7700
 5434TIP3    H140497   2.562   5.147   9.673  0.5191 -2.6868  0.5853
 5434TIP3    H240498   2.691   5.127   9.597  0.9542  0.4668  0.3666
 5435TIP3   OH240499   1.377   5.159   9.620 -0.2313 -0.1941 -0.4756
 5435TIP3    H140500   1.434   5.129   9.691 -0.6633  2.7717  1.2833
 5435TIP3    H240501   1.300   5.103   9.625  0.0812 -0.5306  0.9074
 5436TIP3   OH240502   0.975   4.908   7.955  0.1454 -0.4631  0.3559
 5436TIP3    H140503   1.016   4.825   7.980  1.1108 -0.7206 -1.8922
 5436TIP3    H240504   1.037   4.948   7.894 -0.8818  1.3372  0.4349
 5437TIP3   OH240505   0.593   0.045   8.630 -0.6089  0.2679 -0.1831
 5437TIP3    H140506   0.554   0.119   8.675 -1.5819 -0.9950  1.1331
 5437TIP3    H240507   0.524   0.013   8.571 -0.2013  0.3951 -0.7379
 5438TIP3   OH240508   0.717   2.347   7.597 -0.0633  0.2145  0.9317
 5438TIP3    H140509   0.772   2.426   7.596  1.1930 -0.6072  1.6195
 5438TIP3    H240510   0.629   2.378   7.576  0.8448  1.4270 -1.4264
 5439TIP3   OH240511   2.155   5.895   9.738  0.2104  0.5051 -0.0261
 5439TIP3    H140512   2.133   5.912   9.647  0.6005  1.2576  0.0187
 5439TIP3    H240513   2.074   5.862   9.776 -0.4012  1.6843 -0.2623
 5440TIP3   OH240514   6.578   4.507   7.726 -0.1405  0.0523 -0.0209
 5440TIP3    H140515   6.598   4.600   7.722  1.6051 -0.1501  2.1586
 5440TIP3    H240516   6.483   4.502   7.720 -0.1770  1.8144 -1.7644
 5441TIP3   OH240517   3.205   5.855   9.197 -0.3306  0.1393  0.4186
 5441TIP3    H140518   3.136   5.914   9.166 -0.9237 -0.8394 -0.1519
 5441TIP3    H240519   3.200   5.860   9.292 -0.0848  1.3289  0.3925
 5442TIP3   OH240520   0.870   2.771   7.859 -0.0356 -0.0376 -0.4157
 5442TIP3    H140521   0.899   2.795   7.948 -1.6330  2.7234 -0.5197
 5442TIP3    H240522   0.882   2.676   7.855  3.2992  0.1303  1.5159
 5443TIP3   OH240523   1.695   5.956   9.602  0.3999 -0.2980  0.2179
 5443TIP3    H140524   1.728   5.919   9.683  1.6044  0.8966  0.3088
 5443TIP3    H240525   1.607   5.989   9.624  0.6290 -0.1790  0.9713
 5444TIP3   OH240526   6.562   6.085  10.113 -0.8424 -0.2728 -0.1882
 5444TIP3    H140527   6.585   6.092  10.205 -2.0310 -0.3202  0.1247
 5444TIP3    H240528   6.620   6.017  10.079 -0.4002 -0.2626  0.5188
 5445TIP3   OH240529   7.024   8.001   8.834  0.2622 -0.2107  0.4203
 5445TIP3    H140530   6.937   7.961   8.828  1.0097 -1.7515 -1.2482
 5445TIP3    H240531   7.010   8.083   8.881 -2.0240 -0.5857  0.4999
 5446TIP3   OH240532   1.291   0.857   9.162  0.2641  0.6539  0.4482
 5446TIP3    H140533   1.217   0.818   9.116  0.7376  0.9507 -0.6032
 5446TIP3    H240534   1.268   0.950   9.170  0.2210  0.6185  0.7367
 5447TIP3   OH240535   5.226   7.169   9.248  0.0371 -0.4015  0.1405
 5447TIP3    H140536   5.182   7.168   9.163  0.4258  0.1480 -0.0752
 5447TIP3    H240537   5.301   7.227   9.236  1.3452 -1.9975  0.2598
 5448TIP3   OH240538   3.450   0.794   9.021  0.4678  0.9460  0.1605
 5448TIP3    H140539   3.445   0.764   8.931  0.4226 -0.4966  0.6154
 5448TIP3    H240540   3.519   0.861   9.021  2.1196 -0.6933 -0.5114
 5449TIP3   OH240541   7.732   7.912  10.344  0.0947 -0.2999 -0.4720
 5449TIP3    H140542   7.801   7.854  10.313  1.4450 -0.9110  3.1375
 5449TIP3    H240543   7.756   7.998  10.309  0.9023 -1.0382 -1.8099
 5450TIP3   OH240544   4.883   4.262   8.461  0.0669  0.0641  0.2131
 5450TIP3    H140545   4.872   4.271   8.555  1.2948 -0.5129  0.4416
 5450TIP3    H240546   4.945   4.189   8.451  0.4719  0.5470 -1.0059
 5451TIP3   OH240547   6.187   6.764   9.774 -0.1423  0.4782 -0.4844
 5451TIP3    H140548   6.151   6.817   9.846  0.7508  0.0968  0.2536
 5451TIP3    H240549   6.116   6.762   9.709 -2.1227 -1.5869  1.5707
 5452TIP3   OH240550   7.800   4.871   8.943 -0.3256 -0.2698  0.2901
 5452TIP3    H140551   7.732   4.927   8.981  0.0848  0.7500 -0.4150
 5452TIP3    H240552   7.760   4.834   8.865 -0.4335 -0.5719  0.4870
 5453TIP3   OH240553   4.839   4.055   8.704  0.0062  0.1125  0.3472
 5453TIP3    H140554   4.756   4.059   8.751  0.5770 -0.3888  1.4321
 5453TIP3    H240555   4.835   3.973   8.655  0.0364 -0.1255  0.7410
 5454TIP3   OH240556   7.731   2.288   7.672  0.2292 -0.3084  0.0991
 5454TIP3    H140557   7.687   2.205   7.690 -0.9017  0.1256 -0.5645
 5454TIP3    H240558   7.757   2.282   7.580  0.8856 -0.2487  0.2743
 5455TIP3   OH240559   5.376   7.003   8.201  0.0769 -0.5998  0.1873
 5455TIP3    H140560   5.323   7.015   8.280 -2.2310 -0.5185 -1.2685
 5455TIP3    H240561   5.387   6.908   8.194 -2.6081 -0.9132 -1.0614
 5456TIP3   OH240562   0.544   3.203   8.368  0.0514 -0.4784  0.1658
 5456TIP3    H140563   0.541   3.251   8.285  0.2873 -1.8052 -0.6407
 5456TIP3    H240564   0.572   3.268   8.432  0.8394  0.3429 -0.9688
 5457TIP3   OH240565   7.931   0.158   8.846  0.3938  0.4626  0.2530
 5457TIP3    H140566   7.856   0.121   8.893  0.1772  0.7430  0.1336
 5457TIP3    H240567   8.003   0.154   8.908 -0.0848  1.6279  0.9218
 5458TIP3   OH240568   2.195   4.014   9.818 -0.2023  0.2250  0.2485
 5458TIP3    H140569   2.254   3.952   9.862 -0.4915  0.8771  1.5999
 5458TIP3    H240570   2.186   3.980   9.730  0.5797 -1.0143  0.6260
 5459TIP3   OH240571   2.219   1.874   8.076 -0.4531 -0.1617  0.5222
 5459TIP3    H140572   2.273   1.798   8.099  0.6584  1.0653  2.1846
 5459TIP3    H240573   2.281   1.937   8.038 -0.7813  0.9706  1.7644
 5460TIP3   OH240574   6.377   7.572  10.325 -0.2546  0.1031  0.0464
 5460TIP3    H140575   6.418   7.503  10.273  0.2525 -0.3442  1.0125
 5460TIP3    H240576   6.341   7.633  10.260 -2.3733 -1.9887 -0.8650
 5461TIP3   OH240577   7.303   6.684   8.137 -0.0005 -0.1765 -0.1426
 5461TIP3    H140578   7.244   6.755   8.114 -0.3989 -0.8646 -1.3440
 5461TIP3    H240579   7.263   6.644   8.215 -0.9227 -0.3902 -0.7112
 5462TIP3   OH240580   8.252   2.025   8.416  0.0734  0.1116 -0.3059
 5462TIP3    H140581   8.184   2.025   8.483  0.8328 -2.2475  0.5723
 5462TIP3    H240582   8.206   2.045   8.334 -1.4261 -0.1051  0.4570
 5463TIP3   OH240583   6.955   5.919   8.050 -0.2748  0.1994  0.5669
 5463TIP3    H140584   7.012   5.863   8.103 -0.8847  0.4521  1.5078
 5463TIP3    H240585   6.866   5.892   8.073 -0.5545  0.7980  0.2068
 5464TIP3   OH240586   5.060   1.914   8.748  0.5055 -0.4179  0.3375
 5464TIP3    H140587   5.058   2.008   8.768 -0.4868 -0.2664 -0.4245
 5464TIP3    H240588   5.122   1.906   8.676  0.3905 -0.3092  0.2259
 5465TIP3   OH240589   3.358   5.299   8.479 -0.0719 -0.4721  0.1185
 5465TIP3    H140590   3.299   5.352   8.533 -1.3350 -1.4812 -0.2075
 5465TIP3    H240591   3.394   5.360   8.415 -0.7158  0.1903  0.3699
 5466TIP3   OH240592   8.128   1.101   7.760 -0.0606 -0.0714 -0.5182
 5466TIP3    H140593   8.181   1.151   7.698  0.2741  0.2149 -0.0082
 5466TIP3    H240594   8.068   1.165   7.798 -0.0118 -0.1707 -0.2745
 5467TIP3   OH240595   8.018   7.845   8.799  0.3647 -0.3457  0.2778
 5467TIP3    H140596   7.934   7.891   8.789 -0.3236 -1.5878  0.0860
 5467TIP3    H240597   8.009   7.799   8.882  1.8114  1.3654  1.4447
 5468TIP3   OH240598   6.831   1.667   9.110  0.7907  0.4016  0.1401
 5468TIP3    H140599   6.903   1.726   9.090 -0.5247  1.8647 -0.4663
 5468TIP3    H240600   6.840   1.595   9.048  2.6115 -0.2773  1.1136
 5469TIP3   OH240601   7.167   2.485   9.032 -0.0351  0.8033  0.5071
 5469TIP3    H140602   7.262   2.467   9.031  0.3013  2.3125  1.5684
 5469TIP3    H240603   7.160   2.576   9.004 -1.0975  0.9633  1.2663
 5470TIP3   OH240604   4.149   1.224   8.505  0.6415  0.0341  0.2072
 5470TIP3    H140605   4.103   1.308   8.505  1.5841  0.5727 -0.0203
 5470TIP3    H240606   4.102   1.171   8.440 -0.4469  0.0936  0.9263
 5471TIP3   OH240607   0.945   3.249   9.486 -0.4749 -0.6620 -0.0426
 5471TIP3    H140608   0.983   3.183   9.544  1.9062  0.0770 -0.6343
 5471TIP3    H240609   0.861   3.270   9.526  0.9955 -0.2536  3.1589
 5472TIP3   OH240610   6.837   0.562  10.022 -0.5748 -0.1041  0.1529
 5472TIP3    H140611   6.919   0.517  10.042  0.3068  1.9394  1.5640
 5472TIP3    H240612   6.848   0.595   9.933 -0.1929 -0.4925  0.0536
 5473TIP3   OH240613   1.807   6.753   8.844 -0.4949 -0.3575  0.1130
 5473TIP3    H140614   1.853   6.756   8.928  0.5951  1.8428 -0.5017
 5473TIP3    H240615   1.825   6.666   8.810 -0.9750 -1.3177  2.1285
 5474TIP3   OH240616   0.306   5.107   8.437  0.5045  0.4074 -0.0662
 5474TIP3    H140617   0.306   5.176   8.371 -2.6790  0.3026 -0.3311
 5474TIP3    H240618   0.291   5.154   8.520  0.0858  0.1745 -0.0111
 5475TIP3   OH240619   1.981   1.947   9.147 -0.0406  0.7746 -0.4709
 5475TIP3    H140620   1.937   1.977   9.226 -1.4752  1.0373 -1.3515
 5475TIP3    H240621   1.912   1.910   9.092  1.2067 -1.4308 -0.7234
 5476TIP3   OH240622   8.180   5.778   9.130 -0.5059  0.2593 -0.5686
 5476TIP3    H140623   8.113   5.715   9.156 -0.7669  0.1785 -1.3998
 5476TIP3    H240624   8.263   5.731   9.139 -0.6331  0.0665 -0.4083
 5477TIP3   OH240625   6.757   1.710   9.558  0.0828 -0.4216  0.6033
 5477TIP3    H140626   6.701   1.767   9.610 -1.1072  0.6215 -1.6861
 5477TIP3    H240627   6.745   1.623   9.596 -1.8750  0.0501  1.1723
 5478TIP3   OH240628   0.803   4.416   8.980  0.8191 -0.3507 -0.0052
 5478TIP3    H140629   0.765   4.388   9.063  1.2417 -0.4053  0.1770
 5478TIP3    H240630   0.746   4.485   8.949  0.7301 -0.2418  0.3983
 5479TIP3   OH240631   7.622   4.650   9.038 -0.4981  0.1862  0.1039
 5479TIP3    H140632   7.672   4.717   9.085  1.2103 -0.6790 -0.3812
 5479TIP3    H240633   7.681   4.621   8.968 -1.5722 -1.1275 -0.2974
 5480TIP3   OH240634   6.637   3.854   8.974 -0.0079  0.4250  0.4952
 5480TIP3    H140635   6.576   3.801   9.024 -0.5735  0.8933  0.3056
 5480TIP3    H240636   6.711   3.795   8.956 -1.6764 -1.1524 -1.8717
 5481TIP3   OH240637   1.448   3.103   7.731 -0.0310  0.4673 -0.3823
 5481TIP3    H140638   1.402   3.019   7.739  0.3397  0.2137 -0.8494
 5481TIP3    H240639   1.529   3.081   7.685 -0.7089  1.3565 -2.0693
 5482TIP3   OH240640   3.450   0.701   8.744 -0.2015 -0.5637  0.3805
 5482TIP3    H140641   3.369   0.695   8.692 -0.2915 -2.5175  0.7008
 5482TIP3    H240642   3.513   0.742   8.685 -0.3542 -2.5567 -1.2648
 5483TIP3   OH240643   1.151   5.736   8.893  0.0151 -0.3353  0.5563
 5483TIP3    H140644   1.224   5.713   8.951  1.3181  1.9574 -0.0697
 5483TIP3    H240645   1.143   5.661   8.834  3.4809  0.2507 -0.8826
 5484TIP3   OH240646   6.189   4.496   8.041  0.1606 -0.0714  0.1080
 5484TIP3    H140647   6.227   4.412   8.015  0.0182 -0.5849  1.5017
 5484TIP3    H240648   6.108   4.474   8.086 -0.8933  0.9342 -1.2037
 5485TIP3   OH240649   7.417   7.613   8.596 -0.0146  0.2150 -0.4055
 5485TIP3    H140650   7.331   7.652   8.582 -0.8534 -1.6642 -0.6854
 5485TIP3    H240651   7.477   7.671   8.549 -0.8203  2.5547  1.2263
 5486TIP3   OH240652   6.414   6.644   9.430 -0.3630 -0.2071  0.2287
 5486TIP3    H140653   6.434   6.681   9.516 -0.8998  0.4636  0.0715
 5486TIP3    H240654   6.327   6.677   9.409 -0.3160 -0.5271 -0.4872
 5487TIP3   OH240655   2.127   0.531   9.144  0.1938  0.5487  0.0784
 5487TIP3    H140656   2.204   0.495   9.100 -0.3328 -0.3489 -0.1364
 5487TIP3    H240657   2.123   0.483   9.227 -0.2467  0.4491 -0.0010
 5488TIP3   OH240658   2.420   4.445   9.407 -0.3926 -0.0978 -0.6895
 5488TIP3    H140659   2.451   4.441   9.317 -0.4852 -0.2182 -0.7154
 5488TIP3    H240660   2.346   4.385   9.410 -0.1322 -0.4117 -0.4277
 5489TIP3   OH240661   7.984   2.567   9.796  0.6828 -0.1286 -0.2676
 5489TIP3    H140662   7.919   2.602   9.735  0.9367 -1.1058 -1.1486
 5489TIP3    H240663   8.064   2.615   9.775  0.8552 -0.6994 -0.9782
 5490TIP3   OH240664   5.216   2.675   7.704  0.2746  0.8129  0.1886
 5490TIP3    H140665   5.269   2.726   7.766 -1.2302  2.4944  0.1596
 5490TIP3    H240666   5.161   2.740   7.660 -0.8238 -0.7083 -0.7834
 5491TIP3   OH240667   0.179   1.915   7.978  0.0005  0.3952  0.0319
 5491TIP3    H140668   0.088   1.932   8.001 -0.1345  0.6523 -0.6721
 5491TIP3    H240669   0.203   1.987   7.920  1.7949  2.5421  3.0901
 5492TIP3   OH240670   2.424   3.619   8.302 -0.1041  0.5034  0.2500
 5492TIP3    H140671   2.349   3.674   8.328 -0.8458  0.2982 -1.2872
 5492TIP3    H240672   2.445   3.649   8.213  0.5850 -0.5553  0.0407
 5493TIP3   OH240673   3.530   6.670   8.641  0.6966 -0.3937  0.8132
 5493TIP3    H140674   3.496   6.581   8.638 -1.3688  0.3692  0.1198
 5493TIP3    H240675   3.608   6.668   8.585  0.6265 -1.7377  0.7414
 5494TIP3   OH240676   1.274   4.925   8.393  0.0424 -0.0942  0.0656
 5494TIP3    H140677   1.304   4.878   8.315  1.1095  0.1776  0.3011
 5494TIP3    H240678   1.191   4.964   8.367  1.6887  2.3981 -1.8999
 5495TIP3   OH240679   4.792   1.117   9.512  0.1719  0.4546 -0.8585
 5495TIP3    H140680   4.705   1.153   9.496  0.1090  1.0451  0.6184
 5495TIP3    H240681   4.815   1.071   9.431 -1.4816  0.3334 -1.2849
 5496TIP3   OH240682   0.348   2.016   9.599  0.2112 -0.5226  0.0788
 5496TIP3    H140683   0.314   1.987   9.684  0.2372 -1.2445 -0.1561
 5496TIP3    H240684   0.290   2.088   9.574  0.5738  0.1094  0.9917
 5497TIP3   OH240685   1.607   7.143   9.653  0.4538  0.0580 -0.7937
 5497TIP3    H140686   1.565   7.183   9.577 -1.2912  0.7163  0.4489
 5497TIP3    H240687   1.638   7.218   9.704  2.2375 -0.3927 -1.1481
 5498TIP3   OH240688   1.819   1.182   9.180  0.0456  0.0954  0.2254
 5498TIP3    H140689   1.813   1.150   9.270  0.4460 -0.5553  0.0281
 5498TIP3    H240690   1.887   1.249   9.182  1.1231 -0.9702  0.1268
 5499TIP3   OH240691   2.540   0.221   8.893  0.2793  0.0688 -0.1986
 5499TIP3    H140692   2.550   0.289   8.826 -1.5759  0.4549 -0.1456
 5499TIP3    H240693   2.453   0.184   8.877  0.3788 -0.8258  1.1218
 5500TIP3   OH240694   2.341   3.643   7.991 -0.5421  0.4324  0.7149
 5500TIP3    H140695   2.300   3.730   7.991  0.4085  0.9640 -1.8588
 5500TIP3    H240696   2.434   3.660   7.976 -0.2635 -1.0351  0.6459
 5501TIP3   OH240697   3.123   1.152   8.919 -0.3451  0.0139  0.6285
 5501TIP3    H140698   3.142   1.082   8.982 -2.8591  0.8500  2.4913
 5501TIP3    H240699   3.063   1.111   8.856  0.9807 -0.3973 -0.4313
 5502TIP3   OH240700   0.141   8.337   8.278  0.3758 -0.1487 -0.5311
 5502TIP3    H140701   0.073   8.367   8.339  0.1840  3.1057 -2.1524
 5502TIP3    H240702   0.216   8.316   8.334 -1.0433 -1.2169  1.0743
 5503TIP3   OH240703   2.619   5.192   8.239 -0.1241 -0.0700  0.4247
 5503TIP3    H140704   2.543   5.251   8.245 -1.2504 -1.5538  1.9661
 5503TIP3    H240705   2.590   5.122   8.181  0.8927  0.4489 -0.7246
 5504TIP3   OH240706   7.193   5.187   8.894  0.4511 -0.1184  0.7487
 5504TIP3    H140707   7.140   5.267   8.897  0.4508 -0.1327  1.1179
 5504TIP3    H240708   7.250   5.199   8.818 -0.7288 -0.5145 -0.2561
 5505TIP3   OH240709   5.705   6.734   8.529 -0.0938 -0.0347 -0.5010
 5505TIP3    H140710   5.724   6.678   8.604  1.5868  0.2065 -0.7093
 5505TIP3    H240711   5.708   6.675   8.454 -0.7095 -0.0764 -0.5029
 5506TIP3   OH240712   4.884   5.983   9.866  0.4569  0.3802  0.2306
 5506TIP3    H140713   4.865   6.046   9.935 -0.6204  0.6974 -0.3257
 5506TIP3    H240714   4.906   6.036   9.790  1.1983  0.0421  0.1974
 5507TIP3   OH240715   7.591   0.403  10.579  0.0529  0.0199  0.4425
 5507TIP3    H140716   7.503   0.383  10.608  0.0988  0.6195  1.0185
 5507TIP3    H240717   7.646   0.338  10.623 -0.1012 -0.3746  0.0571
 5508TIP3   OH240718   5.567   5.985   7.804 -0.6767  0.0066 -0.0952
 5508TIP3    H140719   5.484   5.951   7.771 -0.7970  1.1494 -1.0263
 5508TIP3    H240720   5.633   5.932   7.759 -0.8657  0.8648 -1.4313
 5509TIP3   OH240721   5.872   6.820   9.677 -0.1550 -0.0561 -0.5034
 5509TIP3    H140722   5.796   6.774   9.641 -0.1764 -1.2985  1.0470
 5509TIP3    H240723   5.838   6.865   9.754  0.7527 -1.0811  0.5338
 5510TIP3   OH240724   6.800   0.839   9.055 -0.3627 -0.2635  0.2591
 5510TIP3    H140725   6.822   0.927   9.025  2.2968 -0.4929  1.2625
 5510TIP3    H240726   6.716   0.849   9.101 -0.0769  1.7512  0.4029
 5511TIP3   OH240727   5.237   4.434   8.090  0.1981  0.0481  0.1417
 5511TIP3    H140728   5.327   4.466   8.081 -0.4114  1.1068 -3.4116
 5511TIP3    H240729   5.210   4.465   8.177  2.6527  1.2255  0.5906
 5512TIP3   OH240730   4.009   2.727   8.101  0.9492  1.2804  0.4070
 5512TIP3    H140731   3.920   2.719   8.137  0.7693 -0.7762 -0.3917
 5512TIP3    H240732   4.066   2.693   8.170  0.7492 -1.0045 -0.4795
 5513TIP3   OH240733   5.449   5.942   9.920 -0.3517  0.3861 -0.1230
 5513TIP3    H140734   5.511   6.010   9.894  1.0343  0.6035  3.2745
 5513TIP3    H240735   5.503   5.864   9.936 -1.1871 -0.0048  0.9643
 5514TIP3   OH240736   2.754   1.676   8.620 -0.2324 -0.5886 -0.3604
 5514TIP3    H140737   2.736   1.742   8.553 -0.9337 -0.7432 -0.3295
 5514TIP3    H240738   2.765   1.727   8.701  0.6999 -0.3952 -0.5928
 5515TIP3   OH240739   4.088   5.241   7.730  0.0693  0.1509  0.1567
 5515TIP3    H140740   4.100   5.335   7.719  1.6143 -0.0846 -0.3004
 5515TIP3    H240741   4.176   5.204   7.726 -0.5686 -1.4019 -0.4611
 5516TIP3   OH240742   0.497   0.538   7.876 -0.3751 -0.1047  0.0359
 5516TIP3    H140743   0.465   0.623   7.845 -0.1074 -0.0716 -0.1475
 5516TIP3    H240744   0.568   0.516   7.817  0.6084  0.2850  1.0418
 5517TIP3   OH240745   6.748   8.335  13.382 -0.1905 -0.0882  0.4580
 5517TIP3    H140746   6.749   8.304  13.292  0.3346 -1.0853  0.7906
 5517TIP3    H240747   6.693   8.271  13.429 -1.7794  1.2861  0.5747
 5518TIP3   OH240748   3.622   0.109   8.286  0.1605 -0.2774 -0.3669
 5518TIP3    H140749   3.533   0.108   8.250 -0.9068 -0.2053  2.1125
 5518TIP3    H240750   3.628   0.031   8.340  1.3943  0.0429  0.0096
 5519TIP3   OH240751   5.446   0.292   9.053 -0.7004 -0.0723 -0.2365
 5519TIP3    H140752   5.435   0.384   9.029  0.1690  0.0547 -0.1518
 5519TIP3    H240753   5.473   0.294   9.145 -1.8568 -0.4720  0.1298
 5520TIP3   OH240754   6.657   3.728   8.060 -0.6761  0.2964  0.1101
 5520TIP3    H140755   6.628   3.649   8.013 -0.7409  0.3533  0.0526
 5520TIP3    H240756   6.722   3.697   8.122  0.6699  0.4350 -1.1636
 5521TIP3   OH240757   1.472   1.423   9.456 -0.8202 -0.1291 -0.2163
 5521TIP3    H140758   1.379   1.439   9.475 -1.6375 -3.6547 -0.5897
 5521TIP3    H240759   1.510   1.401   9.541 -1.4554 -3.0192 -0.5803
 5522TIP3   OH240760   2.404   5.561   7.905 -0.2107  0.4564 -0.4374
 5522TIP3    H140761   2.469   5.572   7.974 -1.9885  0.2599  1.3508
 5522TIP3    H240762   2.333   5.510   7.945 -1.9354  1.4967 -1.9660
 5523TIP3   OH240763   2.558   4.359   9.805  0.1351 -0.3655 -0.5261
 5523TIP3    H140764   2.522   4.415   9.736  0.0039  0.2754  0.0419
 5523TIP3    H240765   2.617   4.417   9.853 -1.7200 -0.0273  1.4806
 5524TIP3   OH240766   2.804   0.814   8.973 -0.0705 -0.2244 -0.3536
 5524TIP3    H140767   2.838   0.877   8.910 -0.8529  0.6572  0.0665
 5524TIP3    H240768   2.867   0.743   8.973  2.0480  1.5113  0.7263
 5525TIP3   OH240769   6.567   2.909   8.513 -0.2578 -0.0433  0.5322
 5525TIP3    H140770   6.595   2.828   8.470 -0.5002  0.2363 -0.1807
 5525TIP3    H240771   6.508   2.882   8.582 -1.6122 -0.3972 -0.7308
 5526TIP3   OH240772   5.096   6.638   9.505  0.0270  0.7086 -0.0999
 5526TIP3    H140773   5.030   6.635   9.575  0.0594  0.5522 -0.0769
 5526TIP3    H240774   5.047   6.661   9.426 -0.7245 -3.0642 -0.8895
 5527TIP3   OH240775   2.009   7.462   8.222 -0.0744 -0.5074  1.1208
 5527TIP3    H140776   1.958   7.544   8.225 -0.1111 -0.5295  1.0985
 5527TIP3    H240777   2.043   7.458   8.133  5.8462  3.0644  2.6501
 5528TIP3   OH240778   1.548   8.066   8.666  0.2081  0.1080 -0.2515
 5528TIP3    H140779   1.640   8.089   8.654  0.4858 -1.0063 -0.3861
 5528TIP3    H240780   1.501   8.122   8.603  0.7553  0.8822  0.0155
 5529TIP3   OH240781   7.257   4.295  15.032 -0.2225  0.1786  0.1400
 5529TIP3    H140782   7.281   4.388  15.031  0.0004  0.1633 -2.1892
 5529TIP3    H240783   7.181   4.291  15.090  0.3371  1.6481  1.0371
 5530TIP3   OH240784   0.381   2.735   8.855  0.3540 -0.5040 -0.1075
 5530TIP3    H140785   0.308   2.763   8.911  0.1954  1.6095 -1.2940
 5530TIP3    H240786   0.370   2.640   8.849 -1.6432 -0.3850  0.6574
 5531TIP3   OH240787   6.792   7.337  10.133 -0.1532  0.8043  0.6809
 5531TIP3    H140788   6.886   7.329  10.147  0.3157  0.4429 -2.0422
 5531TIP3    H240789   6.778   7.430  10.115  0.0358  0.5629 -0.8016
 5532TIP3   OH240790   7.440   0.353   8.960  0.1546  0.5440 -0.0663
 5532TIP3    H140791   7.529   0.385   8.948  1.6610 -2.6347  1.5179
 5532TIP3    H240792   7.436   0.272   8.909 -1.6494  0.3202  0.3556
 5533TIP3   OH240793   5.714   6.998   8.648  0.2827 -0.0014  0.3073
 5533TIP3    H140794   5.714   7.068   8.583 -0.4912 -0.0369  0.2530
 5533TIP3    H240795   5.716   6.917   8.597 -1.6280 -0.0550  0.2526
 5534TIP3   OH240796   6.540   8.265   8.306 -0.1768 -0.3250 -0.1359
 5534TIP3    H140797   6.548   8.358   8.326 -0.1275 -0.5610  1.0383
 5534TIP3    H240798   6.627   8.238   8.279 -0.3855  0.1406 -1.3453
 5535TIP3   OH240799   7.455   6.804   9.239  0.1935 -0.8948 -0.3031
 5535TIP3    H140800   7.456   6.900   9.245 -2.3749 -0.8193 -0.0222
 5535TIP3    H240801   7.470   6.785   9.147  0.4920 -0.2113 -0.4019
 5536TIP3   OH240802   8.443   1.639  10.285 -0.1566  0.6247  1.0787
 5536TIP3    H140803   8.432   1.544  10.294 -0.1035  0.2161 -1.9338
 5536TIP3    H240804   8.354   1.673  10.282 -0.4412 -0.0361 -2.4481
 5537TIP3   OH240805   7.345   6.020   8.633  0.5269 -0.9547 -0.1814
 5537TIP3    H140806   7.358   6.087   8.700  0.7709 -1.7752  0.6112
 5537TIP3    H240807   7.258   6.037   8.597  1.1394  0.6489 -0.9905
 5538TIP3   OH240808   1.370   6.555   8.062  0.0868 -0.5358 -0.0898
 5538TIP3    H140809   1.306   6.614   8.023  0.0872  0.1207  0.8606
 5538TIP3    H240810   1.318   6.485   8.102 -0.2026  0.8757  2.1559
 5539TIP3   OH240811   4.992   4.490   9.523  0.1887 -0.5120 -0.0466
 5539TIP3    H140812   4.969   4.522   9.610  0.6185 -0.4278  0.0346
 5539TIP3    H240813   4.997   4.569   9.469  2.1093 -0.3195  0.3437
 5540TIP3   OH240814   7.726   7.263   9.244  0.2139  0.9454 -0.2062
 5540TIP3    H140815   7.787   7.190   9.259 -0.3368  0.6034  0.4305
 5540TIP3    H240816   7.699   7.253   9.152 -0.0327  0.2035 -0.0599
 5541TIP3   OH240817   1.842   7.229   8.006  0.1202 -0.0389  0.2368
 5541TIP3    H140818   1.849   7.298   7.940 -2.1600 -0.2366 -0.3097
 5541TIP3    H240819   1.754   7.240   8.043 -0.7836 -3.2388 -0.6172
 5542TIP3   OH240820   6.200   6.910   9.163  0.2379 -0.3450  0.5914
 5542TIP3    H140821   6.288   6.882   9.186 -0.3978 -2.0280  1.0998
 5542TIP3    H240822   6.171   6.963   9.238  0.6988 -0.0068  0.5354
 5543TIP3   OH240823   8.313   2.974   8.931  0.2667  0.0045  0.4284
 5543TIP3    H140824   8.233   2.947   8.976 -0.4169 -0.0317 -0.7478
 5543TIP3    H240825   8.315   3.069   8.940  0.1032  0.0029  0.4755
 5544TIP3   OH240826   3.563   4.582   8.219  0.6371  0.1376 -0.1678
 5544TIP3    H140827   3.534   4.653   8.161 -0.6270  1.8228  2.3731
 5544TIP3    H240828   3.658   4.593   8.224  0.4896  1.5168 -0.0003
 5545TIP3   OH240829   2.451   4.563   9.648 -0.0805  0.2178  0.1441
 5545TIP3    H140830   2.537   4.595   9.621  0.6107 -1.5123  0.1531
 5545TIP3    H240831   2.413   4.528   9.568 -0.5173  0.3971  0.2728
 5546TIP3   OH240832   5.881   4.500   8.872  0.0329  0.0606 -0.0471
 5546TIP3    H140833   5.921   4.547   8.945  0.5647 -0.0218 -0.2819
 5546TIP3    H240834   5.952   4.486   8.810 -0.4140  0.1378 -0.5900
 5547TIP3   OH240835   2.025   6.851   8.525 -0.3862 -0.4455  0.7003
 5547TIP3    H140836   1.949   6.795   8.513  0.2964 -1.0939 -0.8653
 5547TIP3    H240837   2.082   6.803   8.585 -0.4185 -0.7883  0.4572
 5548TIP3   OH240838   6.693   0.524   8.700 -0.1175  0.7131 -0.0544
 5548TIP3    H140839   6.787   0.539   8.709 -0.3472  0.9740  2.9705
 5548TIP3    H240840   6.684   0.429   8.706 -0.0875  0.7522  0.7902
 5549TIP3   OH240841   7.420   7.353   9.690  0.3344 -0.1423 -0.0071
 5549TIP3    H140842   7.372   7.386   9.614  1.3910 -0.9880 -1.0908
 5549TIP3    H240843   7.361   7.289   9.730  0.0337 -0.1899 -0.5239
 5550TIP3   OH240844   1.902   1.132   7.690  0.4464  0.5125 -0.1158
 5550TIP3    H140845   1.899   1.077   7.768 -2.5592 -1.4026 -1.4197
 5550TIP3    H240846   1.833   1.197   7.703  0.9532  1.1571 -0.5449
 5551TIP3   OH240847   7.344   5.350   9.301  0.1386 -0.2739  0.3870
 5551TIP3    H140848   7.409   5.354   9.230 -0.3539 -0.9955 -0.1238
 5551TIP3    H240849   7.284   5.422   9.283 -0.9401 -1.4290 -0.9227
 5552TIP3   OH240850   5.883   6.374   8.508  0.3508 -0.4393 -0.2803
 5552TIP3    H140851   5.793   6.343   8.499  0.0102  0.1373  0.8928
 5552TIP3    H240852   5.876   6.455   8.558  1.5155 -0.3259 -0.2586
 5553TIP3   OH240853   7.275   2.226   8.785 -0.3868  0.7042 -0.3327
 5553TIP3    H140854   7.340   2.160   8.809 -0.8635  0.9377  1.7951
 5553TIP3    H240855   7.249   2.203   8.696 -0.8961 -2.3034  0.4925
 5554TIP3   OH240856   5.984   3.082   8.637  0.1048  0.3001  0.3671
 5554TIP3    H140857   6.028   3.144   8.580  0.4540 -0.7379 -0.5350
 5554TIP3    H240858   6.054   3.025   8.670 -0.4069 -0.7937 -0.3522
 5555TIP3   OH240859   0.155   7.688   8.932 -0.2498  0.4669 -0.5456
 5555TIP3    H140860   0.172   7.739   9.012  0.1806  0.4523 -0.6238
 5555TIP3    H240861   0.084   7.734   8.889 -0.6160  0.3711 -0.0592
 5556TIP3   OH240862   4.343   7.747   9.503 -0.1113 -0.3270 -0.9601
 5556TIP3    H140863   4.344   7.698   9.421  0.2230 -1.3971 -0.3461
 5556TIP3    H240864   4.260   7.722   9.544  1.1577 -2.4656  0.5169
 5557TIP3   OH240865   5.074   3.602   8.514 -0.4223 -0.4121 -0.2675
 5557TIP3    H140866   5.085   3.660   8.439 -0.4342 -1.9177 -1.4965
 5557TIP3    H240867   5.145   3.538   8.505 -0.1172 -0.3139  1.3058
 5558TIP3   OH240868   4.079   0.161   8.133 -0.6925 -0.0150 -0.0100
 5558TIP3    H140869   4.135   0.179   8.209  0.2324 -2.1191 -0.1185
 5558TIP3    H240870   3.995   0.201   8.156  0.2279  1.4110  1.0791
 5559TIP3   OH240871   4.717   3.623   9.982 -0.2067  0.3317  0.0307
 5559TIP3    H140872   4.780   3.674  10.032 -2.4743  1.2321  2.1994
 5559TIP3    H240873   4.714   3.538  10.026  0.7664 -0.4027 -1.2282
 5560TIP3   OH240874   2.207   1.351   8.797  0.0851 -0.4409  0.0388
 5560TIP3    H140875   2.254   1.426   8.833  0.9135 -1.0363  0.2125
 5560TIP3    H240876   2.270   1.307   8.741 -0.1273 -1.4888  0.6050
 5561TIP3   OH240877   2.057   3.417   9.818  0.3198 -0.5496  0.1505
 5561TIP3    H140878   2.140   3.370   9.807  1.2608  1.3669 -1.7224
 5561TIP3    H240879   2.047   3.466   9.737 -0.6926  2.2574  1.8354
 5562TIP3   OH240880   7.419   4.543   8.124 -0.3477 -0.0773 -0.2653
 5562TIP3    H140881   7.328   4.571   8.129 -0.1383  0.6005 -0.1588
 5562TIP3    H240882   7.461   4.607   8.065  0.1075 -0.2423 -0.1248
 5563TIP3   OH240883   1.002   1.878   7.781 -0.1739  0.6207  0.2124
 5563TIP3    H140884   0.960   1.807   7.734  0.5054 -0.1042  0.6689
 5563TIP3    H240885   0.953   1.883   7.864  0.3677  0.0429  0.5764
 5564TIP3   OH240886   5.030   6.072   9.105  0.0239  0.1413 -0.2827
 5564TIP3    H140887   4.994   5.996   9.150 -0.5532  0.9501  0.6752
 5564TIP3    H240888   5.123   6.074   9.130 -0.1730  0.2799  0.4673
 5565TIP3   OH240889   5.616   7.897   8.412 -0.6967 -0.2714  0.5175
 5565TIP3    H140890   5.554   7.824   8.412  0.7423 -1.5824  2.1998
 5565TIP3    H240891   5.626   7.919   8.319  0.3943 -3.6756 -0.3067
 5566TIP3   OH240892   1.486   4.285   9.957  0.7845 -0.0550  0.8361
 5566TIP3    H140893   1.518   4.369   9.923  0.2541  0.2885  1.1591
 5566TIP3    H240894   1.393   4.301   9.976  0.0063 -1.4342 -1.4046
 5567TIP3   OH240895   3.498   0.451   8.977 -0.3943  0.4419 -0.2835
 5567TIP3    H140896   3.412   0.452   8.935  0.2340 -0.4550 -1.6589
 5567TIP3    H240897   3.511   0.540   9.008 -1.9192  0.5255  0.1792
 5568TIP3   OH240898   3.120   6.067   8.664 -0.1652  0.4039 -0.3400
 5568TIP3    H140899   3.182   6.017   8.611  1.2314  2.1338 -0.4324
 5568TIP3    H240900   3.095   6.007   8.734  0.6790 -0.7437 -0.9826
 5569TIP3   OH240901   5.616   4.325   8.983 -0.2744 -0.1997 -0.2468
 5569TIP3    H140902   5.618   4.357   8.893 -0.9980  0.9625  0.1326
 5569TIP3    H240903   5.691   4.265   8.988  0.4743  0.6039 -1.2964
 5570TIP3   OH240904   7.654   1.258   8.529  0.1645 -0.2689  0.3604
 5570TIP3    H140905   7.716   1.197   8.570  1.3439 -0.9557 -2.2143
 5570TIP3    H240906   7.569   1.213   8.534  0.3832 -0.5820  1.4629
 5571TIP3   OH240907   2.380   6.680   8.495  0.3761 -0.1503 -0.5513
 5571TIP3    H140908   2.434   6.744   8.541 -0.7969  1.6116 -1.4848
 5571TIP3    H240909   2.419   6.595   8.516  0.3370  0.5930  3.0237
 5572TIP3   OH240910   5.481   3.220   9.511  0.3602 -0.1299  0.8435
 5572TIP3    H140911   5.480   3.184   9.423 -0.1548  1.5309  0.1341
 5572TIP3    H240912   5.425   3.162   9.562 -0.0227 -0.6151 -0.1250
 5573TIP3   OH240913   6.057   7.613   9.408  0.4257 -0.5986 -0.1937
 5573TIP3    H140914   5.987   7.677   9.394 -0.2132 -1.0807  0.6655
 5573TIP3    H240915   6.131   7.647   9.358 -0.2368  0.2397 -0.6327
 5574TIP3   OH240916   2.521   5.013   9.151  0.7105  0.1860 -0.1363
 5574TIP3    H140917   2.599   4.981   9.106  0.6359  0.6188 -0.5800
 5574TIP3    H240918   2.556   5.074   9.217  0.6971  1.1838 -1.0244
 5575TIP3   OH240919   6.605   1.276   9.436 -0.1309  0.0992  0.6109
 5575TIP3    H140920   6.583   1.211   9.369 -0.1207  1.0768 -0.3711
 5575TIP3    H240921   6.700   1.288   9.427 -0.1321  0.2424  0.7957
 5576TIP3   OH240922   0.057   3.630   8.349 -0.1546 -0.4650 -0.1488
 5576TIP3    H140923  -0.005   3.694   8.385  0.0501 -0.0743 -0.4843
 5576TIP3    H240924   0.143   3.660   8.378 -0.1236 -1.0646  0.4022
 5577TIP3   OH240925   1.315   2.502   7.870  0.1504 -0.1243 -0.4408
 5577TIP3    H140926   1.393   2.447   7.862  1.7452  1.8633  0.4791
 5577TIP3    H240927   1.300   2.507   7.965 -0.3672  0.4746 -0.5489
 5578TIP3   OH240928   3.058   1.185   8.191  0.2286  0.5457  0.1012
 5578TIP3    H140929   3.135   1.131   8.179 -0.6440 -0.5101 -0.9861
 5578TIP3    H240930   3.070   1.259   8.130  0.8513  0.9378  0.6946
 5579TIP3   OH240931   5.748   5.193   7.798  1.0759  0.1408 -0.0600
 5579TIP3    H140932   5.809   5.236   7.739 -0.2882  0.4879 -1.2639
 5579TIP3    H240933   5.754   5.100   7.774  0.7082  0.2494 -0.5834
 5580TIP3   OH240934   0.165   7.842   9.430 -0.3034  0.1596 -0.3545
 5580TIP3    H140935   0.248   7.836   9.478  0.1817 -1.4453 -1.3015
 5580TIP3    H240936   0.125   7.923   9.460  1.2516  0.5720  0.7031
 5581TIP3   OH240937   8.078   2.703   7.824  0.2762 -0.0922 -0.0998
 5581TIP3    H140938   8.166   2.706   7.863  0.4493  0.5177 -0.5304
 5581TIP3    H240939   8.094   2.708   7.730 -0.0927 -2.3163 -0.3303
 5582TIP3   OH240940   4.000   5.935   9.762 -0.2849 -0.4963 -0.1286
 5582TIP3    H140941   4.063   6.002   9.739 -0.8584 -0.0025 -0.2989
 5582TIP3    H240942   4.034   5.855   9.722  0.1999 -0.2295 -0.2592
 5583TIP3   OH240943   5.726   4.009   8.343 -0.4974  0.6142  0.0408
 5583TIP3    H140944   5.740   4.103   8.360 -0.6616  0.5073  0.7800
 5583TIP3    H240945   5.715   3.970   8.430 -0.5881 -0.0697 -0.2727
 5584TIP3   OH240946   6.021   1.676   8.779 -0.5974 -0.2849  0.4965
 5584TIP3    H140947   6.075   1.754   8.768  1.0228 -1.2328  1.3643
 5584TIP3    H240948   5.981   1.687   8.866  0.2388 -0.7473  0.9529
 5585TIP3   OH240949   0.997   2.916   7.438 -0.3671  0.5095  0.1621
 5585TIP3    H140950   0.938   2.927   7.513 -0.3391  1.5388  0.0457
 5585TIP3    H240951   1.046   2.836   7.458  1.1237  1.8414  2.2947
 5586TIP3   OH240952   6.271   6.987   8.633  0.1243  0.4640  0.4208
 5586TIP3    H140953   6.196   7.025   8.678 -0.2723 -0.5728  0.6751
 5586TIP3    H240954   6.333   7.059   8.623 -1.7307  1.9353 -1.7242
 5587TIP3   OH240955   6.883   5.429   9.614  0.1037  0.0180 -0.2037
 5587TIP3    H140956   6.838   5.510   9.588  0.8545  0.6205  0.3368
 5587TIP3    H240957   6.933   5.404   9.537 -0.3811 -0.1103 -0.4809
 5588TIP3   OH240958   0.443   4.935   8.862  0.1075 -0.1854  0.0912
 5588TIP3    H140959   0.475   4.892   8.942 -2.0964  0.7077  1.5434
 5588TIP3    H240960   0.507   5.005   8.846  0.1391  0.1597  1.5873
 5589TIP3   OH240961   1.852   4.591   8.518 -0.5327 -0.1192 -0.1692
 5589TIP3    H140962   1.799   4.591   8.439  0.2387  0.9614 -0.7041
 5589TIP3    H240963   1.856   4.499   8.544  0.4846 -0.7170 -2.2507
 5590TIP3   OH240964   6.948   3.642   8.652 -0.2086 -0.0647  0.3290
 5590TIP3    H140965   6.991   3.567   8.694  2.0472  2.3752  2.7325
 5590TIP3    H240966   6.875   3.662   8.709 -0.1033  0.2772  0.3438
 5591TIP3   OH240967   5.974   5.635   8.217  0.2198 -0.7517  0.3271
 5591TIP3    H140968   5.926   5.692   8.278 -0.4674 -3.0177  2.0728
 5591TIP3    H240969   5.919   5.633   8.138 -0.4355 -0.0884  0.7484
 5592TIP3   OH240970   2.836   6.210   8.085  0.4462  0.4600  0.0432
 5592TIP3    H140971   2.884   6.291   8.104  0.6506  0.3078  0.1809
 5592TIP3    H240972   2.898   6.158   8.033  0.5561  0.1216  0.5099
 5593TIP3   OH240973   1.086   2.252   8.068 -0.5562  0.3495  0.2461
 5593TIP3    H140974   1.008   2.297   8.098 -1.0396 -1.2512  1.5199
 5593TIP3    H240975   1.056   2.165   8.041  0.7225 -0.2375  0.5829
 5594TIP3   OH240976   5.944   7.635   7.913  0.4853  0.1785  0.5791
 5594TIP3    H140977   5.916   7.584   7.988 -0.3676  0.4018  0.4242
 5594TIP3    H240978   6.005   7.578   7.866 -0.6907 -0.8395  0.2378
 5595TIP3   OH240979   6.600   7.324   9.494 -0.3844  0.1707  0.5454
 5595TIP3    H140980   6.597   7.318   9.590  0.0452  0.4471  0.5810
 5595TIP3    H240981   6.531   7.386   9.472 -1.7616 -1.3104  0.5200
 5596TIP3   OH240982   2.815   2.803   8.229 -0.7728 -0.6744  0.3328
 5596TIP3    H140983   2.766   2.738   8.279  0.1249 -2.3214 -0.8587
 5596TIP3    H240984   2.896   2.759   8.204  0.0499  1.0366 -0.1969
 5597TIP3   OH240985   1.787   3.763   8.799  0.4234 -0.2409 -0.3886
 5597TIP3    H140986   1.709   3.719   8.833  0.2082 -1.0570 -1.8439
 5597TIP3    H240987   1.753   3.839   8.752  0.6163  0.1237  0.0506
 5598TIP3   OH240988   6.352   5.187  10.057 -0.0050 -0.2682 -0.0720
 5598TIP3    H140989   6.408   5.144   9.992  0.4584 -1.7408  1.2430
 5598TIP3    H240990   6.389   5.274  10.066  1.2625 -0.7656 -0.2230
 5599TIP3   OH240991   2.384   1.203   7.711 -0.2520  0.0935 -0.4648
 5599TIP3    H140992   2.311   1.178   7.656 -0.5999  0.1929 -0.0569
 5599TIP3    H240993   2.394   1.297   7.696  1.0366 -0.2335 -1.9775
 5600TIP3   OH240994   5.181   3.051   9.357  0.1482  0.4649  0.6270
 5600TIP3    H140995   5.133   2.970   9.337  3.2174 -1.3095 -0.0950
 5600TIP3    H240996   5.245   3.026   9.424  2.1444  1.8835 -0.6461
 5601TIP3   OH240997   5.168   7.211   7.708  0.3886  0.1755 -0.0829
 5601TIP3    H140998   5.170   7.175   7.619  0.8183  0.2075 -0.0917
 5601TIP3    H240999   5.133   7.140   7.762  0.2993  0.0916 -0.2491
 5602TIP3   OH241000   6.987   5.352   7.738 -0.2456  0.0060  0.1929
 5602TIP3    H141001   6.920   5.297   7.778  0.8634 -1.4914  0.0957
 5602TIP3    H241002   6.992   5.322   7.647  0.0518  0.6006  0.0089
 5603TIP3   OH241003   6.440   3.825   9.479 -0.0216 -0.1833 -0.2412
 5603TIP3    H141004   6.454   3.902   9.424 -0.7364 -0.9198 -1.5159
 5603TIP3    H241005   6.495   3.757   9.440 -0.6513 -0.7617 -0.1458
 5604TIP3   OH241006   5.584   0.213  10.293 -0.1797 -0.5010 -0.1177
 5604TIP3    H141007   5.674   0.184  10.306  0.7057  2.7007  1.8522
 5604TIP3    H241008   5.573   0.214  10.198  0.7984 -3.6750 -0.3583
 5605TIP3   OH241009   7.375   5.476   8.961 -0.4710  0.2586  0.2785
 5605TIP3    H141010   7.371   5.570   8.977 -2.5295  0.1800  0.4924
 5605TIP3    H241011   7.286   5.452   8.935  0.4162 -1.3422 -1.5807
 5606TIP3   OH241012   6.732   4.051   8.711  0.5303 -0.8464  0.1590
 5606TIP3    H141013   6.823   4.032   8.736  1.0114  0.5376 -0.4474
 5606TIP3    H241014   6.735   4.140   8.676 -1.0855 -0.7611  0.1812
 5607TIP3   OH241015   2.361   8.435   7.804  0.2757 -0.3847  0.3390
 5607TIP3    H141016   2.378   8.341   7.799 -0.4753 -0.5604  0.8588
 5607TIP3    H241017   2.439   8.472   7.846  0.9043 -0.6610 -0.5541
 5608TIP3   OH241018   5.844   0.814   8.966 -0.1261  0.2075  0.2695
 5608TIP3    H141019   5.863   0.767   8.886  0.0022 -0.6908  0.8207
 5608TIP3    H241020   5.826   0.904   8.937 -1.1975 -0.3428 -0.8786
 5609TIP3   OH241021   5.066   2.922   8.669 -0.2023  0.1891 -0.1749
 5609TIP3    H141022   5.118   2.894   8.744 -0.8027 -1.2244 -0.2485
 5609TIP3    H241023   5.049   2.841   8.620  0.9113  1.1666 -2.3197
 5610TIP3   OH241024   6.589   6.254   9.235  0.1816 -0.0243  0.0325
 5610TIP3    H141025   6.641   6.239   9.156  1.1694  0.5942  0.5406
 5610TIP3    H241026   6.581   6.349   9.240  1.4598  0.0491  1.4789
 5611TIP3   OH241027   7.784   8.120   8.245 -0.2150  0.1559  0.2936
 5611TIP3    H141028   7.829   8.104   8.162  1.5629 -0.5244  1.3352
 5611TIP3    H241029   7.844   8.176   8.294 -2.2043  2.4239  0.3424
 5612TIP3   OH241030   1.734   5.911   9.011  0.2165  0.5950  0.0623
 5612TIP3    H141031   1.695   5.972   9.074  0.9346  1.0196  0.1003
 5612TIP3    H241032   1.821   5.892   9.047 -0.0475 -0.5687  0.1232
 5613TIP3   OH241033   0.341   3.564   9.839  0.5557 -0.6896 -0.1343
 5613TIP3    H141034   0.363   3.647   9.795  2.0978 -1.0474 -0.0971
 5613TIP3    H241035   0.282   3.520   9.778 -0.2323  0.3883 -0.1936
 5614TIP3   OH241036   4.743   3.331   7.663  0.2470 -0.8163  0.3826
 5614TIP3    H141037   4.763   3.379   7.743  0.8673 -3.4064  1.8947
 5614TIP3    H241038   4.679   3.386   7.618  1.4259  1.7115  1.5958
 5615TIP3   OH241039   7.069   4.118   8.529 -0.4604  0.1537  0.0403
 5615TIP3    H141040   7.153   4.089   8.492  0.0612 -1.0066  1.9974
 5615TIP3    H241041   7.013   4.131   8.453  2.2408  3.7430 -1.6096
 5616TIP3   OH241042   3.841   5.201   8.223  0.1020 -0.0584 -0.2598
 5616TIP3    H141043   3.828   5.154   8.141  0.5478  0.3907 -0.6006
 5616TIP3    H241044   3.778   5.273   8.220 -0.9491 -0.9278  0.5053
 5617TIP3   OH241045   3.165   3.494   9.784 -0.2743 -0.5539 -0.2332
 5617TIP3    H141046   3.112   3.415   9.770 -0.6930 -0.2159 -0.5633
 5617TIP3    H241047   3.102   3.565   9.789 -0.0763 -0.4403  1.9909
 5618TIP3   OH241048   4.583   1.559   8.637 -0.0679  0.0080  0.6017
 5618TIP3    H141049   4.505   1.557   8.580 -0.9894  2.0601  1.6912
 5618TIP3    H241050   4.547   1.571   8.725  1.4998  1.6914  1.0538
 5619TIP3   OH241051   7.626   2.370   9.182  0.3137  0.3951  0.2101
 5619TIP3    H141052   7.722   2.370   9.183  0.3170  0.1277  0.1355
 5619TIP3    H241053   7.601   2.392   9.272  0.4478  0.3130  0.2686
 5620TIP3   OH241054   7.414   7.362   8.472  0.3160 -0.1143  0.2314
 5620TIP3    H141055   7.428   7.455   8.493  0.2228  0.0179 -0.2787
 5620TIP3    H241056   7.376   7.325   8.551 -2.1280  0.8603 -0.4023
 5621TIP3   OH241057   0.428   7.590   8.195 -0.6016 -0.4020 -0.4577
 5621TIP3    H141058   0.434   7.582   8.290 -0.0720 -0.0341 -0.4567
 5621TIP3    H241059   0.516   7.613   8.167 -0.8593 -0.0512 -0.9989
 5622TIP3   OH241060   2.869   1.789   8.043 -0.3202  0.0938 -0.1264
 5622TIP3    H141061   2.913   1.796   7.959  2.2611  3.9338  1.2877
 5622TIP3    H241062   2.919   1.722   8.090  0.6637  0.6235 -0.3909
 5623TIP3   OH241063   1.307   5.495   8.814 -0.1375  0.3381 -0.4797
 5623TIP3    H141064   1.354   5.533   8.739 -0.6545 -1.9694 -2.1105
 5623TIP3    H241065   1.371   5.495   8.885  1.8587 -1.1823 -2.1463
 5624TIP3   OH241066   2.185   5.715   8.603 -0.0585  0.0050  0.1133
 5624TIP3    H141067   2.267   5.667   8.619 -0.7309 -0.8510  1.2052
 5624TIP3    H241068   2.144   5.669   8.530 -0.4718 -0.8397  0.8461
 5625TIP3   OH241069   6.847   4.927   7.814 -0.2359 -0.4186 -0.1683
 5625TIP3    H141070   6.903   4.891   7.884  0.3848  2.7416  1.1463
 5625TIP3    H241071   6.898   4.914   7.734  0.5649 -1.1583  0.4379
 5626TIP3   OH241072   6.791   1.395   8.965 -0.5017  0.1599  0.4599
 5626TIP3    H141073   6.766   1.425   8.877  0.3953 -1.9169 -0.5712
 5626TIP3    H241074   6.708   1.383   9.010 -1.3423 -2.5727 -1.5023
 5627TIP3   OH241075   1.368   6.082   8.188 -0.3943 -0.2081  0.2893
 5627TIP3    H141076   1.278   6.055   8.206 -0.5022 -0.3349 -0.4053
 5627TIP3    H241077   1.389   6.042   8.103 -0.5089  1.7208 -0.7109
 5628TIP3   OH241078   6.406   0.316   8.663  0.4051 -0.1538  0.2579
 5628TIP3    H141079   6.499   0.298   8.650  0.3176  0.8803 -2.4981
 5628TIP3    H241080   6.380   0.363   8.584 -2.4822 -0.4524  0.9371
 5629TIP3   OH241081   4.250   6.863   9.554 -0.4600  0.4166 -0.2878
 5629TIP3    H141082   4.322   6.842   9.614 -1.4336 -2.0019  0.1506
 5629TIP3    H241083   4.188   6.912   9.608 -0.7308 -0.5956  0.3420
 5630TIP3   OH241084   0.946   8.377   7.488  0.1655  0.4534  0.1234
 5630TIP3    H141085   1.022   8.355   7.542  0.6417 -0.8416 -1.0006
 5630TIP3    H241086   0.977   8.446   7.429  0.5147 -0.1169 -0.3769
 5631TIP3   OH241087   0.120   7.613   8.207 -0.2347  0.5345 -0.0987
 5631TIP3    H141088   0.146   7.537   8.259  0.2850  0.9870  0.3109
 5631TIP3    H241089   0.202   7.651   8.177 -0.3024  2.5104  1.9588
 5632TIP3   OH241090   3.288   1.454   9.369  0.4074  0.4594 -0.0570
 5632TIP3    H141091   3.220   1.446   9.436  1.2104  0.3376  0.7618
 5632TIP3    H241092   3.355   1.390   9.394  0.9477  0.7564 -0.6931
 5633TIP3   OH241093   1.902   6.777   9.090  0.1564 -0.0336  0.1019
 5633TIP3    H141094   1.848   6.821   9.156  0.5199 -1.2472  1.2257
 5633TIP3    H241095   1.884   6.684   9.102  1.8750 -0.4088 -0.0685
 5634TIP3   OH241096   2.570   1.430   8.640  0.1496  0.7710  0.2041
 5634TIP3    H141097   2.654   1.475   8.640  0.7107 -0.1769 -1.7346
 5634TIP3    H241098   2.512   1.486   8.692  2.7126 -0.1215  4.4583
 5635TIP3   OH241099   7.837   4.244   8.475  0.2535  0.0646 -0.3390
 5635TIP3    H141100   7.826   4.184   8.401  0.3813  0.0853 -0.3754
 5635TIP3    H241101   7.748   4.270   8.498 -0.4298 -4.3325  3.1954
 5636TIP3   OH241102   0.870   7.723   8.802 -0.0775  0.0325  0.2624
 5636TIP3    H141103   0.942   7.710   8.864 -0.6780 -0.0120  0.9661
 5636TIP3    H241104   0.913   7.741   8.719  0.7514  0.8568  0.8533
 5637TIP3   OH241105   6.915   4.859   8.734 -0.3914 -0.1474  0.5216
 5637TIP3    H141106   7.000   4.828   8.701 -0.3832  0.2204  0.1898
 5637TIP3    H241107   6.857   4.783   8.726 -0.6418  0.2010 -1.2644
 5638TIP3   OH241108   3.143   3.325   8.609  0.0348 -0.1271 -0.0791
 5638TIP3    H141109   3.192   3.263   8.662  0.3234 -0.0448 -0.2469
 5638TIP3    H241110   3.108   3.272   8.537  0.4104 -0.0653 -0.3061
 5639TIP3   OH241111   5.415   3.930   7.740  0.0321  0.5812  0.3699
 5639TIP3    H141112   5.412   4.019   7.706  0.6390 -0.1527 -1.7576
 5639TIP3    H241113   5.356   3.931   7.816  0.9347  3.0466  1.1301
 5640TIP3   OH241114   0.736   3.104   8.066 -0.4657 -0.3478  0.0138
 5640TIP3    H141115   0.686   3.177   8.102 -1.7029 -1.2580  0.1836
 5640TIP3    H241116   0.824   3.114   8.104 -0.6231  1.0086  0.0661
 5641TIP3   OH241117   7.822   6.136   8.306 -0.0838  0.0632 -0.0856
 5641TIP3    H141118   7.726   6.128   8.313 -0.3223 -0.3776 -2.8229
 5641TIP3    H241119   7.836   6.219   8.260  0.8298 -0.0244  0.0210
 5642TIP3   OH241120   0.977   5.392   7.983 -0.4021 -0.0737  0.5549
 5642TIP3    H141121   0.978   5.472   7.932 -0.4066  0.1226  0.8593
 5642TIP3    H241122   0.967   5.421   8.074 -2.0518 -0.4856  0.5402
 5643TIP3   OH241123   2.432   5.428   7.659 -0.2858 -0.2993 -0.1052
 5643TIP3    H141124   2.367   5.484   7.617  1.5199  2.6099  0.6070
 5643TIP3    H241125   2.431   5.456   7.751 -0.2130 -2.4631  0.5963
 5644TIP3   OH241126   2.222   1.152   7.958  0.0788 -0.5860  0.0085
 5644TIP3    H141127   2.265   1.125   8.040  0.7793 -0.3910 -0.2842
 5644TIP3    H241128   2.293   1.153   7.894  0.0491  1.6397 -0.0690
 5645TIP3   OH241129   0.590   4.461   8.498 -0.0095 -0.0398 -0.6890
 5645TIP3    H141130   0.600   4.494   8.587 -2.0004 -1.8954  0.2943
 5645TIP3    H241131   0.676   4.477   8.458  1.6102 -0.9062  2.1515
 5646TIP3   OH241132   5.835   3.567   9.167 -0.2227  0.3050 -0.0718
 5646TIP3    H141133   5.787   3.644   9.197 -1.0151  0.0845 -0.7195
 5646TIP3    H241134   5.774   3.523   9.108  0.2134 -0.8262  0.2955
 5647TIP3   OH241135   3.576   4.353   8.401  0.2810 -0.0485 -0.0322
 5647TIP3    H141136   3.550   4.425   8.344  0.9560  0.2723  0.0575
 5647TIP3    H241137   3.656   4.383   8.444 -0.2657 -0.2312  1.1753
 5648TIP3   OH241138   4.646   2.174   8.701  0.3769 -0.7853  0.3104
 5648TIP3    H141139   4.557   2.144   8.721 -0.8636 -0.3058 -3.5186
 5648TIP3    H241140   4.644   2.268   8.717  0.5604 -0.9260  1.2105
 5649TIP3   OH241141   6.992   3.974   8.787 -0.7879 -0.0281 -0.0129
 5649TIP3    H141142   7.004   4.049   8.845  0.2339 -0.1175 -0.0856
 5649TIP3    H241143   7.016   4.006   8.700 -0.7005 -0.3350 -0.1053
 5650TIP3   OH241144   4.323   2.905   8.910 -0.1674 -0.5944 -0.1289
 5650TIP3    H141145   4.234   2.876   8.892 -0.1111 -0.0529 -1.3455
 5650TIP3    H241146   4.365   2.909   8.824  0.9176 -0.4691  0.3918
 5651TIP3   OH241147   7.211   8.162   9.704  0.0511  0.3469  0.1767
 5651TIP3    H141148   7.191   8.095   9.770  0.1561 -0.8462 -0.9543
 5651TIP3    H241149   7.307   8.171   9.709 -0.0862  1.5459  1.3471
 5652TIP3   OH241150   8.289   6.874   9.122 -0.3589 -0.1905  0.1759
 5652TIP3    H141151   8.331   6.848   9.203 -0.9973 -0.2122  0.5015
 5652TIP3    H241152   8.298   6.970   9.120  0.7667 -0.2889 -0.3525
 5653TIP3   OH241153   0.503   0.301   9.555  0.1420  0.1034 -0.0523
 5653TIP3    H141154   0.589   0.260   9.545  1.5280  2.8413 -0.0911
 5653TIP3    H241155   0.492   0.312   9.649 -0.8415 -1.4351  0.0557
 5654TIP3   OH241156   0.738   6.923   8.030  0.3293 -0.6282 -0.1831
 5654TIP3    H141157   0.656   6.880   8.007 -0.2413  0.3083  0.0257
 5654TIP3    H241158   0.713   7.014   8.046  1.4169 -0.3221 -0.1512
 5655TIP3   OH241159   2.334   1.110   8.960 -0.0859  0.0302  0.5810
 5655TIP3    H141160   2.258   1.166   8.977 -0.5332 -0.2608 -0.4085
 5655TIP3    H241161   2.407   1.172   8.948 -0.5581  0.4224 -0.4069
 5656TIP3   OH241162   2.595   3.173   7.902  0.7173  0.2931 -0.4134
 5656TIP3    H141163   2.569   3.259   7.870  2.1810  0.3301 -1.6468
 5656TIP3    H241164   2.599   3.182   7.997 -0.6858  1.1081 -0.4043
 5657TIP3   OH241165   5.311   5.258   9.396  0.1114  0.3287  0.1324
 5657TIP3    H141166   5.246   5.234   9.330  0.7576 -1.4139  0.0604
 5657TIP3    H241167   5.391   5.276   9.346 -0.3456  2.7871  0.1929
 5658TIP3   OH241168   6.314   2.315   8.062  1.0774 -0.3646 -0.1719
 5658TIP3    H141169   6.263   2.302   8.142  0.0946  4.3497  0.2809
 5658TIP3    H241170   6.403   2.332   8.092  0.2995  3.6293  0.3999
 5659TIP3   OH241171   6.485   4.851   8.807  0.1216  0.1174  0.5832
 5659TIP3    H141172   6.540   4.799   8.747  0.0329  1.4547 -0.7120
 5659TIP3    H241173   6.497   4.809   8.892  2.6576 -0.0258  0.2372
 5660TIP3   OH241174   2.087   4.200   8.742  0.0957 -0.0393  0.2055
 5660TIP3    H141175   2.178   4.218   8.765 -0.1550  2.5991 -0.4533
 5660TIP3    H241176   2.060   4.128   8.798  2.2736 -0.1499  1.1612
 5661TIP3   OH241177   5.859   1.546   8.603 -0.1044  0.2181  0.7581
 5661TIP3    H141178   5.837   1.465   8.650  2.0738 -1.5423 -1.0106
 5661TIP3    H241179   5.892   1.605   8.671 -1.0286 -0.6413  1.9940
 5662TIP3   OH241180   4.654   5.161   9.481 -0.0196 -0.7440  0.2555
 5662TIP3    H141181   4.573   5.149   9.530 -0.2065  1.5131  0.6384
 5662TIP3    H241182   4.698   5.076   9.484 -2.5223 -2.1278 -0.3057
 5663TIP3   OH241183   1.123   8.345   9.427 -0.0655 -0.0981 -0.0691
 5663TIP3    H141184   1.176   8.424   9.443  0.5538 -0.4363 -0.4005
 5663TIP3    H241185   1.176   8.274   9.464  0.5104 -0.6659 -1.8780
 5664TIP3   OH241186   0.011   3.014   7.534 -0.0047 -0.2729  0.4583
 5664TIP3    H141187  -0.080   3.017   7.564  0.2724  2.0068  1.2573
 5664TIP3    H241188   0.057   3.078   7.588  1.7990 -0.3668 -0.8457
 5665TIP3   OH241189   4.544   5.399   8.721 -0.2036 -0.1532  0.0377
 5665TIP3    H141190   4.586   5.461   8.781 -0.4917 -0.2622  0.3499
 5665TIP3    H241191   4.615   5.339   8.695  0.1250  0.4215 -0.4262
 5666TIP3   OH241192   1.716   2.365   9.262  0.4672  0.3440  0.0156
 5666TIP3    H141193   1.799   2.318   9.271  0.8585  1.2206  1.3706
 5666TIP3    H241194   1.680   2.365   9.351 -1.1450 -0.2756 -0.6117
 5667TIP3   OH241195   4.138   1.622   8.060 -0.4351 -0.1924 -0.0690
 5667TIP3    H141196   4.087   1.555   8.107  1.2506 -0.5626  1.3218
 5667TIP3    H241197   4.090   1.703   8.075 -2.0397 -0.8904 -1.0500
 5668TIP3   OH241198   0.217   5.903   9.303  0.0096  0.3420  0.4364
 5668TIP3    H141199   0.301   5.877   9.264 -0.7999 -1.2322 -0.3559
 5668TIP3    H241200   0.213   5.856   9.386 -1.2685 -1.8734 -0.8021
 5669TIP3   OH241201   1.831   6.660   7.978  0.2084  0.3486  0.0896
 5669TIP3    H141202   1.823   6.756   7.975  0.6265  0.3671 -0.6185
 5669TIP3    H241203   1.891   6.644   8.050 -1.0994  0.5272  1.2623
 5670TIP3   OH241204   3.166   2.685   8.377  0.4809 -0.0330 -0.4099
 5670TIP3    H141205   3.102   2.625   8.339  0.0685  1.4897 -2.2688
 5670TIP3    H241206   3.226   2.705   8.305  1.7426  0.3207  0.6863
 5671TIP3   OH241207   6.601   3.486   7.920 -0.3776  0.1971 -0.0445
 5671TIP3    H141208   6.547   3.503   7.843  0.7815  2.0780 -0.4845
 5671TIP3    H241209   6.641   3.400   7.902 -0.3650  0.4608 -1.4003
 5672TIP3   OH241210   4.521   8.343   9.054  0.4507  0.1039  0.1173
 5672TIP3    H141211   4.457   8.304   8.995 -0.5952 -0.3064  1.4874
 5672TIP3    H241212   4.578   8.394   8.996  0.0730 -1.0772 -1.3522
 5673TIP3   OH241213   5.578   3.491   9.524 -0.3444  0.0652  0.2139
 5673TIP3    H141214   5.515   3.507   9.595 -0.3774 -0.5581  0.3345
 5673TIP3    H241215   5.579   3.396   9.515  0.3793  0.0859  0.0259
 5674TIP3   OH241216   6.249   2.175   8.696 -0.4359 -0.2454  0.0293
 5674TIP3    H141217   6.167   2.193   8.743 -0.3280  0.8503 -0.1676
 5674TIP3    H241218   6.318   2.192   8.760 -0.3144  0.5169 -0.2944
 5675TIP3   OH241219   3.511   6.549   8.314  0.3831  0.0736  0.2367
 5675TIP3    H141220   3.603   6.555   8.340 -0.1156 -0.5628  2.4432
 5675TIP3    H241221   3.494   6.628   8.264  2.2881 -0.1441 -0.8481
 5676TIP3   OH241222   3.356   7.331   9.800  0.2283  0.3679 -0.0335
 5676TIP3    H141223   3.264   7.345   9.823  0.5892  0.3090  1.4983
 5676TIP3    H241224   3.396   7.418   9.805  0.0226  0.6123 -1.9356
 5677TIP3   OH241225   2.986   6.003   8.366 -0.2699 -0.6614  1.3124
 5677TIP3    H141226   2.920   5.978   8.431  0.0472 -1.5847  1.2799
 5677TIP3    H241227   3.062   5.949   8.386 -0.8117 -2.4563 -1.0659
 5678TIP3   OH241228   1.895   3.571   8.651  0.1569 -0.0075 -0.0698
 5678TIP3    H141229   1.852   3.640   8.701  0.8985  0.2504  0.2193
 5678TIP3    H241230   1.963   3.616   8.600  0.4961 -0.4904 -0.0504
 5679TIP3   OH241231   0.372   0.565  10.176 -0.7632 -0.0439 -0.2534
 5679TIP3    H141232   0.298   0.586  10.233  0.5568  0.1484  1.4700
 5679TIP3    H241233   0.406   0.650  10.148  0.2826 -0.0284  0.9834
 5680TIP3   OH241234   2.387   0.519   8.759  0.1824 -0.2503 -0.5186
 5680TIP3    H141235   2.420   0.476   8.680  2.2885  0.3523 -0.0170
 5680TIP3    H241236   2.454   0.582   8.782 -1.3935  1.1106  0.5694
 5681TIP3   OH241237   1.172   0.123   8.340 -0.0279  0.2347  0.3633
 5681TIP3    H141238   1.256   0.153   8.305 -0.3863  2.7470  1.4480
 5681TIP3    H241239   1.170   0.157   8.429 -1.0632 -2.1593  1.3385
 5682TIP3   OH241240   1.718   0.870   8.716  0.3066  0.2628 -0.4506
 5682TIP3    H141241   1.756   0.843   8.799 -0.1913  0.5691 -0.1198
 5682TIP3    H241242   1.644   0.927   8.740  0.0004  0.1490 -1.0902
 5683TIP3   OH241243   1.132   2.036   8.390 -0.3994  1.0716  0.3541
 5683TIP3    H141244   1.042   2.024   8.359 -0.7381 -1.8405  2.1010
 5683TIP3    H241245   1.187   2.010   8.316 -1.1407 -1.7699  0.6642
 5684TIP3   OH241246   2.946   0.740   7.967 -0.0331  0.5086  0.1416
 5684TIP3    H141247   2.899   0.821   7.948 -1.3181 -0.3182 -0.3995
 5684TIP3    H241248   2.877   0.675   7.978  0.9770 -0.5956  0.1674
 5685TIP3   OH241249   0.409   7.909   9.554  0.1551  0.5268  0.4674
 5685TIP3    H141250   0.459   7.903   9.472 -1.8022 -1.9894 -0.6458
 5685TIP3    H241251   0.342   7.975   9.536  0.4469  0.8396  0.5002
 5686TIP3   OH241252   5.829   7.419   9.619 -1.0241  0.0864  0.1314
 5686TIP3    H141253   5.771   7.465   9.679  0.8285  1.6649  0.8185
 5686TIP3    H241254   5.906   7.475   9.612 -0.3062 -1.0331 -2.1511
 5687TIP3   OH241255   1.200   4.162   8.025  0.3083  0.1184  0.0787
 5687TIP3    H141256   1.187   4.227   7.956  1.1736  1.3862  1.0626
 5687TIP3    H241257   1.116   4.159   8.071  1.0486  2.8351  1.8695
 5688TIP3   OH241258   3.997   7.537   8.330  0.5520  0.0366 -0.0445
 5688TIP3    H141259   4.035   7.458   8.290  0.7500 -0.9674  1.9496
 5688TIP3    H241260   3.987   7.598   8.258  1.0514 -1.5682 -1.5612
 5689TIP3   OH241261   0.069   6.847   8.705  0.2223  0.1975  0.3880
 5689TIP3    H141262  -0.002   6.843   8.770  0.2619 -1.0057  0.3942
 5689TIP3    H241263   0.028   6.885   8.627 -0.4855 -0.5962  0.3487
 5690TIP3   OH241264   6.945   8.161   9.478 -0.0621 -0.4336 -0.1637
 5690TIP3    H141265   6.895   8.105   9.419  0.4288 -1.9903  0.8245
 5690TIP3    H241266   6.946   8.113   9.561 -1.0342  1.8214  1.2754
 5691TIP3   OH241267   3.681   6.149   8.132  0.3262 -0.1727 -0.5170
 5691TIP3    H141268   3.645   6.142   8.044 -0.1322  1.1274 -0.4525
 5691TIP3    H241269   3.641   6.076   8.180 -1.9730  0.9692 -0.5583
 5692TIP3   OH241270   4.680   2.548   8.372 -0.3874  0.0074  0.2848
 5692TIP3    H141271   4.743   2.564   8.443 -0.7199 -0.1024  0.6059
 5692TIP3    H241272   4.735   2.538   8.294 -0.1315  2.5059  0.0777
 5693TIP3   OH241273   2.304   2.215   8.884 -0.3222  0.4439  0.0171
 5693TIP3    H141274   2.245   2.223   8.959  0.2748 -0.2859  0.5823
 5693TIP3    H241275   2.255   2.163   8.820 -0.2750 -0.2053  0.5054
 5694TIP3   OH241276   3.780   7.962   8.798  0.0947  0.5485 -0.2620
 5694TIP3    H141277   3.809   7.962   8.889 -0.3273 -0.8177 -0.1017
 5694TIP3    H241278   3.836   7.897   8.755 -0.5056  0.3048 -0.6949
 5695TIP3   OH241279   5.335   0.629   8.727 -0.1056  0.0715  0.0256
 5695TIP3    H141280   5.241   0.624   8.711  0.0870 -0.4338 -1.0767
 5695TIP3    H241281   5.368   0.543   8.702  0.5425 -0.0433  1.2291
 5696TIP3   OH241282   8.146   5.700   8.292  0.3174  0.3503  0.3676
 5696TIP3    H141283   8.104   5.738   8.369  0.0760  0.1803  0.3236
 5696TIP3    H241284   8.188   5.774   8.248  0.5287  0.4299  0.7096
 5697TIP3   OH241285   6.173   1.238   9.385 -0.1642 -0.2789 -0.0296
 5697TIP3    H141286   6.143   1.165   9.331 -0.0653  0.0398 -0.5267
 5697TIP3    H241287   6.103   1.303   9.379  0.6857  0.5804 -1.4130
 5698TIP3   OH241288   1.453   4.784   8.566 -0.7215 -0.7177  0.1933
 5698TIP3    H141289   1.412   4.705   8.602 -0.2383 -0.3935  1.5369
 5698TIP3    H241290   1.383   4.826   8.515 -1.5894 -0.9993  1.1122
 5699TIP3   OH241291   5.070   6.249   8.310  0.1972 -0.2437  0.3550
 5699TIP3    H141292   5.020   6.169   8.322  0.5966 -0.4872  0.3967
 5699TIP3    H241293   5.061   6.269   8.216 -0.2743 -0.0863  0.4324
 5700TIP3   OH241294   5.516   5.816   8.398 -0.1704 -0.4105 -0.0876
 5700TIP3    H141295   5.450   5.869   8.354  0.5562 -1.1265 -2.1541
 5700TIP3    H241296   5.599   5.854   8.371  0.3157 -1.1487  0.3317
 5701TIP3   OH241297   7.617   6.266   8.041 -0.1656  0.7249  0.4159
 5701TIP3    H141298   7.550   6.331   8.062  1.3576  2.0971  1.2344
 5701TIP3    H241299   7.571   6.202   7.986 -2.2294  1.3854  1.2599
 5702TIP3   OH241300   4.869   7.778   8.723 -0.1777  0.6108  0.3742
 5702TIP3    H141301   4.924   7.754   8.649  1.1161  0.4571  1.3512
 5702TIP3    H241302   4.822   7.856   8.694 -0.3434  0.0517 -0.9001
 5703TIP3   OH241303   3.586   1.465   7.788 -0.3832 -0.1411  0.1659
 5703TIP3    H141304   3.632   1.549   7.793  0.0578 -0.2053 -1.9775
 5703TIP3    H241305   3.655   1.399   7.795 -0.6294 -0.3284  0.9345
 5704TIP3   OH241306   4.518   1.062   9.325 -0.0561  0.1694  1.0061
 5704TIP3    H141307   4.548   1.141   9.371 -1.5264  1.2153  0.2562
 5704TIP3    H241308   4.427   1.051   9.355 -0.9253  0.6558 -1.2702
 5705TIP3   OH241309   3.178   4.901   7.534 -0.1578 -0.0715 -0.2179
 5705TIP3    H141310   3.213   4.989   7.543 -0.1240  0.0888 -1.6933
 5705TIP3    H241311   3.083   4.911   7.539 -0.1513  0.0394 -0.3280
 5706TIP3   OH241312   6.502   2.292   8.264  0.0376 -0.3466  0.0407
 5706TIP3    H141313   6.456   2.225   8.315 -0.7517 -0.3017 -0.5902
 5706TIP3    H241314   6.580   2.312   8.315 -0.8706 -0.1046  1.3868
 5707TIP3   OH241315   7.178   1.026   8.545  0.3343  0.3246  0.0601
 5707TIP3    H141316   7.271   1.025   8.524  0.3126  1.0014 -0.0843
 5707TIP3    H241317   7.169   0.960   8.614  0.9355  0.3164  0.1376
 5708TIP3   OH241318   2.694   2.183   8.572 -0.2521  0.3883  0.8800
 5708TIP3    H141319   2.682   2.256   8.511 -0.2796 -0.0394  0.3703
 5708TIP3    H241320   2.788   2.181   8.589  0.0603 -0.7542 -0.7524
 5709TIP3   OH241321   6.971   7.890   9.405  0.2414 -0.6789 -1.2785
 5709TIP3    H141322   7.001   7.930   9.323  1.9298 -2.3033 -1.5222
 5709TIP3    H241323   7.050   7.884   9.459 -0.5179 -1.1661 -0.1858
 5710TIP3   OH241324   5.590   7.661   8.582 -0.2097  0.2054  0.1260
 5710TIP3    H141325   5.649   7.613   8.525 -1.1014 -1.8541  0.8443
 5710TIP3    H241326   5.503   7.646   8.545 -0.6662 -0.1304  1.2846
 5711TIP3   OH241327   0.795   5.482   7.719  0.0733  0.2852  0.0209
 5711TIP3    H141328   0.760   5.483   7.808 -0.5110 -0.8086 -0.1870
 5711TIP3    H241329   0.776   5.570   7.684 -0.3608  0.4679  0.7110
 5712TIP3   OH241330   8.354   4.589   8.768  0.1512 -0.2872  0.3480
 5712TIP3    H141331   8.440   4.627   8.787  0.6462 -1.2268  0.0997
 5712TIP3    H241332   8.324   4.634   8.690  0.5400 -0.1265  0.2870
 5713TIP3   OH241333   6.874   2.370   8.092 -0.5537  0.6975 -0.2229
 5713TIP3    H141334   6.911   2.337   8.010 -2.6892 -0.0722 -0.9645
 5713TIP3    H241335   6.817   2.300   8.122 -0.9652  1.5765  1.1286
 5714TIP3   OH241336   0.850   2.194   8.391  0.1505  0.1505 -0.2730
 5714TIP3    H141337   0.837   2.288   8.404 -0.2434  0.1406 -0.6075
 5714TIP3    H241338   0.764   2.160   8.366 -0.5558 -0.8483  2.9912
 5715TIP3   OH241339   8.120   2.237   7.688 -0.3775 -0.0366  0.0615
 5715TIP3    H141340   8.075   2.290   7.622 -0.7497 -1.2956 -0.7195
 5715TIP3    H241341   8.165   2.301   7.743 -2.0570  1.1808  0.0740
 5716TIP3   OH241342   6.949   2.838   7.605 -0.3664 -0.3296  0.0835
 5716TIP3    H141343   6.878   2.803   7.658 -0.1865 -0.5025  0.2136
 5716TIP3    H241344   6.970   2.768   7.543 -0.3895 -0.2339 -0.0338
 5717TIP3   OH241345   5.662   1.409   9.609 -0.6852 -0.0779  0.3020
 5717TIP3    H141346   5.706   1.492   9.592 -1.1507 -0.1153 -1.2810
 5717TIP3    H241347   5.734   1.347   9.625 -0.1388 -0.0081 -1.6351
 5718TIP3   OH241348   7.969   7.334   9.983 -0.2219  0.1535  0.2201
 5718TIP3    H141349   7.988   7.428   9.991 -0.6704  0.2466  0.1845
 5718TIP3    H241350   7.945   7.307  10.071 -1.1665  0.3105  0.0213
 5719TIP3   OH241351   6.828   2.072   9.773 -0.1190  0.0872 -0.2120
 5719TIP3    H141352   6.774   2.085   9.851 -0.5697  1.9249 -0.7830
 5719TIP3    H241353   6.885   1.998   9.795 -2.5226 -1.6682  0.5970
 5720TIP3   OH241354   4.581   3.322   9.647  0.0151 -0.4847  0.0504
 5720TIP3    H141355   4.497   3.339   9.689 -0.3851 -1.8528 -0.1424
 5720TIP3    H241356   4.583   3.227   9.635  0.9432 -0.3179 -1.3194
 5721TIP3   OH241357   8.216   4.659   7.714  0.6600  0.1395  0.0874
 5721TIP3    H141358   8.254   4.579   7.750  1.5498  0.4667 -0.1218
 5721TIP3    H241359   8.285   4.698   7.661  0.0293  0.7285 -0.3189
 5722TIP3   OH241360   6.457   3.893   8.152 -0.0946 -0.4772 -0.1855
 5722TIP3    H141361   6.527   3.834   8.123 -0.6654 -1.5851  0.5869
 5722TIP3    H241362   6.428   3.937   8.072 -0.2204 -1.8849 -0.9431
 5723TIP3   OH241363   0.143   4.661   8.925 -0.2153  0.0645 -0.0349
 5723TIP3    H141364   0.235   4.651   8.902  0.3742 -0.5998  2.3623
 5723TIP3    H241365   0.128   4.756   8.923  0.5476  0.1850 -0.2953
 5724TIP3   OH241366   3.225   8.003   9.933  0.6343 -0.3728 -0.1325
 5724TIP3    H141367   3.320   8.007   9.923  0.6495 -2.5290 -1.5262
 5724TIP3    H241368   3.191   8.004   9.844 -0.5664 -0.9680  0.2955
 5725TIP3   OH241369   2.650   3.649   9.513  0.2104  0.3174 -0.0462
 5725TIP3    H141370   2.716   3.713   9.539  0.0628  0.1758  0.7010
 5725TIP3    H241371   2.684   3.565   9.544  0.3006  0.0522 -0.8297
 5726TIP3   OH241372   0.472   2.272   8.692 -0.7391  0.3276 -0.0636
 5726TIP3    H141373   0.428   2.357   8.686  1.1643  1.3267 -0.5473
 5726TIP3    H241374   0.558   2.287   8.654  0.0635 -1.5410  0.9084
 5727TIP3   OH241375   1.696   1.766   8.644 -0.0173 -0.2651 -0.3130
 5727TIP3    H141376   1.618   1.780   8.589  0.2318 -0.9580 -0.8643
 5727TIP3    H241377   1.759   1.724   8.585  1.3781  1.7502 -0.3363
 5728TIP3   OH241378   1.255   6.262   9.461 -0.1046 -0.0064 -0.6275
 5728TIP3    H141379   1.309   6.286   9.536  0.4651  1.0906 -1.3613
 5728TIP3    H241380   1.317   6.234   9.394 -0.2419  2.5974 -1.9733
 5729TIP3   OH241381   0.958   4.508   8.612 -0.0205  0.4362 -0.2840
 5729TIP3    H141382   1.049   4.529   8.630  0.3912 -1.0030 -0.5499
 5729TIP3    H241383   0.944   4.534   8.521  1.0829 -2.1831 -1.2857
 5730TIP3   OH241384   4.047   3.758   8.388 -0.2778 -0.1761  0.0627
 5730TIP3    H141385   4.097   3.692   8.437 -0.2607 -0.0094  0.2706
 5730TIP3    H241386   3.972   3.710   8.353  0.1494 -0.4808 -0.4510
 5731TIP3   OH241387   4.407   6.617   9.262  0.3932 -0.7998 -0.6827
 5731TIP3    H141388   4.486   6.564   9.257  1.4646  0.7413 -0.6459
 5731TIP3    H241389   4.434   6.697   9.308 -0.7391  0.5123 -2.1984
 5732TIP3   OH241390   3.325   3.233   9.072  0.2772  0.2825 -0.0331
 5732TIP3    H141391   3.280   3.312   9.044  0.0464  0.2725  0.3090
 5732TIP3    H241392   3.416   3.246   9.045  0.6212  1.4261  1.5589
 5733TIP3   OH241393   7.020   1.709   8.134  0.4258  0.2346 -0.7984
 5733TIP3    H141394   6.946   1.660   8.098  0.8139 -0.4395 -0.7014
 5733TIP3    H241395   7.028   1.677   8.224  1.3372 -0.2963 -1.0586
 5734TIP3   OH241396   1.102   5.422   7.708 -0.3062 -0.4182 -0.2422
 5734TIP3    H141397   1.111   5.370   7.629  1.7619 -0.7545  0.1525
 5734TIP3    H241398   1.023   5.475   7.694 -0.8875 -1.6300 -1.8086
 5735TIP3   OH241399   2.178   2.289   7.739 -0.6719  0.2082 -0.0981
 5735TIP3    H141400   2.121   2.212   7.739  0.3915 -0.6085 -0.1501
 5735TIP3    H241401   2.163   2.330   7.825 -0.5869 -0.5790  0.3018
 5736TIP3   OH241402   2.358   4.321   7.978  0.0692 -0.5204  0.6837
 5736TIP3    H141403   2.262   4.326   7.981  0.0977  0.1163  3.0731
 5736TIP3    H241404   2.386   4.411   7.960  0.2001 -0.5132  0.9085
 5737TIP3   OH241405   0.262   7.853   8.160  0.0112  0.1225  0.0148
 5737TIP3    H141406   0.345   7.855   8.207 -0.3474 -1.4538  0.7638
 5737TIP3    H241407   0.229   7.943   8.166  0.4676  0.1971  1.8661
 5738TIP3   OH241408   0.449   0.606   9.084 -0.1090  0.4315 -0.2097
 5738TIP3    H141409   0.453   0.674   9.016  1.0894  0.5460 -0.0453
 5738TIP3    H241410   0.421   0.653   9.163 -2.1155  0.1910 -0.7143
 5739TIP3   OH241411   6.952   2.346   9.758 -0.6515  0.2942 -0.1484
 5739TIP3    H141412   6.942   2.256   9.726 -0.2782  0.3387 -0.3955
 5739TIP3    H241413   7.041   2.350   9.793 -0.3393  0.8192 -0.9703
 5740TIP3   OH241414   5.290   6.772   8.057 -0.3487 -0.4494 -0.6944
 5740TIP3    H141415   5.355   6.713   8.019 -0.2182 -0.9053  0.2174
 5740TIP3    H241416   5.279   6.841   7.991  0.4447 -0.8046 -1.2154
 5741TIP3   OH241417   0.840   1.399   9.634 -0.5091 -0.1100 -0.2620
 5741TIP3    H141418   0.905   1.353   9.687 -0.0627  0.7102 -0.0910
 5741TIP3    H241419   0.847   1.490   9.660 -1.9632 -0.0371  0.0040
 5742TIP3   OH241420   1.437   6.418   8.453  0.1682 -0.0305  0.1505
 5742TIP3    H141421   1.510   6.450   8.401  0.7758  0.7279  1.4257
 5742TIP3    H241422   1.396   6.497   8.489  0.2620 -0.5611  1.4641
 5743TIP3   OH241423   1.056   7.867  13.760 -0.3836 -0.0016 -0.2398
 5743TIP3    H141424   1.109   7.852  13.839 -1.0232 -0.9922  0.0189
 5743TIP3    H241425   0.975   7.908  13.793 -1.2193 -1.6298 -0.1923
 5744TIP3   OH241426   5.225   6.730   8.339  0.3384  0.2940 -0.0640
 5744TIP3    H141427   5.287   6.726   8.266  0.0137  0.5501 -0.3576
 5744TIP3    H241428   5.159   6.664   8.318 -1.0788  1.9753 -1.2499
 5745TIP3   OH241429   1.711   0.463   8.559 -0.7521  0.6819 -0.3852
 5745TIP3    H141430   1.793   0.421   8.585 -0.5946  0.9243 -0.4856
 5745TIP3    H241431   1.662   0.473   8.641 -0.3497  1.2442 -0.2034
 5746TIP3   OH241432   1.723   3.208   8.819 -0.7163  0.3938  0.1092
 5746TIP3    H141433   1.809   3.180   8.850 -0.3787 -0.7700 -1.6941
 5746TIP3    H241434   1.742   3.281   8.759 -1.1074  0.8905  0.5822
 5747TIP3   OH241435   1.980   0.911   9.311 -0.6615  0.0969 -0.5354
 5747TIP3    H141436   2.058   0.892   9.363 -1.5435  0.7612  1.1089
 5747TIP3    H241437   1.954   1.000   9.337 -1.7932  0.0060 -1.2607
 5748TIP3   OH241438   5.417   7.028   7.931 -0.5554  0.3995  0.6681
 5748TIP3    H141439   5.379   7.029   8.019 -0.1487  2.8657  0.9166
 5748TIP3    H241440   5.368   7.095   7.883 -1.3934 -1.5407 -1.3169
 5749TIP3   OH241441   7.400   5.726   9.015 -0.2524  0.0845 -0.6344
 5749TIP3    H141442   7.430   5.708   9.105 -1.0672 -0.3359 -0.4357
 5749TIP3    H241443   7.417   5.820   9.003  0.2462  0.0583 -0.1899
 5750TIP3   OH241444   4.023   3.105   8.922 -0.0574 -0.0458  0.6342
 5750TIP3    H141445   3.962   3.171   8.889 -0.5673 -0.1262  1.4082
 5750TIP3    H241446   4.102   3.155   8.944 -1.0193  0.6439  2.8568
 5751TIP3   OH241447   8.324   3.818   8.509 -0.1466  0.4177  0.0254
 5751TIP3    H141448   8.235   3.784   8.514 -0.8638  2.2995  1.4199
 5751TIP3    H241449   8.346   3.839   8.600  1.3582  0.8944 -0.4246
 5752TIP3   OH241450   3.900   1.580   9.762 -0.6345  0.3870  0.5009
 5752TIP3    H141451   3.926   1.513   9.824  0.8187 -0.1065 -0.5953
 5752TIP3    H241452   3.811   1.556   9.737 -0.2271 -0.9972  0.3095
 5753TIP3   OH241453   5.949   5.125   9.826 -0.1514 -0.8724  0.2838
 5753TIP3    H141454   5.996   5.090   9.749 -1.7422  2.6421 -2.5668
 5753TIP3    H241455   5.858   5.102   9.811 -0.6546  0.8994  0.4105
 5754TIP3   OH241456   3.118   3.859   8.614 -0.7471 -0.8242 -0.1733
 5754TIP3    H141457   3.170   3.834   8.537 -0.7540  0.9614 -0.8024
 5754TIP3    H241458   3.106   3.777   8.662  1.0376 -1.6304 -0.9877
 5755TIP3   OH241459   0.923   3.523   8.263  0.3350  0.1518  0.7604
 5755TIP3    H141460   1.004   3.528   8.213 -0.8000  0.7700 -1.1299
 5755TIP3    H241461   0.879   3.444   8.230 -0.0392  0.0453  1.4705
 5756TIP3   OH241462   3.251   5.147   7.595 -0.4199 -0.3165  0.2216
 5756TIP3    H141463   3.205   5.219   7.552 -0.3844 -0.3663  0.0983
 5756TIP3    H241464   3.273   5.181   7.682  2.2830  0.9615 -0.8433
 5757TIP3   OH241465   1.404   4.763   7.778 -0.1125  0.4858 -0.1570
 5757TIP3    H141466   1.491   4.726   7.764 -0.0630  0.6421 -0.2512
 5757TIP3    H241467   1.344   4.692   7.753 -0.0218  0.6019 -0.6992
 5758TIP3   OH241468   6.593   0.836   9.257  0.4345 -0.1351  0.4899
 5758TIP3    H141469   6.554   0.914   9.295  2.8852  0.5292  1.7676
 5758TIP3    H241470   6.530   0.766   9.276 -1.6858  1.4102 -0.4814
 5759TIP3   OH241471   1.556   4.176   7.308  0.1554 -0.3322 -0.3225
 5759TIP3    H141472   1.477   4.178   7.362  0.0815 -0.8271 -0.4072
 5759TIP3    H241473   1.552   4.091   7.263 -0.2684  0.4436 -1.8212
 5760TIP3   OH241474   5.569   1.127   8.988 -0.0660  0.2433  0.5513
 5760TIP3    H141475   5.594   1.218   8.975  0.7376 -0.0389  0.0232
 5760TIP3    H241476   5.530   1.124   9.075 -1.9570  1.4668 -0.1776
 5761TIP3   OH241477   3.552   3.636   8.237  0.0174 -0.2098 -0.4238
 5761TIP3    H141478   3.614   3.623   8.166 -0.8464 -0.9213 -1.0641
 5761TIP3    H241479   3.574   3.723   8.272  0.1343  0.3699 -1.8763
 5762TIP3   OH241480   7.368   6.702   8.880  0.1196 -0.5179 -0.7260
 5762TIP3    H141481   7.388   6.733   8.792  1.7464 -1.7549 -0.8356
 5762TIP3    H241482   7.318   6.622   8.867  0.5298 -0.8058 -0.5289
 5763TIP3   OH241483   2.176   4.799   8.673  0.0047 -0.1275 -0.4886
 5763TIP3    H141484   2.183   4.705   8.690 -0.1514 -0.1533 -0.5635
 5763TIP3    H241485   2.093   4.825   8.713  0.1063  0.0038 -0.3599
 5764TIP3   OH241486   6.325   7.148  10.417  0.3884  0.4301  0.4072
 5764TIP3    H141487   6.364   7.074  10.463 -1.9923  0.6018  3.0285
 5764TIP3    H241488   6.244   7.113  10.379 -0.7094  1.5600  1.5820
 5765TIP3   OH241489   5.733   4.561   8.502 -0.3418  0.2294  0.4933
 5765TIP3    H141490   5.735   4.466   8.487  0.4045  0.2098  0.6688
 5765TIP3    H241491   5.654   4.590   8.459 -0.4500 -0.4428  0.2180
 5766TIP3   OH241492   0.266   2.781   7.977  0.5908  0.6629 -0.4651
 5766TIP3    H141493   0.299   2.809   8.062  1.5947 -2.4014  0.3148
 5766TIP3    H241494   0.173   2.766   7.990  0.8818 -0.5545  0.3925
 5767TIP3   OH241495   0.883   0.620   9.233 -0.0937 -0.1712  0.0382
 5767TIP3    H141496   0.845   0.615   9.320  0.6876  1.0477  0.4736
 5767TIP3    H241497   0.860   0.707   9.201  0.7484 -0.1022 -0.4302
 5768TIP3   OH241498   3.196   2.175   8.595  0.0808  0.2723  0.4374
 5768TIP3    H141499   3.191   2.270   8.596 -0.6930  0.3964 -2.9548
 5768TIP3    H241500   3.258   2.153   8.665 -0.4525  3.1313  1.9644
 5769TIP3   OH241501   5.130   4.853   8.551 -0.4025 -0.6895  0.2469
 5769TIP3    H141502   5.198   4.815   8.495 -1.5988 -0.9797 -1.0690
 5769TIP3    H241503   5.115   4.940   8.515  0.5848  0.1345  1.7248
 5770TIP3   OH241504   7.061   0.409   9.981 -0.0830 -0.2176 -0.5328
 5770TIP3    H141505   7.024   0.323   9.958  1.2033 -1.2015  0.8603
 5770TIP3    H241506   7.147   0.409   9.939  0.0778  0.2250 -0.2056
 5771TIP3   OH241507   5.215   6.512   8.732  0.1472  0.1096  0.2743
 5771TIP3    H141508   5.240   6.517   8.640  2.2755  0.2957  0.8083
 5771TIP3    H241509   5.225   6.420   8.755 -0.4912  0.0435  0.3017
 5772TIP3   OH241510   5.467   1.169   9.253  0.0972  0.2217 -0.6216
 5772TIP3    H141511   5.397   1.226   9.285 -1.1367 -2.2916  1.4470
 5772TIP3    H241512   5.486   1.110   9.325  4.3508  0.6484 -1.1262
 5773TIP3   OH241513   2.295   2.065   8.346  0.0633  0.0593  0.0997
 5773TIP3    H141514   2.380   2.092   8.309 -0.5967  0.3154 -1.3151
 5773TIP3    H241515   2.273   1.985   8.299 -1.0333  0.6545 -0.4197
 5774TIP3   OH241516   5.602   7.273   8.501  0.5208 -0.7146  0.4452
 5774TIP3    H141517   5.648   7.351   8.469  0.0055 -0.3027  0.6809
 5774TIP3    H241518   5.624   7.204   8.438 -1.7848  0.4514 -1.8503
 5775TIP3   OH241519   6.437   7.332  10.196 -0.3362  0.0168  0.0091
 5775TIP3    H141520   6.511   7.299  10.145  0.0909  2.0599 -0.8010
 5775TIP3    H241521   6.400   7.255  10.239  1.4682 -1.2348 -0.5988
 5776TIP3   OH241522   5.593   7.395   9.064  0.1199  0.3486  0.0715
 5776TIP3    H141523   5.647   7.370   8.989  0.0326 -0.5286  0.2895
 5776TIP3    H241524   5.616   7.333   9.133 -0.1788  0.8200  0.6082
 5777TIP3   OH241525   5.244   4.378   9.896 -0.4297  0.4912 -0.1393
 5777TIP3    H141526   5.214   4.433   9.969 -0.6336  0.3497 -0.1150
 5777TIP3    H241527   5.296   4.309   9.939 -2.4165 -0.9304  0.1372
 5778TIP3   OH241528   8.208   1.960   7.700 -0.5526 -1.1729 -0.1293
 5778TIP3    H141529   8.185   2.053   7.706 -0.3011 -1.1258  0.1141
 5778TIP3    H241530   8.302   1.957   7.718 -0.7513 -1.5850  0.9244
 5779TIP3   OH241531   0.076   0.010   9.371  0.1439  0.0910  0.1703
 5779TIP3    H141532   0.093   0.061   9.292 -1.6229  1.8267  0.8227
 5779TIP3    H241533   0.146  -0.055   9.373  2.0320  1.9373 -1.1779
 5780TIP3   OH241534   6.380   6.406  10.337 -0.4515 -0.2368 -0.2827
 5780TIP3    H141535   6.434   6.429  10.412 -0.9124 -0.8740  0.2566
 5780TIP3    H241536   6.290   6.409  10.370 -0.8987  1.9552 -1.4445
 5781TIP3   OH241537   1.346   2.241   8.007 -0.4425 -0.3543  0.5453
 5781TIP3    H141538   1.332   2.159   7.959 -0.2997 -0.6138  0.9434
 5781TIP3    H241539   1.260   2.262   8.042 -0.4711 -0.3535  0.4756
 5782TIP3   OH241540   7.336   3.027   8.706  0.1421  0.1952  0.1549
 5782TIP3    H141541   7.346   3.072   8.622  0.5393  1.5935  0.9229
 5782TIP3    H241542   7.423   3.033   8.747 -0.3790  0.7440  1.2326
 5783TIP3   OH241543   6.630   6.585   8.161  0.0660 -0.0031 -0.0597
 5783TIP3    H141544   6.668   6.672   8.145  0.0073  0.1712  0.7358
 5783TIP3    H241545   6.540   6.603   8.189  0.6100 -0.1969  1.9721
 5784TIP3   OH241546   5.551   0.790   8.133 -0.4814  0.0961 -0.1076
 5784TIP3    H141547   5.546   0.824   8.222  1.2417 -0.1907  0.1438
 5784TIP3    H241548   5.566   0.867   8.078  0.0538  0.1107  0.0538
 5785TIP3   OH241549   6.126   0.946   8.778 -0.3879 -0.4892  0.2032
 5785TIP3    H141550   6.219   0.960   8.760 -0.5530  0.2850 -0.0763
 5785TIP3    H241551   6.082   1.020   8.736 -1.0998 -0.6395  0.6711
 5786TIP3   OH241552   2.916   0.588   8.844  0.0638 -0.3583 -0.0191
 5786TIP3    H141553   2.900   0.599   8.750  0.1164  0.0619  0.0209
 5786TIP3    H241554   2.902   0.495   8.859  2.2552 -0.8783 -0.8622
 5787TIP3   OH241555   6.618   2.121   8.545 -0.0714  0.2146 -0.1512
 5787TIP3    H141556   6.675   2.196   8.528 -1.3574  1.6316  1.4014
 5787TIP3    H241557   6.678   2.050   8.567  1.1444  1.1290 -0.3978
 5788TIP3   OH241558   3.195   1.486   8.731 -0.0185 -0.9647 -0.3552
 5788TIP3    H141559   3.127   1.551   8.709 -1.1238 -1.9874 -0.0821
 5788TIP3    H241560   3.194   1.426   8.657  0.9480 -0.7233 -0.5695
 5789TIP3   OH241561   7.280   2.904   8.114  0.0349 -0.7602  0.0187
 5789TIP3    H141562   7.226   2.861   8.048 -0.2749  0.6161 -0.6603
 5789TIP3    H241563   7.323   2.832   8.161 -3.1050 -2.0074  1.2591
 5790TIP3   OH241564   4.913   6.808  10.021 -0.2843  0.2895  1.1910
 5790TIP3    H141565   4.846   6.754  10.063 -1.2600  0.2933 -0.2856
 5790TIP3    H241566   4.864   6.882   9.985  0.1923 -0.5517 -1.4122
 5791TIP3   OH241567   1.456   4.070   9.468  0.2039  0.2376 -0.0199
 5791TIP3    H141568   1.363   4.055   9.450  0.4462 -1.2747 -0.1932
 5791TIP3    H241569   1.492   3.982   9.480  1.4857  0.8315  0.7215
 5792TIP3   OH241570   0.295   4.398   9.378  0.3689  0.3622 -0.0132
 5792TIP3    H141571   0.351   4.410   9.455 -1.8987  0.7787  1.6511
 5792TIP3    H241572   0.244   4.319   9.397 -1.0352  1.1108 -0.5399
 5793TIP3   OH241573   7.680   5.931   7.804 -0.2748  0.2182  0.4621
 5793TIP3    H141574   7.772   5.924   7.831 -0.1229  1.8807  0.4937
 5793TIP3    H241575   7.663   5.851   7.755  1.0735 -0.3149  0.8223
 5794TIP3   OH241576   7.862   3.370   8.101  0.7766  0.0986  0.1041
 5794TIP3    H141577   7.844   3.464   8.102 -0.9784 -0.2114  0.3042
 5794TIP3    H241578   7.829   3.338   8.185 -0.6148 -1.0220 -0.8248
 5795TIP3   OH241579   7.790   5.593   8.136  0.2801 -0.5601 -0.4950
 5795TIP3    H141580   7.735   5.522   8.171 -1.1925  0.8501  0.1810
 5795TIP3    H241581   7.861   5.548   8.091  0.8177 -2.4816  2.0514
 5796TIP3   OH241582   3.357   2.748   8.171 -0.2759  0.0322  0.1300
 5796TIP3    H141583   3.415   2.745   8.247  0.5199  0.4817 -0.4479
 5796TIP3    H241584   3.415   2.749   8.096 -0.8563  3.1429 -0.4419
 5797TIP3   OH241585   1.846   4.445   9.535 -0.5649  0.1122  0.0831
 5797TIP3    H141586   1.768   4.491   9.565  0.6590  1.6876  1.0152
 5797TIP3    H241587   1.838   4.358   9.572 -2.6742 -0.3452 -1.2534
 5798TIP3   OH241588   4.574   7.600   8.597  0.6419 -0.2464  0.1424
 5798TIP3    H141589   4.664   7.608   8.566  0.3562 -2.2402 -1.4204
 5798TIP3    H241590   4.581   7.555   8.681  1.1167  0.1533  0.3245
 5799TIP3   OH241591   3.805   1.142   8.638  0.1402 -0.1505 -0.0805
 5799TIP3    H141592   3.846   1.213   8.588 -0.1067  0.6278  0.8024
 5799TIP3    H241593   3.799   1.175   8.728  0.0113 -1.2850  0.3541
 5800TIP3   OH241594   5.784   0.927   8.510 -0.4724 -0.1528 -0.3699
 5800TIP3    H141595   5.831   0.849   8.539  1.8808  0.9511 -0.9975
 5800TIP3    H241596   5.758   0.972   8.591  0.3904 -0.3253  0.0127
 5801TIP3   OH241597   6.787   5.114   9.501 -0.5601 -0.2779 -0.1560
 5801TIP3    H141598   6.864   5.123   9.446 -0.0174 -1.8602  0.3003
 5801TIP3    H241599   6.713   5.132   9.443  0.0732 -0.2796 -0.9703
 5802TIP3   OH241600   1.238   2.460   8.743 -0.2848 -0.0414  0.4363
 5802TIP3    H141601   1.294   2.384   8.756 -1.0166 -0.2543  2.9337
 5802TIP3    H241602   1.162   2.426   8.695  1.0224 -0.0256 -1.7650
 5803TIP3   OH241603   3.432   4.409   9.122  0.1774 -0.3879 -0.5061
 5803TIP3    H141604   3.451   4.330   9.071  1.5452 -1.1185  1.0696
 5803TIP3    H241605   3.451   4.385   9.212 -1.5659  1.0816  0.3066
 5804TIP3   OH241606   0.410   0.668   9.717 -0.2136 -0.2069 -0.7133
 5804TIP3    H141607   0.466   0.634   9.788 -1.4331 -1.8607 -0.4699
 5804TIP3    H241608   0.448   0.753   9.695  0.9701 -0.2123  1.0536
 5805TIP3   OH241609   3.736   6.428   8.112  0.3815  0.1460 -0.0830
 5805TIP3    H141610   3.720   6.333   8.110  0.8754 -0.0163  1.6205
 5805TIP3    H241611   3.831   6.435   8.125  0.4906  0.9119 -1.1793
 5806TIP3   OH241612   6.228   6.585   9.145 -0.4083 -0.7396  0.5351
 5806TIP3    H141613   6.303   6.615   9.094  1.5610  0.8358  3.9658
 5806TIP3    H241614   6.245   6.492   9.160  1.0622 -0.3692  1.4228
 5807TIP3   OH241615   3.001   2.274   7.737  0.0968  0.2130 -0.3954
 5807TIP3    H141616   2.962   2.186   7.740 -1.3180  0.7548 -1.7249
 5807TIP3    H241617   3.094   2.258   7.720 -0.3286 -1.0154 -1.7729
 5808TIP3   OH241618   1.290   0.142   9.440 -0.2547 -0.3628  0.0377
 5808TIP3    H141619   1.196   0.162   9.444 -0.2125 -0.3127  2.5196
 5808TIP3    H241620   1.332   0.212   9.490  0.9308 -1.1732  0.2275
 5809TIP3   OH241621   1.172   6.551   8.363  0.3194 -0.1391 -0.3921
 5809TIP3    H141622   1.155   6.489   8.434  0.5944  0.0316 -0.1761
 5809TIP3    H241623   1.184   6.496   8.286 -1.7358 -0.2697 -0.6906
 5810TIP3   OH241624   4.504   2.303   9.248 -0.1558  0.1692  0.5568
 5810TIP3    H141625   4.473   2.392   9.266 -3.5484 -0.5382 -1.0357
 5810TIP3    H241626   4.449   2.247   9.303  0.7590 -1.0595  0.2660
 5811TIP3   OH241627   4.667   1.908   9.880 -0.4335 -0.5053 -0.5517
 5811TIP3    H141628   4.675   1.813   9.866  0.3957 -0.7154  0.9940
 5811TIP3    H241629   4.719   1.947   9.810  2.2635 -1.3929  0.7939
 5812TIP3   OH241630   2.088   6.868   8.252 -0.3857 -0.5753  0.5412
 5812TIP3    H141631   2.179   6.885   8.231 -0.1590 -2.7755 -0.5304
 5812TIP3    H241632   2.076   6.907   8.339  1.1103  1.0460  0.0915
 5813TIP3   OH241633   6.849   4.875   8.387 -0.5624  0.3489  0.0165
 5813TIP3    H141634   6.774   4.819   8.367  0.1842  0.2879 -3.1631
 5813TIP3    H241635   6.923   4.813   8.394 -0.2171  0.6854 -0.5896
 5814TIP3   OH241636   5.203   5.329   8.515 -0.0678 -0.0439  0.4244
 5814TIP3    H141637   5.130   5.392   8.516 -0.0043  0.0338  0.1290
 5814TIP3    H241638   5.280   5.382   8.535  0.2973  0.3706 -1.8471
 5815TIP3   OH241639   4.458   8.015   9.046  1.2754 -0.2195  0.2441
 5815TIP3    H141640   4.462   8.056   9.132  0.4441  0.1541  0.1169
 5815TIP3    H241641   4.544   8.032   9.007  1.0345  1.2479  0.2774
 5816TIP3   OH241642   0.872   3.937   9.886 -0.2623 -0.4168  0.5754
 5816TIP3    H141643   0.851   3.860   9.940 -0.3640  0.2153  1.4449
 5816TIP3    H241644   0.869   4.011   9.947  1.0612  0.1346  0.0108
 5817TIP3   OH241645   6.276   6.871  10.102  0.1609  0.2409  0.0047
 5817TIP3    H141646   6.343   6.867  10.034  0.6471  0.8389  0.4319
 5817TIP3    H241647   6.194   6.887  10.055  0.1075 -1.7070 -0.6254
 5818TIP3   OH241648   2.493   1.647   7.882 -0.3344  1.1433  0.1335
 5818TIP3    H141649   2.416   1.595   7.905 -0.6933  1.7939  0.4266
 5818TIP3    H241650   2.477   1.732   7.923  0.6467  1.2128  0.3810
 5819TIP3   OH241651   7.262   2.146   8.028 -0.2047  0.2818  0.2855
 5819TIP3    H141652   7.175   2.114   8.051 -1.0824  1.6975 -0.8938
 5819TIP3    H241653   7.303   2.166   8.111 -0.5944 -1.3403  0.9159
 5820TIP3   OH241654   5.138   0.894   8.958  0.0550 -0.2906  0.1893
 5820TIP3    H141655   5.084   0.969   8.983  1.6855  1.4438 -1.1254
 5820TIP3    H241656   5.224   0.913   8.997  0.8049 -0.8801 -1.1135
 5821TIP3   OH241657   0.135   1.166  10.203  0.2677 -0.8720 -1.2922
 5821TIP3    H141658   0.074   1.116  10.148  1.8245 -1.6818 -2.3648
 5821TIP3    H241659   0.086   1.184  10.283 -2.9572  2.3744 -3.7024
 5822TIP3   OH241660   6.825   2.110   7.878  0.7813  0.1038 -0.0790
 5822TIP3    H141661   6.777   2.031   7.852 -0.3736  0.8397 -0.2707
 5822TIP3    H241662   6.763   2.159   7.931  2.0816  0.0714  1.5499
 5823TIP3   OH241663   1.560   8.232   9.170 -0.6503 -0.5201  0.0173
 5823TIP3    H141664   1.549   8.188   9.086 -0.6893  0.1668 -0.3433
 5823TIP3    H241665   1.472   8.257   9.196 -0.4400  1.1093 -0.7551
 5824TIP3   OH241666   2.887   4.593   8.825 -0.0341  0.3184  0.1395
 5824TIP3    H141667   2.821   4.552   8.770 -1.7492  1.2010  1.4451
 5824TIP3    H241668   2.847   4.598   8.912  2.4620 -0.7813  1.4644
 5825TIP3   OH241669   5.434   8.357   7.991  0.2141  0.3911 -0.2197
 5825TIP3    H141670   5.381   8.424   8.034  1.4771  1.1595  0.1860
 5825TIP3    H241671   5.524   8.375   8.019  0.5707 -1.6327  0.0990
 5826TIP3   OH241672   0.797   3.730   7.611  0.4762  0.4412 -0.0044
 5826TIP3    H141673   0.793   3.792   7.538 -1.7661  0.0635 -0.2624
 5826TIP3    H241674   0.777   3.645   7.572 -0.5222  0.2019  0.9884
 5827TIP3   OH241675   2.222   7.686   8.316 -0.2290 -0.0701  0.0570
 5827TIP3    H141676   2.166   7.699   8.240  0.5213  0.1634 -0.4611
 5827TIP3    H241677   2.201   7.759   8.374  1.3428  1.5169 -1.2479
 5828TIP3   OH241678   8.239   2.788   9.426  0.4094  0.4761  0.1618
 5828TIP3    H141679   8.327   2.790   9.389  0.2635  0.5544 -0.1876
 5828TIP3    H241680   8.182   2.768   9.351  0.1888 -0.1729  0.4940
 5829TIP3   OH241681   7.933   6.189   8.713 -0.3970 -0.1202  0.5261
 5829TIP3    H141682   7.922   6.094   8.713 -0.1795 -0.2029 -1.5346
 5829TIP3    H241683   8.019   6.203   8.673 -0.7009  0.9530  0.2204
 5830TIP3   OH241684   4.220   2.557   8.783  0.2917 -0.1299  0.0228
 5830TIP3    H141685   4.132   2.582   8.755  0.5899  0.7605 -0.1467
 5830TIP3    H241686   4.272   2.559   8.703  0.3835 -1.0529  0.0549
 5831TIP3   OH241687   0.828   6.679   8.177 -0.0976  0.0288 -0.3022
 5831TIP3    H141688   0.787   6.748   8.125  0.8862  0.3691 -0.6657
 5831TIP3    H241689   0.880   6.629   8.113  1.2590  0.5520  0.3592
 5832TIP3   OH241690   8.004   8.040   8.603 -0.0038  0.0704 -0.0729
 5832TIP3    H141691   8.033   7.959   8.646 -3.3229 -0.0118  2.3730
 5832TIP3    H241692   7.919   8.018   8.565  0.0677  1.8634 -1.4046
 5833TIP3   OH241693   6.418   1.826   8.615 -0.3061 -0.0502 -0.1889
 5833TIP3    H141694   6.428   1.740   8.656  0.5477 -0.1057 -0.4870
 5833TIP3    H241695   6.508   1.855   8.599 -0.3892  2.2868  2.7113
 5834TIP3   OH241696   3.694   1.430   8.775 -0.7303  0.2454 -0.5537
 5834TIP3    H141697   3.754   1.504   8.775 -0.0627 -0.2712 -1.3689
 5834TIP3    H241698   3.612   1.465   8.740 -0.9793  0.9967  0.7334
 5835TIP3   OH241699   8.195   0.628   8.027 -0.4273 -0.5030  0.1664
 5835TIP3    H141700   8.243   0.679   7.962  1.5186 -0.5334  1.4965
 5835TIP3    H241701   8.176   0.545   7.982  1.3739 -0.7461 -0.2424
 5836TIP3   OH241702   2.716   4.636   9.568  0.2894  0.3834  0.7458
 5836TIP3    H141703   2.792   4.584   9.595 -0.0850  0.0641  1.1828
 5836TIP3    H241704   2.740   4.669   9.481 -0.0346 -1.6608 -0.1548
 5837TIP3   OH241705   0.182   7.413   8.897 -0.2301  0.0803 -0.5369
 5837TIP3    H141706   0.104   7.402   8.843 -0.2042  0.8402 -0.7488
 5837TIP3    H241707   0.177   7.504   8.928 -1.0282 -0.7446  2.0141
 5838TIP3   OH241708   1.400   1.397   9.871 -0.2018 -0.0756  0.2338
 5838TIP3    H141709   1.384   1.303   9.859 -1.9574  0.0708  1.1373
 5838TIP3    H241710   1.458   1.420   9.799 -0.5075 -1.6640 -0.5779
 5839TIP3   OH241711   3.408   3.131   8.179  0.6580 -0.2014 -0.2188
 5839TIP3    H141712   3.367   3.214   8.203 -0.8040 -1.2722  1.1526
 5839TIP3    H241713   3.499   3.155   8.159  0.6003  1.5540  1.3322
 5840TIP3   OH241714   1.849   8.256   9.164  0.2517  0.1669  0.3145
 5840TIP3    H141715   1.761   8.242   9.196 -0.2475  0.0830 -1.0059
 5840TIP3    H241716   1.860   8.351   9.162  0.2592  0.1715  0.6655
 5841TIP3   OH241717   1.328   8.152   8.487 -0.3474 -0.3791  0.8427
 5841TIP3    H141718   1.361   8.238   8.457  0.5429 -0.6376  1.0497
 5841TIP3    H241719   1.328   8.098   8.408  1.4397 -0.8889  1.1537
 5842TIP3   OH241720   7.006   0.920   9.234 -0.7807 -0.1425 -0.0160
 5842TIP3    H141721   6.974   0.989   9.293  0.3063  0.1645  0.2371
 5842TIP3    H241722   6.927   0.879   9.200 -1.4433  0.2481  0.9963
 5843TIP3   OH241723   4.075   1.864   8.472 -0.2308 -0.6902 -0.1567
 5843TIP3    H141724   4.059   1.861   8.378 -0.5897 -0.1588 -0.1170
 5843TIP3    H241725   4.171   1.868   8.479 -0.2001 -0.7804 -0.4937
 5844TIP3   OH241726   6.521   5.383  10.143 -0.4070 -0.2595  0.1631
 5844TIP3    H141727   6.483   5.353  10.225 -0.5313  2.1447  1.0563
 5844TIP3    H241728   6.501   5.477  10.140  0.0387 -0.1730 -2.3693
 5845TIP3   OH241729   3.145   8.257   9.375  0.7186  0.6824 -0.0770
 5845TIP3    H141730   3.196   8.177   9.391 -0.4560 -0.1439 -0.3619
 5845TIP3    H241731   3.110   8.281   9.461  1.9637  1.5455  0.2174
 5846TIP3   OH241732   6.172   4.762   9.541  0.0606 -0.1562 -0.1446
 5846TIP3    H141733   6.114   4.781   9.615 -0.3808 -0.1445 -0.4859
 5846TIP3    H241734   6.260   4.766   9.577 -0.1715 -0.6530  0.4948
 5847TIP3   OH241735   5.975   1.910   9.381 -0.1930 -0.1026 -0.3279
 5847TIP3    H141736   5.927   1.945   9.306  1.2506 -0.8430 -1.6540
 5847TIP3    H241737   5.964   1.815   9.375  1.4011 -0.3045 -0.7106
 5848TIP3   OH241738   3.822   7.172   8.169 -0.1261  0.4956  0.0866
 5848TIP3    H141739   3.842   7.245   8.111  0.2160  0.5497  0.2717
 5848TIP3    H241740   3.903   7.122   8.174 -0.3724  0.0829 -0.0674
 5849TIP3   OH241741   1.195   6.170   8.625 -0.3036  0.4316  0.0634
 5849TIP3    H141742   1.205   6.090   8.676 -2.1262 -1.0884 -1.7731
 5849TIP3    H241743   1.250   6.155   8.548 -2.2994 -0.1016 -1.3447
 5850TIP3   OH241744   5.790   1.007   7.681  0.0395  0.2284  0.7857
 5850TIP3    H141745   5.741   1.057   7.616 -0.2273 -0.0277  0.7897
 5850TIP3    H241746   5.742   1.018   7.762 -0.5776 -0.8343  0.5803
 5851TIP3   OH241747   8.242   1.712   7.562 -0.4562 -0.1203 -0.0101
 5851TIP3    H141748   8.203   1.784   7.612 -0.4114 -0.0920 -0.0162
 5851TIP3    H241749   8.246   1.639   7.624  0.5983  0.2274  0.3510
 5852TIP3   OH241750   0.430   1.253   9.151  0.6321 -0.6485  0.0804
 5852TIP3    H141751   0.447   1.160   9.142 -0.5641 -0.8736 -0.0192
 5852TIP3    H241752   0.473   1.293   9.076  0.7830 -1.1729 -0.1131
 5853TIP3   OH241753   6.506   4.746   9.061 -0.1407 -0.7901  0.2643
 5853TIP3    H141754   6.579   4.687   9.078  0.0192 -1.0669 -1.2394
 5853TIP3    H241755   6.446   4.732   9.134  1.4615 -0.2541  1.7559
 5854TIP3   OH241756   6.806   0.709   9.344 -0.2578  0.2875  0.2433
 5854TIP3    H141757   6.823   0.734   9.435  0.8974  0.2119  0.0582
 5854TIP3    H241758   6.738   0.770   9.314  0.2201  1.0987  0.7812
 5855TIP3   OH241759   7.277   0.490  10.138  0.1414 -0.0917 -0.1755
 5855TIP3    H141760   7.203   0.547  10.114  0.5696  0.8599  0.6822
 5855TIP3    H241761   7.248   0.402  10.115 -2.5149 -0.1904  2.8426
 5856TIP3   OH241762   3.605   4.226   8.981 -0.1545  0.1023  0.4048
 5856TIP3    H141763   3.673   4.220   8.913  0.9450 -1.1422  1.5599
 5856TIP3    H241764   3.564   4.140   8.982 -0.3563  0.2036  1.1131
 5857TIP3   OH241765   7.466   7.908  10.409 -0.2476  0.5013 -0.3839
 5857TIP3    H141766   7.442   8.001  10.415  0.7337  0.8239 -1.1301
 5857TIP3    H241767   7.558   7.909  10.383 -0.0020 -0.6893  0.3813
 5858TIP3   OH241768   5.927   0.994   8.287 -0.3657  0.3362 -0.0683
 5858TIP3    H141769   5.910   1.087   8.274  2.6177  0.8803 -0.7879
 5858TIP3    H241770   5.870   0.970   8.360 -0.9890  2.7942  0.3568
 5859TIP3   OH241771   3.807   5.787   8.572  0.0153 -0.2567  0.1465
 5859TIP3    H141772   3.805   5.746   8.659 -0.2184  1.0820  0.8038
 5859TIP3    H241773   3.849   5.872   8.587  2.2018 -0.9732 -1.5121
 5860TIP3   OH241774   6.127   3.004  10.033 -0.2840  0.0401  0.2918
 5860TIP3    H141775   6.185   2.998   9.957  0.0492 -0.9210  0.6145
 5860TIP3    H241776   6.185   3.011  10.108 -0.6103  0.4489  0.5143
 5861TIP3   OH241777   2.276   8.106   8.355 -0.2946  0.3841 -0.5718
 5861TIP3    H141778   2.350   8.065   8.399  0.2404  3.5534  1.8267
 5861TIP3    H241779   2.232   8.033   8.310  2.5255 -2.0989  0.3148
 5862TIP3   OH241780   5.262   7.617   7.821  0.1981 -0.0349  0.2012
 5862TIP3    H141781   5.200   7.618   7.894  0.7391 -2.1032  0.7696
 5862TIP3    H241782   5.230   7.547   7.764  1.7911 -0.9354  0.3463
 5863TIP3   OH241783   5.937   4.702   8.240  0.0565  0.2865  0.0322
 5863TIP3    H141784   5.941   4.760   8.316 -0.1904 -0.0181  0.2809
 5863TIP3    H241785   6.026   4.701   8.205  0.8181 -1.5932  1.8393
 5864TIP3   OH241786   7.407   3.063   8.446 -0.4218  0.1090  0.2446
 5864TIP3    H141787   7.499   3.078   8.466 -0.8665  1.9291  1.0859
 5864TIP3    H241788   7.393   3.106   8.362 -0.8130  1.1430  0.8179
 5865TIP3   OH241789   0.904   3.350   8.563 -0.1260 -0.2613  0.1418
 5865TIP3    H141790   0.932   3.280   8.504  0.6728 -0.6029  0.9147
 5865TIP3    H241791   0.985   3.391   8.592 -0.5070 -0.1765  1.1099
 5866TIP3   OH241792   5.871   7.043   9.072  0.7988 -0.0103 -0.0704
 5866TIP3    H141793   5.834   7.126   9.104  0.4374  0.4384 -1.5848
 5866TIP3    H241794   5.908   7.002   9.151  0.7136  1.4421  0.7738
 5867TIP3   OH241795   7.901   2.368   7.907 -0.3632  0.2324  0.1703
 5867TIP3    H141796   7.827   2.335   7.855  1.3455 -2.8578 -0.5796
 5867TIP3    H241797   7.861   2.406   7.985 -2.7824  0.2608 -0.9990
 5868TIP3   OH241798   4.171   3.338   8.741 -0.0668  0.1531  0.7560
 5868TIP3    H141799   4.135   3.304   8.659 -0.7391 -0.7297  1.4015
 5868TIP3    H241800   4.266   3.334   8.729 -0.1596 -0.0374  0.0516
 5869TIP3   OH241801   3.560   0.326   8.444 -0.0521 -0.1852  0.4593
 5869TIP3    H141802   3.501   0.313   8.517 -2.2294 -0.5435 -1.2516
 5869TIP3    H241803   3.565   0.240   8.402 -1.3155  0.6254 -1.4987
 5870TIP3   OH241804   6.447   2.499   8.635 -0.5985 -0.4185 -0.0942
 5870TIP3    H141805   6.525   2.449   8.660 -0.2540 -0.0839 -0.4889
 5870TIP3    H241806   6.472   2.544   8.554 -0.2225  1.8817  1.2004
 5871TIP3   OH241807   7.886   5.965   9.019  0.1617 -0.0047 -0.0560
 5871TIP3    H141808   7.892   5.915   9.100 -0.9571 -0.2292 -0.0987
 5871TIP3    H241809   7.814   6.027   9.034 -0.7773 -0.7646 -1.2415
 5872TIP3   OH241810   6.175   5.736   8.873 -0.8042  0.2961  0.4702
 5872TIP3    H141811   6.087   5.742   8.909 -2.2152 -2.6669 -1.9831
 5872TIP3    H241812   6.182   5.646   8.842  2.0104  1.1892 -2.0237
 5873TIP3   OH241813   6.867   6.078   8.446  0.1909  0.1669 -0.0331
 5873TIP3    H141814   6.843   6.113   8.360  0.1606  1.1064  0.3486
 5873TIP3    H241815   6.798   6.016   8.467  0.4147 -0.3810 -0.8668
 5874TIP3   OH241816   4.976   4.615   7.884  0.2098 -0.2502 -0.0126
 5874TIP3    H141817   4.965   4.530   7.926  0.9193  0.3171  1.3943
 5874TIP3    H241818   4.892   4.659   7.896  0.1039 -0.4512 -0.0241
 5875TIP3   OH241819   6.963   0.466   7.826 -0.2226 -0.5134  0.2355
 5875TIP3    H141820   6.918   0.480   7.742  0.7417  1.4912 -0.0135
 5875TIP3    H241821   6.939   0.542   7.879  0.0903 -1.1818  1.3820
 5876TIP3   OH241822   4.808   6.755   8.754  0.0975 -0.0820 -0.0204
 5876TIP3    H141823   4.835   6.713   8.835 -1.9638 -0.8958  0.2862
 5876TIP3    H241824   4.880   6.738   8.693  1.1658 -0.4293  1.2927
 5877TIP3   OH241825   5.771   5.685   9.289 -0.4194  0.3109 -0.1363
 5877TIP3    H141826   5.852   5.670   9.240  0.4051  1.0783  0.9529
 5877TIP3    H241827   5.732   5.598   9.298  0.1833 -0.0401 -0.8307
 5878TIP3   OH241828   2.623   5.696   9.443 -0.2622  0.3212 -0.3101
 5878TIP3    H141829   2.619   5.606   9.476  0.0424  0.5454  0.3682
 5878TIP3    H241830   2.552   5.702   9.379 -1.1009 -0.0457  0.5597
 5879TIP3   OH241831   1.745   1.344   7.700 -0.0135 -0.4639  0.5024
 5879TIP3    H141832   1.656   1.322   7.728  0.2450 -1.1966  0.7641
 5879TIP3    H241833   1.747   1.440   7.700 -0.5417 -0.4447  1.3306
 5880TIP3   OH241834   4.154   3.458   9.926  0.1549  0.0879  0.0998
 5880TIP3    H141835   4.061   3.436   9.923  0.5705 -1.8054  0.1855
 5880TIP3    H241836   4.155   3.554   9.921 -1.8093  0.1930  0.5254
 5881TIP3   OH241837   6.002   3.710   8.891 -0.1119  0.0647  0.6513
 5881TIP3    H141838   5.919   3.669   8.917 -0.4046 -0.1885 -0.6460
 5881TIP3    H241839   6.057   3.637   8.865  0.3568  0.2820  1.0144
 5882TIP3   OH241840   4.611   5.201   8.137  0.5136  0.2525  0.1762
 5882TIP3    H141841   4.655   5.207   8.052  0.9352  0.3959  0.3963
 5882TIP3    H241842   4.550   5.274   8.138 -0.3212 -0.4275 -0.4629
 5883TIP3   OH241843   4.345   7.137   9.011  0.1256 -0.1872 -0.1974
 5883TIP3    H141844   4.384   7.159   8.926  0.5827 -1.5386 -0.3541
 5883TIP3    H241845   4.333   7.042   9.008 -2.4878  0.0593  0.1409
 5884TIP3   OH241846   2.047   4.700   8.152 -0.0905 -0.2082  0.2697
 5884TIP3    H141847   2.103   4.686   8.076 -0.8316 -0.4435 -0.2492
 5884TIP3    H241848   2.103   4.744   8.216  0.5688 -0.0861 -0.3818
 5885TIP3   OH241849   0.518   1.010   9.098 -0.3509 -0.4101 -0.6967
 5885TIP3    H141850   0.456   0.961   9.043  0.0709 -1.0188 -0.6494
 5885TIP3    H241851   0.572   1.059   9.036 -0.1424 -0.7747 -0.8078
 5886TIP3   OH241852   3.021   2.803   8.891 -0.3015 -0.0346  1.2520
 5886TIP3    H141853   3.060   2.867   8.832 -1.4765  1.0988  1.6716
 5886TIP3    H241854   3.088   2.788   8.958  0.5990 -0.4843  0.2727
 5887TIP3   OH241855   1.523   3.803   9.400 -0.4366  0.6192  0.4483
 5887TIP3    H141856   1.552   3.742   9.469 -0.2939  0.2217  0.0413
 5887TIP3    H241857   1.602   3.820   9.349 -0.1288  2.3258  1.4341
 5888TIP3   OH241858   2.020   7.169   8.586  0.2003  0.1208  0.3278
 5888TIP3    H141859   1.982   7.240   8.535  0.5929  1.0974  1.3586
 5888TIP3    H241860   1.991   7.089   8.541  1.1383  0.9163 -1.8580
 5889TIP3   OH241861   2.459   1.281   9.431 -0.0718  0.6383 -0.6042
 5889TIP3    H141862   2.392   1.226   9.472  0.6119  0.5681  0.4630
 5889TIP3    H241863   2.491   1.229   9.357  1.2508 -0.8601  0.9519
 5890TIP3   OH241864   2.550   1.243   8.166 -0.6527  0.3520 -0.6806
 5890TIP3    H141865   2.514   1.330   8.148 -0.7779  0.4966  0.2076
 5890TIP3    H241866   2.636   1.261   8.206 -0.0694  0.0323 -1.7424
 5891TIP3   OH241867   6.259   3.444  10.201  0.3553 -0.4744 -0.9096
 5891TIP3    H141868   6.289   3.498  10.128  0.2759 -0.1199 -0.6849
 5891TIP3    H241869   6.165   3.432  10.185  0.1042  0.5582 -0.2733
 5892TIP3   OH241870   0.224   4.332   7.796  0.5412  0.2563 -0.0040
 5892TIP3    H141871   0.302   4.346   7.849  2.0896 -3.1908 -1.0598
 5892TIP3    H241872   0.182   4.255   7.834  0.7510 -1.2548 -2.5522
 5893TIP3   OH241873   4.796   3.128   8.506  0.0469  0.5902 -0.1503
 5893TIP3    H141874   4.820   3.220   8.516  0.3671  0.5720 -0.7130
 5893TIP3    H241875   4.741   3.109   8.583  0.6547  1.0216  0.4013
 5894TIP3   OH241876   4.886   3.603   8.090 -1.4427 -0.7622  0.2275
 5894TIP3    H141877   4.878   3.533   8.025 -0.6781 -0.1318 -0.5781
 5894TIP3    H241878   4.978   3.630   8.084 -1.4954 -0.3296  1.2079
 5895TIP3   OH241879   7.871   2.090   9.273 -0.6293 -0.4571  0.1529
 5895TIP3    H141880   7.822   2.055   9.198 -1.1822  3.5468 -1.5861
 5895TIP3    H241881   7.963   2.082   9.247 -0.7862  0.1308 -0.6208
 5896TIP3   OH241882   6.787   2.877   8.696  0.6514 -0.1289 -0.7800
 5896TIP3    H141883   6.694   2.872   8.672 -0.0548  1.6997  1.2481
 5896TIP3    H241884   6.793   2.956   8.750  3.4550 -0.0990 -1.0307
 5897TIP3   OH241885   3.278   7.328   8.362  0.2602 -0.3757  0.8202
 5897TIP3    H141886   3.364   7.294   8.338 -0.3015 -1.2799  0.0164
 5897TIP3    H241887   3.247   7.371   8.283  0.3227  0.7254  1.3724
 5898TIP3   OH241888   5.752   4.261   8.489 -0.2750  0.7708 -0.0184
 5898TIP3    H141889   5.841   4.242   8.520 -0.6056  0.0023  0.4939
 5898TIP3    H241890   5.696   4.244   8.565 -1.3040 -2.6677 -1.3403
 5899TIP3   OH241891   8.184   1.214  10.150  0.5742 -0.2563  0.1973
 5899TIP3    H141892   8.188   1.121  10.131  1.8554 -0.0271 -0.8331
 5899TIP3    H241893   8.134   1.251  10.076  0.8976 -0.0216  0.0916
 5900TIP3   OH241894   8.390   6.042   7.877 -0.2791 -0.0168  0.6533
 5900TIP3    H141895   8.301   6.026   7.906 -0.5804  0.0946 -0.1803
 5900TIP3    H241896   8.409   5.971   7.815 -0.0356  0.3229  0.3293
 5901TIP3   OH241897   1.813   4.378   9.011  0.0265  0.0905  0.3592
 5901TIP3    H141898   1.733   4.426   9.031  0.2558  0.2014  1.0498
 5901TIP3    H241899   1.784   4.302   8.961 -0.6033 -0.3018  1.2976
 5902TIP3   OH241900   5.687   1.408   9.245 -0.0836  0.3236  0.2402
 5902TIP3    H141901   5.774   1.412   9.283  0.0441  1.7788 -0.1567
 5902TIP3    H241902   5.659   1.317   9.259  1.3179 -0.0590  0.7266
 5903TIP3   OH241903   8.311   0.501   8.288  0.2950  0.0520  0.0265
 5903TIP3    H141904   8.290   0.488   8.196  2.2016 -2.4760 -0.1894
 5903TIP3    H241905   8.235   0.467   8.336 -0.3318  0.5592 -0.5912
 5904TIP3   OH241906   0.839   8.304   9.333 -0.3118 -0.8678  0.2006
 5904TIP3    H141907   0.791   8.345   9.261 -1.0337  0.6126  1.4760
 5904TIP3    H241908   0.930   8.329   9.319 -0.7421  1.3535  0.9936
 5905TIP3   OH241909   6.793   5.154   8.022  0.4177 -0.4479 -0.2411
 5905TIP3    H141910   6.844   5.076   8.044  1.0161 -0.0422 -0.1608
 5905TIP3    H241911   6.769   5.141   7.930  0.6468 -0.6588 -0.2729
 5906TIP3   OH241912   3.250   0.808   9.574  0.3149  0.0301 -0.5008
 5906TIP3    H141913   3.198   0.732   9.602 -0.3395 -0.5361 -3.0357
 5906TIP3    H241914   3.302   0.775   9.500 -0.5464  2.2112 -2.1649
 5907TIP3   OH241915   2.759   3.398   8.653 -0.7234  0.5790  0.3582
 5907TIP3    H141916   2.726   3.351   8.730 -0.2415 -1.3173 -0.5165
 5907TIP3    H241917   2.845   3.431   8.680 -1.1109  1.0554  1.0277
 5908TIP3   OH241918   0.274   0.798   8.589 -0.2048  0.4171 -0.4964
 5908TIP3    H141919   0.239   0.722   8.543 -1.5826  0.5918  0.2348
 5908TIP3    H241920   0.240   0.874   8.541  0.1356  0.5873 -0.4737
 5909TIP3   OH241921   4.058   3.628   8.101  0.4380 -0.4107 -0.4136
 5909TIP3    H141922   3.986   3.662   8.047 -0.6244  1.0445  1.7923
 5909TIP3    H241923   4.032   3.538   8.121  0.2972 -0.5943 -1.3629
 5910TIP3   OH241924   7.151   7.207   8.199 -0.0679  0.0922  0.6292
 5910TIP3    H141925   7.209   7.281   8.181 -0.2155  0.0942  0.1404
 5910TIP3    H241926   7.142   7.206   8.294  1.3875 -0.3991  0.7997
 5911TIP3   OH241927   2.340   2.448   8.409  0.0583  0.3109 -0.6395
 5911TIP3    H141928   2.257   2.491   8.385  0.2649 -0.3644 -2.7226
 5911TIP3    H241929   2.393   2.453   8.330  2.6100  1.9474  1.0383
 5912TIP3   OH241930   5.886   6.270   8.002  0.1455 -0.3368 -0.3350
 5912TIP3    H141931   5.918   6.253   8.091 -0.2428 -3.3215 -0.6894
 5912TIP3    H241932   5.965   6.276   7.949  0.3146 -0.6845 -0.1238
 5913TIP3   OH241933   0.897   6.303   8.194  0.0483  0.3465 -0.7492
 5913TIP3    H141934   0.812   6.338   8.165 -0.3203 -0.4643 -0.6686
 5913TIP3    H241935   0.894   6.308   8.289  0.1789  0.5007 -0.7518
 5914TIP3   OH241936   5.544   6.286   8.260  0.5207 -0.0620 -0.3843
 5914TIP3    H141937   5.605   6.219   8.230  0.8977 -0.2872  0.8153
 5914TIP3    H241938   5.457   6.254   8.235  0.7481 -0.6664 -0.3990
 5915TIP3   OH241939   3.345   6.562   9.834  0.4570  0.8212 -0.0407
 5915TIP3    H141940   3.283   6.511   9.782  0.4307  2.0658 -1.2944
 5915TIP3    H241941   3.421   6.505   9.843 -0.9909 -0.9562  2.0000
 5916TIP3   OH241942   2.702   8.292   8.752 -0.1780  0.1648  0.2958
 5916TIP3    H141943   2.670   8.316   8.839 -0.5737  0.4684  0.0695
 5916TIP3    H241944   2.753   8.368   8.723  1.7214 -0.7375  1.1098
 5917TIP3   OH241945   7.091   6.843   9.191 -0.6648 -0.2904 -0.6156
 5917TIP3    H141946   7.132   6.910   9.136 -0.3010  1.5654  1.7611
 5917TIP3    H241947   6.999   6.866   9.194 -0.4441  0.5487  0.6882
 5918TIP3   OH241948   1.894   6.503   8.660 -0.2060  0.5450 -0.0175
 5918TIP3    H141949   1.975   6.481   8.613  0.6555  0.5559  1.4087
 5918TIP3    H241950   1.924   6.534   8.745 -1.6544  2.1872 -0.0715
 5919TIP3   OH241951   5.818   1.576   8.034  0.0941 -0.3940  0.3009
 5919TIP3    H141952   5.842   1.502   7.979  0.0172  0.5053 -0.9738
 5919TIP3    H241953   5.859   1.557   8.119 -0.4784 -2.2035  0.2245
 5920TIP3   OH241954   8.257   0.656   7.741 -0.4630 -0.1485  0.5248
 5920TIP3    H141955   8.341   0.636   7.783  0.3214  1.4576 -0.2183
 5920TIP3    H241956   8.210   0.572   7.742  2.5379 -2.1352 -2.3340
 5921TIP3   OH241957   2.260   0.168   8.555  0.3923  0.0582 -0.3497
 5921TIP3    H141958   2.267   0.161   8.650 -0.8127 -0.4259 -0.2884
 5921TIP3    H241959   2.185   0.114   8.532  1.3055 -0.6911 -1.6990
 5922TIP3   OH241960   0.551   2.158   8.303  0.5187 -0.0841 -0.3497
 5922TIP3    H141961   0.528   2.243   8.342 -1.7320 -0.2630 -1.1592
 5922TIP3    H241962   0.571   2.178   8.212  3.2056 -0.0453  0.1514
 5923TIP3   OH241963   1.541   8.004   8.929  0.1949 -0.1794 -0.2493
 5923TIP3    H141964   1.622   7.963   8.961  0.0282 -0.7308 -0.5317
 5923TIP3    H241965   1.567   8.048   8.849  0.0849 -0.8939 -0.6835
 5924TIP3   OH241966   1.281   7.917   8.975 -0.4675  0.0511 -0.5657
 5924TIP3    H141967   1.361   7.961   8.947  0.6172 -0.4313  1.5729
 5924TIP3    H241968   1.258   7.860   8.902  1.7572 -0.5905 -0.8402
 5925TIP3   OH241969   0.283   3.748   8.389 -0.1548  0.2311  0.5938
 5925TIP3    H141970   0.370   3.733   8.427 -0.7205  0.8357  2.2495
 5925TIP3    H241971   0.289   3.834   8.348  0.6434 -0.6896 -1.3158
 5926TIP3   OH241972   5.470   6.479   8.859 -0.0507 -0.0853 -0.0393
 5926TIP3    H141973   5.399   6.525   8.814  0.0992  0.8055  0.6173
 5926TIP3    H241974   5.520   6.548   8.902  0.9971 -0.7331 -0.1670
 5927TIP3   OH241975   0.912   6.846   8.717 -0.0870 -0.0793  0.1923
 5927TIP3    H141976   0.835   6.872   8.666 -0.8394 -0.6118  1.0330
 5927TIP3    H241977   0.954   6.929   8.740  0.4060  0.1681 -1.4642
 5928TIP3   OH241978   4.778   6.830   9.704  0.4935  0.3312  0.4790
 5928TIP3    H141979   4.690   6.831   9.664  1.0886  0.9286 -0.8823
 5928TIP3    H241980   4.776   6.902   9.767  0.4222  1.2101 -0.5151
 5929TIP3   OH241981   8.002   1.015   8.506  0.2148 -0.0690  0.3236
 5929TIP3    H141982   8.011   1.068   8.427 -0.2623  0.9444  0.9094
 5929TIP3    H241983   7.917   0.972   8.497  2.3053 -4.2704 -2.1207
 5930TIP3   OH241984   3.413   4.744   9.106  0.0231  0.0082 -0.5631
 5930TIP3    H141985   3.407   4.649   9.091  2.8166 -0.4430  0.4618
 5930TIP3    H241986   3.328   4.769   9.141 -0.2008 -2.5061  0.9202
 5931TIP3   OH241987   0.771   0.269   8.471 -0.2049 -0.1759  0.5762
 5931TIP3    H141988   0.780   0.210   8.396  1.7009  0.4809  0.2336
 5931TIP3    H241989   0.681   0.256   8.501 -0.0334 -2.8253  0.1928
 5932TIP3   OH241990   6.822   5.634   8.606  0.2810  0.1422 -0.2866
 5932TIP3    H141991   6.821   5.592   8.692 -0.6859 -2.1752 -1.3231
 5932TIP3    H241992   6.908   5.614   8.571  0.3010  0.1708 -0.2544
 5933TIP3   OH241993   6.559   7.770   9.295  0.2256  0.2127  0.0904
 5933TIP3    H141994   6.564   7.852   9.344 -0.0439  0.4251 -0.2292
 5933TIP3    H241995   6.467   7.763   9.269 -0.1505 -1.1061  1.6511
 5934TIP3   OH241996   5.056   7.106   9.038 -0.4596  0.0249  0.2421
 5934TIP3    H141997   5.024   7.019   9.017  1.7500 -0.1417 -3.3732
 5934TIP3    H241998   4.988   7.166   9.005  0.0850 -0.3806 -1.7824
 5935TIP3   OH241999   0.681   1.229   8.250  0.5170 -0.4875  0.1062
 5935TIP3    H142000   0.690   1.314   8.294  0.5450 -1.0964  1.3215
 5935TIP3    H242001   0.656   1.168   8.320 -2.4448 -0.9610 -1.2220
 5936TIP3   OH242002   5.929   6.434   9.190  0.5196 -0.2498 -0.5346
 5936TIP3    H142003   6.017   6.417   9.157  2.0657  3.0695  1.2839
 5936TIP3    H242004   5.895   6.504   9.133 -0.7361 -1.0615 -0.8321
 5937TIP3   OH242005   7.893   3.282   8.668  0.2100 -0.0582 -0.3781
 5937TIP3    H142006   7.920   3.235   8.590 -1.2189  0.3027 -1.1254
 5937TIP3    H242007   7.797   3.278   8.667  0.1486  0.2390  1.1723
 5938TIP3   OH242008   6.264   7.334   8.060  0.1430 -0.1446  0.3014
 5938TIP3    H142009   6.214   7.266   8.106 -1.4433  1.1876  0.6692
 5938TIP3    H242010   6.228   7.416   8.094 -0.7119  0.9248 -2.8534
 5939TIP3   OH242011   2.897   7.433   9.061 -0.0032 -0.2871 -0.6492
 5939TIP3    H142012   2.859   7.521   9.072  1.9599  0.4073  1.5773
 5939TIP3    H242013   2.868   7.385   9.139  3.2677  0.2231  1.0538
 5940TIP3   OH242014   8.137   2.154   9.193 -0.6134  0.1965 -1.0049
 5940TIP3    H142015   8.204   2.218   9.167  0.0212 -0.2908 -0.6181
 5940TIP3    H242016   8.152   2.079   9.134 -0.3140 -0.2159 -0.4147
 5941TIP3   OH242017   0.444   3.225   7.514 -0.6628 -0.0830 -0.6075
 5941TIP3    H142018   0.449   3.228   7.419  0.5216  0.1950 -0.5552
 5941TIP3    H242019   0.352   3.239   7.534 -0.6527  1.7769 -1.6527
 5942TIP3   OH242020   6.519   2.122   8.798  0.9429  0.3236 -0.1399
 5942TIP3    H142021   6.542   2.107   8.707  2.1620  1.6789 -0.0719
 5942TIP3    H242022   6.601   2.149   8.840 -0.0975  2.2230  0.7924
 5943TIP3   OH242023   3.527   3.474   8.635  0.2693 -0.1293 -0.4967
 5943TIP3    H142024   3.536   3.559   8.679  1.2673  0.2825 -1.4320
 5943TIP3    H242025   3.441   3.478   8.594 -0.8753 -0.7100  1.7400
 5944TIP3   OH242026   5.281   2.835   8.504  0.4358 -0.0754 -0.7965
 5944TIP3    H142027   5.368   2.828   8.544 -0.2137  0.0929  0.7269
 5944TIP3    H242028   5.241   2.910   8.547 -0.6396 -0.4504 -1.1132
 5945TIP3   OH242029   4.539   4.545   8.293  0.5076 -0.3646 -0.0667
 5945TIP3    H142030   4.555   4.451   8.299 -1.2143 -0.6007  1.5368
 5945TIP3    H242031   4.565   4.579   8.378 -0.2059  0.4136 -0.1534
 5946TIP3   OH242032   4.474   0.509   9.475 -0.0341 -0.3906  0.1316
 5946TIP3    H142033   4.529   0.433   9.497  1.2050  0.7787  1.2597
 5946TIP3    H242034   4.452   0.548   9.559 -0.9954  0.2801 -0.4159
 5947TIP3   OH242035   0.035   1.704  10.015  0.4816 -0.5351 -0.3844
 5947TIP3    H142036   0.042   1.699  10.110 -1.3549  0.3976 -0.1506
 5947TIP3    H242037   0.047   1.614   9.985  1.1170 -0.8319  0.7167
 5948TIP3   OH242038   6.457   0.533   8.863 -0.3649 -0.3938  0.1020
 5948TIP3    H142039   6.536   0.514   8.812  2.0924  2.2280  2.5483
 5948TIP3    H242040   6.414   0.604   8.814 -1.1304 -1.6066 -1.0640
 5949TIP3   OH242041   5.332   7.832   9.502  0.0121 -0.0045 -0.3355
 5949TIP3    H142042   5.324   7.875   9.417  0.5112 -0.0351 -0.3973
 5949TIP3    H242043   5.260   7.768   9.503 -0.5793  0.6459 -0.3437
 5950TIP3   OH242044   8.049   1.744   9.886 -0.7143 -0.6715 -0.4262
 5950TIP3    H142045   8.112   1.809   9.916 -0.3281 -1.3629  0.2961
 5950TIP3    H242046   7.968   1.767   9.931 -1.1833  0.6033 -1.8426
 5951TIP3   OH242047   5.345   8.443   9.566  0.5012  0.3596  0.3144
 5951TIP3    H142048   5.366   8.484   9.650  0.7791 -2.1791  1.6007
 5951TIP3    H242049   5.330   8.351   9.588  0.8269 -0.4578 -2.4788
 5952TIP3   OH242050   2.211   2.839   8.727  0.2958 -0.0688  0.0368
 5952TIP3    H142051   2.279   2.900   8.699  0.7392  0.2377  1.6842
 5952TIP3    H242052   2.130   2.874   8.689  0.9367 -0.0687 -1.3887
 5953TIP3   OH242053   4.807   0.449   9.088  0.1584 -0.0564 -0.3869
 5953TIP3    H142054   4.816   0.512   9.016 -1.5933  1.3217  0.5113
 5953TIP3    H242055   4.715   0.456   9.114  0.9448  0.3866  2.7418
 5954TIP3   OH242056   4.231   4.242   7.652 -0.0649 -0.1133  0.1124
 5954TIP3    H142057   4.289   4.246   7.729  0.3907 -0.8958 -0.1869
 5954TIP3    H242058   4.212   4.334   7.632  0.6567  0.1328  0.5272
 5955TIP3   OH242059   3.238   2.718   9.061 -0.4645  0.7645  0.5332
 5955TIP3    H142060   3.294   2.789   9.029 -1.6176  1.0553 -0.9867
 5955TIP3    H242061   3.238   2.729   9.156  1.2731  1.3149  0.5064
 5956TIP3   OH242062   5.200   1.689  13.970  0.5270  0.4701  0.5951
 5956TIP3    H142063   5.227   1.650  14.053  0.4961  1.5637  1.1361
 5956TIP3    H242064   5.114   1.652  13.953  0.7209 -0.0957  0.8221
 5957TIP3   OH242065   0.858   4.335   9.992  0.0152  0.0816 -0.4040
 5957TIP3    H142066   0.899   4.417   9.965  0.5488  0.2902  0.9454
 5957TIP3    H242067   0.928   4.271   9.988 -0.0819 -0.0360 -0.2446
 5958TIP3   OH242068   5.249   3.822   9.582 -0.1918  0.1334 -0.2221
 5958TIP3    H142069   5.325   3.776   9.617 -1.7926 -2.6164 -0.0319
 5958TIP3    H242070   5.179   3.806   9.647 -1.6216  0.1830 -1.6814
 5959TIP3   OH242071   0.293   0.848   8.169  0.0739  0.1923  0.2578
 5959TIP3    H142072   0.349   0.847   8.091 -1.1198  1.5913 -0.6767
 5959TIP3    H242073   0.298   0.759   8.203  2.1797  0.0558 -0.2585
 5960TIP3   OH242074   2.727   7.449   8.485 -0.0610  0.0766  0.1238
 5960TIP3    H142075   2.713   7.366   8.440 -0.0340  0.4044 -0.4955
 5960TIP3    H242076   2.642   7.468   8.526  0.2805 -0.8752  1.3442
 5961TIP3   OH242077   0.596   5.300   7.663 -0.4030  0.2756 -0.0010
 5961TIP3    H142078   0.593   5.255   7.747 -0.1403 -1.3609 -0.8436
 5961TIP3    H242079   0.663   5.367   7.674 -0.9062  0.5980  1.3164
 5962TIP3   OH242080   0.049   3.603   8.813  0.4194  0.1959  0.3566
 5962TIP3    H142081   0.028   3.695   8.801  1.1453  0.4476  0.9479
 5962TIP3    H242082  -0.010   3.574   8.883  0.0731  0.1689  0.0521
 5963TIP3   OH242083   4.089   3.997   8.614 -0.4202  0.5340 -0.9210
 5963TIP3    H142084   4.061   3.909   8.590 -0.4632  0.6356 -1.2412
 5963TIP3    H242085   4.052   4.011   8.701  1.7352 -0.7694  0.2992
 5964TIP3   OH242086   1.078   5.885   9.255 -0.1123  0.5135 -0.2828
 5964TIP3    H142087   1.120   5.844   9.330 -2.1204 -0.1681  0.5144
 5964TIP3    H242088   1.151   5.914   9.200  1.4129 -2.4347  0.0082
 5965TIP3   OH242089   0.139   0.013   8.816 -0.1703  0.0493  0.6996
 5965TIP3    H142090   0.118  -0.042   8.891  1.0474  0.0821  1.0944
 5965TIP3    H242091   0.180   0.091   8.855 -0.7863  0.6989  0.0793
 5966TIP3   OH242092   4.777   5.292   7.924  0.4338  0.3800 -1.3686
 5966TIP3    H142093   4.866   5.275   7.956  0.9996 -0.1554 -3.1119
 5966TIP3    H242094   4.788   5.363   7.861 -0.4009  0.3705 -1.5309
 5967TIP3   OH242095   4.373   0.928   8.588 -0.0394 -0.3482  0.3273
 5967TIP3    H142096   4.365   0.911   8.494  0.3263 -0.1501  0.2593
 5967TIP3    H242097   4.460   0.966   8.598 -0.8135  1.4548  0.4710
 5968TIP3   OH242098   8.101   5.026   7.671 -0.4132 -0.1940 -0.5140
 5968TIP3    H142099   8.103   5.101   7.731  1.9944  1.5371 -2.5575
 5968TIP3    H242100   8.134   4.953   7.723 -0.0543  0.8437  0.7745
 5969TIP3   OH242101   3.317   1.794   9.442 -0.6758 -0.4146 -0.2176
 5969TIP3    H142102   3.347   1.880   9.471 -2.0285  0.1526 -0.4522
 5969TIP3    H242103   3.284   1.753   9.522 -1.3698 -0.1381 -0.3570
 5970TIP3   OH242104   5.189   5.005   9.253  0.6057 -0.3531  0.1689
 5970TIP3    H142105   5.270   4.954   9.244  0.5769 -0.3019 -0.4687
 5970TIP3    H242106   5.186   5.058   9.173  0.8868  1.0282  1.0469
 5971TIP3   OH242107   6.124   6.872   8.359 -0.5646  0.2159 -0.4242
 5971TIP3    H142108   6.172   6.868   8.441 -1.7494 -0.8789  0.2579
 5971TIP3    H242109   6.103   6.964   8.347  1.1026  0.6186 -0.4044
 5972TIP3   OH242110   0.899   3.946   7.439  0.0484  0.2540 -0.0227
 5972TIP3    H142111   0.851   4.029   7.447  0.0615  0.3910 -1.2638
 5972TIP3    H242112   0.986   3.972   7.408  0.1850 -0.1911 -0.0190
 5973TIP3   OH242113   0.874   0.062   9.895  0.9955 -0.1508  0.3111
 5973TIP3    H142114   0.878  -0.029   9.924  2.8216  0.1096  0.9817
 5973TIP3    H242115   0.928   0.064   9.816 -0.9201 -0.0744 -1.0950
 5974TIP3   OH242116   0.967   7.457   7.870 -0.1128  0.3090  0.3688
 5974TIP3    H142117   0.906   7.524   7.841  0.3504  0.4529 -0.2866
 5974TIP3    H242118   0.988   7.408   7.791  2.7321  1.9585 -0.0141
 5975TIP3   OH242119   1.939   3.854   8.085  0.4655 -0.0822  0.1892
 5975TIP3    H142120   1.920   3.769   8.045  1.6302  0.0613 -0.7311
 5975TIP3    H242121   1.918   3.842   8.177 -0.9729 -0.8477 -0.2197
 5976TIP3   OH242122   8.412   0.898   8.692 -0.2377 -0.3577 -0.2882
 5976TIP3    H142123   8.324   0.934   8.707  0.1036 -0.1720  1.5632
 5976TIP3    H242124   8.464   0.974   8.663 -0.2181  0.0205  0.6888
 5977TIP3   OH242125   5.174   6.039   8.112 -0.4454 -0.1819  0.0732
 5977TIP3    H142126   5.131   6.115   8.150  0.4504  1.0116 -1.1791
 5977TIP3    H242127   5.111   6.006   8.047 -0.3963  0.1789 -0.1601
 5978TIP3   OH242128   5.476   3.569   8.128 -0.3981  0.0214  0.1223
 5978TIP3    H142129   5.476   3.653   8.174 -1.5192 -2.1499  4.7327
 5978TIP3    H242130   5.384   3.549   8.116 -0.1255 -0.2355 -1.7067
 5979TIP3   OH242131   2.718   8.402   9.260 -0.2105 -0.0718  0.5289
 5979TIP3    H142132   2.723   8.402   9.356 -1.5455 -3.4126  0.7429
 5979TIP3    H242133   2.625   8.416   9.241  0.3337  2.7212 -0.4659
 5980TIP3   OH242134   1.863   5.835   8.519  0.0379  0.7773 -0.1559
 5980TIP3    H142135   1.954   5.864   8.522  0.7598 -1.4099  1.7476
 5980TIP3    H242136   1.864   5.758   8.461 -0.6432  0.8686 -0.2985
 5981TIP3   OH242137   2.248   1.519   7.894  0.5608 -0.1567  0.4826
 5981TIP3    H142138   2.229   1.531   7.987  0.2982 -2.5202  0.8009
 5981TIP3    H242139   2.169   1.477   7.859  0.8865  0.1694 -0.6792
 5982TIP3   OH242140   0.482   0.024   9.215 -0.0244  0.0810  0.6230
 5982TIP3    H142141   0.402   0.068   9.242 -0.2385  0.1404 -0.0899
 5982TIP3    H242142   0.552   0.073   9.257 -0.2994  0.6938  0.3767
 5983TIP3   OH242143   0.208   6.063   8.026 -0.2397  0.5000  0.0066
 5983TIP3    H142144   0.128   6.063   7.973 -0.6863  1.8117  0.6215
 5983TIP3    H242145   0.268   6.005   7.980 -1.2555  0.1563 -0.9244
 5984TIP3   OH242146   4.953   7.127   8.549 -0.3270  0.3684  0.3205
 5984TIP3    H142147   4.965   7.215   8.513 -0.8244  0.3575  0.1184
 5984TIP3    H242148   4.951   7.070   8.472 -2.5449  0.4664  0.2301
 5985TIP3   OH242149   6.224   4.722   8.688 -0.0322 -0.0520  0.2534
 5985TIP3    H142150   6.221   4.793   8.624 -2.1946  0.3109  0.6728
 5985TIP3    H242151   6.274   4.758   8.761 -0.3776  0.7431  0.1092
 5986TIP3   OH242152   7.659   2.274   8.609  0.0459  0.4306  0.1789
 5986TIP3    H142153   7.640   2.347   8.549  0.4726  1.0621  0.8015
 5986TIP3    H242154   7.583   2.271   8.667 -0.1232  0.1674 -0.0583
 5987TIP3   OH242155   3.587   1.520   8.200  0.2149  0.0077  0.1074
 5987TIP3    H142156   3.631   1.444   8.164 -0.8755 -1.4526  1.7162
 5987TIP3    H242157   3.503   1.523   8.155  0.2661  0.2880  0.0262
 5988TIP3   OH242158   7.965   7.963   8.074 -0.2041  0.1346 -0.1625
 5988TIP3    H142159   7.976   7.931   8.164 -4.2615 -0.5950  0.3021
 5988TIP3    H242160   7.967   7.884   8.020 -0.1315  0.2840 -0.3778
 5989TIP3   OH242161   5.284   6.357   7.956  1.0574  0.2505 -0.4417
 5989TIP3    H142162   5.364   6.317   7.922  1.2655 -0.1866  0.5177
 5989TIP3    H242163   5.240   6.287   8.004  0.5744  0.7347 -0.1527
 5990TIP3   OH242164   0.663   1.669   8.173  0.1359  0.1289 -0.4809
 5990TIP3    H142165   0.616   1.751   8.184  0.5907  0.2174  1.1717
 5990TIP3    H242166   0.660   1.629   8.261  0.5876 -1.2462 -1.0697
 5991TIP3   OH242167   3.367   1.375   8.088 -0.2632 -0.2960 -0.8052
 5991TIP3    H142168   3.399   1.329   8.011  1.4559 -0.9084  0.2186
 5991TIP3    H242169   3.337   1.306   8.147 -0.3711  0.0820 -0.4132
 5992TIP3   OH242170   6.079   5.825   9.223 -0.4595  0.4283  0.2930
 5992TIP3    H142171   6.172   5.811   9.240 -0.0638  0.4178 -1.6557
 5992TIP3    H242172   6.052   5.890   9.287  0.9919  0.7261  0.6303
 5993TIP3   OH242173   6.450   4.781   9.367  0.3703 -0.0674  0.7073
 5993TIP3    H142174   6.467   4.869   9.401  1.2350  0.1231 -0.1837
 5993TIP3    H242175   6.382   4.746   9.425  0.1827  1.0909  1.2188
 5994TIP3   OH242176   1.863   3.444   7.693  0.3168 -0.0357 -0.8207
 5994TIP3    H142177   1.827   3.374   7.639  0.6055 -0.9188  0.0884
 5994TIP3    H242178   1.940   3.405   7.734  0.6312  0.9054 -0.4874
 5995TIP3   OH242179   8.037   5.788   9.926 -0.7975 -0.2898  0.1434
 5995TIP3    H142180   8.103   5.842   9.970 -2.2191  1.0387  0.7497
 5995TIP3    H242181   8.075   5.770   9.840  0.1343  0.9181  0.2690
 5996TIP3   OH242182   3.827   3.184   9.673  0.1177 -0.2286 -0.2270
 5996TIP3    H142183   3.867   3.201   9.758 -2.9544  2.5792  0.9033
 5996TIP3    H242184   3.888   3.220   9.609  0.9068  0.9317  1.1258
 5997TIP3   OH242185   7.350   7.385  10.514 -0.2040 -0.5773  0.1285
 5997TIP3    H142186   7.288   7.312  10.510  1.0953 -1.6713 -1.4861
 5997TIP3    H242187   7.402   7.378  10.434  1.2261  1.0107  0.8242
 5998TIP3   OH242188   8.180   2.664   8.283 -0.3266  0.2937  0.0029
 5998TIP3    H142189   8.111   2.600   8.301 -0.1848  0.1432  0.0188
 5998TIP3    H242190   8.146   2.747   8.316 -0.5049  0.2230 -0.0047
 5999TIP3   OH242191   1.846   3.618   7.968 -0.1371 -0.6917  0.6907
 5999TIP3    H142192   1.928   3.581   7.936  0.4643 -0.4499  1.9131
 5999TIP3    H242193   1.782   3.547   7.957  0.0888 -0.6982 -0.7890
 6000TIP3   OH242194   2.825   1.179   8.985  0.4597 -0.0912  0.4054
 6000TIP3    H142195   2.905   1.231   8.990  0.9810 -0.7892 -0.2503
 6000TIP3    H242196   2.792   1.194   8.896  0.5686 -0.7836  0.2389
 6001TIP3   OH242197   8.443   5.486   9.265  0.0179 -0.2757 -0.0340
 6001TIP3    H142198   8.437   5.575   9.300  0.7743 -0.0357 -0.4853
 6001TIP3    H242199   8.412   5.493   9.175  1.6138 -0.1063 -0.6170
 6002TIP3   OH242200   0.211   7.480   9.179 -0.1204 -0.1930  0.0935
 6002TIP3    H142201   0.152   7.461   9.106 -1.1258  1.2541  0.4815
 6002TIP3    H242202   0.153   7.507   9.250  0.9438 -0.0029  0.9061
 6003TIP3   OH242203   1.034   3.152   8.398 -0.3053 -0.2984  0.4654
 6003TIP3    H142204   0.965   3.087   8.413 -1.0702  0.6355  1.0868
 6003TIP3    H242205   1.029   3.171   8.304  0.3088 -1.5395  0.1635
 6004TIP3   OH242206   4.804   5.237   8.343  0.1436  0.4766 -0.3706
 6004TIP3    H142207   4.752   5.310   8.377  0.4591  0.9853 -0.9580
 6004TIP3    H242208   4.757   5.210   8.264 -1.0342 -1.2231  0.8525
 6005TIP3   OH242209   3.007   2.358   8.016 -0.3743  0.2553  0.6214
 6005TIP3    H142210   2.984   2.343   7.925 -1.5429  3.5996  0.2275
 6005TIP3    H242211   3.091   2.405   8.012 -0.8572  1.2059  1.1524
 6006TIP3   OH242212   6.067   8.447   9.209 -0.0302  0.0974  0.0228
 6006TIP3    H142213   6.078   8.529   9.161  1.4237  0.8390  1.5531
 6006TIP3    H242214   6.090   8.468   9.299 -2.6432 -1.2641  1.1223
 6007TIP3   OH242215   8.270   3.428   8.592 -0.0740 -0.7440 -0.0292
 6007TIP3    H142216   8.234   3.339   8.589 -1.0062 -0.3652 -0.7371
 6007TIP3    H242217   8.363   3.418   8.576 -0.2458 -1.5584 -0.5378
 6008TIP3   OH242218   7.086   0.178   9.391  0.0432  0.0267  0.4839
 6008TIP3    H142219   7.168   0.128   9.399 -0.6355 -1.0761  0.8368
 6008TIP3    H242220   7.037   0.155   9.470 -1.1474 -0.3602 -0.3497
 6009TIP3   OH242221   2.854   7.964   8.089 -0.7654 -0.3419  0.5727
 6009TIP3    H142222   2.838   8.053   8.121 -0.5459  0.1669 -0.6656
 6009TIP3    H242223   2.808   7.908   8.150 -2.4563  0.7398  0.3553
 6010TIP3   OH242224   4.876   4.672  10.144 -0.1657 -0.0209 -0.0933
 6010TIP3    H142225   4.844   4.743  10.088 -5.1268 -0.1529  2.0197
 6010TIP3    H242226   4.921   4.717  10.216  0.4710  0.6111 -0.8681
 6011TIP3   OH242227   0.906   0.053   8.344 -0.4013  0.4816 -0.3194
 6011TIP3    H142228   0.996   0.080   8.325 -0.3096  1.0694  0.8783
 6011TIP3    H242229   0.908   0.023   8.434 -0.8019 -2.3700 -1.1553
 6012TIP3   OH242230   7.729   7.902   9.998 -0.6619 -0.0153  0.2537
 6012TIP3    H142231   7.714   7.993  10.026 -0.4982  0.3482 -0.7839
 6012TIP3    H242232   7.682   7.849  10.062 -0.6907  0.7993  0.9283
 6013TIP3   OH242233   0.785   7.675   7.828  0.4067  0.4652  0.5649
 6013TIP3    H142234   0.693   7.681   7.801  0.2063 -0.5999  0.9582
 6013TIP3    H242235   0.784   7.698   7.921  0.3343 -0.6616  0.8690
 6014TIP3   OH242236   3.767   3.989   7.603  0.4043  0.7745  0.2163
 6014TIP3    H142237   3.837   3.967   7.542  0.5429 -1.8847  1.2116
 6014TIP3    H242238   3.798   3.958   7.687 -0.4757  2.9158  1.4123
 6015TIP3   OH242239   5.384   1.814   9.453  0.3719 -0.4942 -0.2642
 6015TIP3    H142240   5.425   1.755   9.389 -1.7488 -1.3766 -0.9116
 6015TIP3    H242241   5.403   1.774   9.538  0.0341 -1.4549 -0.6149
 6016TIP3   OH242242   4.605   8.447   8.779 -0.2034  0.0041 -0.5923
 6016TIP3    H142243   4.650   8.491   8.707  0.3407 -0.3590 -0.4828
 6016TIP3    H242244   4.570   8.518   8.832  1.2341  0.3557 -0.0570
 6017TIP3   OH242245   0.558   2.844   9.890 -0.1582  0.3063 -0.0946
 6017TIP3    H142246   0.585   2.902   9.961 -2.9857  1.7104 -0.0010
 6017TIP3    H242247   0.463   2.857   9.884 -0.6262 -2.8573 -1.4414
 6018TIP3   OH242248   4.364   6.767   8.602  0.0285  0.4955 -0.2358
 6018TIP3    H142249   4.403   6.792   8.686  1.5371  1.5704 -1.2025
 6018TIP3    H242250   4.391   6.677   8.589  0.1891  0.4786  0.2004
 6019TIP3   OH242251   5.491   3.597   9.291  0.2600  0.2599  0.1950
 6019TIP3    H142252   5.413   3.626   9.338 -0.6245 -0.2630 -0.9078
 6019TIP3    H242253   5.551   3.567   9.360 -1.6018 -1.9844  0.9414
 6020TIP3   OH242254   6.693   3.167   9.920  0.3141 -0.1791 -0.6105
 6020TIP3    H142255   6.679   3.077   9.950  0.6586  0.3721  1.3158
 6020TIP3    H242256   6.623   3.182   9.856  0.4493 -1.9105 -1.2242
 6021TIP3   OH242257   4.431   5.242   9.232  0.1809  0.0539  0.1539
 6021TIP3    H142258   4.350   5.196   9.210  0.6282  0.3194 -2.3400
 6021TIP3    H242259   4.495   5.172   9.248  0.0715 -0.1832 -0.4242
 6022TIP3   OH242260   3.661   2.379   8.821 -0.0645  0.1439 -0.1923
 6022TIP3    H142261   3.656   2.305   8.881  1.7620  0.3664  0.2623
 6022TIP3    H242262   3.620   2.451   8.868  0.7936  0.1581  0.5466
 6023TIP3   OH242263   7.423   6.917   8.652  0.2402 -0.2632 -0.1709
 6023TIP3    H142264   7.518   6.911   8.642  0.5513  1.8006  0.9311
 6023TIP3    H242265   7.406   7.011   8.655 -1.7471 -0.6133  0.5244
 6024TIP3   OH242266   7.478   1.111   9.505 -0.6587 -0.2764  0.5596
 6024TIP3    H142267   7.401   1.145   9.460  0.6313 -0.3511 -1.8309
 6024TIP3    H242268   7.542   1.182   9.501  0.8319 -1.6552 -1.3182
 6025TIP3   OH242269   2.664   0.456   9.318 -0.8665  0.1528  0.3880
 6025TIP3    H142270   2.627   0.389   9.260 -4.3234  0.1360  2.3213
 6025TIP3    H242271   2.626   0.538   9.286 -1.0555  0.4218  1.2769
 6026TIP3   OH242272   6.155   5.361   9.725 -0.2297 -0.0517  0.3307
 6026TIP3    H142273   6.219   5.290   9.725 -1.1215 -0.9156  1.8006
 6026TIP3    H242274   6.179   5.414   9.801  1.2812  2.1311 -1.5031
 6027TIP3   OH242275   5.144   0.364   9.731  0.1619 -0.2074 -0.2500
 6027TIP3    H142276   5.190   0.328   9.806 -0.1998 -0.7567 -0.2873
 6027TIP3    H242277   5.054   0.335   9.742  0.1534 -0.4965 -1.0179
 6028TIP3   OH242278   5.998   4.335   8.154  0.4120 -0.1064  0.1147
 6028TIP3    H142279   5.956   4.351   8.239  2.5502 -0.2731  1.2757
 6028TIP3    H242280   5.964   4.250   8.126 -3.2996  1.5908 -1.2046
 6029TIP3   OH242281   6.790   2.538   7.780  0.0248 -0.0779 -0.1307
 6029TIP3    H142282   6.859   2.480   7.748 -1.3679 -0.8956 -1.8409
 6029TIP3    H242283   6.715   2.479   7.796 -0.7132  0.9559  0.3177
 6030TIP3   OH242284   2.956   4.359   9.046 -0.4607 -0.1064  1.0186
 6030TIP3    H142285   3.018   4.381   9.116  0.3332  1.3643 -0.0699
 6030TIP3    H242286   3.002   4.385   8.966 -1.2183 -2.0094 -0.0987
 6031TIP3   OH242287   3.160   7.421   8.733 -0.0326  0.0755 -0.2394
 6031TIP3    H142288   3.221   7.465   8.792 -0.0744 -0.7526  0.4368
 6031TIP3    H242289   3.191   7.330   8.729 -2.0151 -0.7485  1.2842
 6032TIP3   OH242290   7.480   0.684   8.269  0.0056  0.6589  0.7735
 6032TIP3    H142291   7.506   0.631   8.345  1.1388  0.6594  0.3985
 6032TIP3    H242292   7.522   0.642   8.194 -2.2473 -0.1958 -0.1080
 6033TIP3   OH242293   7.680   6.991   9.398 -0.1679 -0.2145 -0.2268
 6033TIP3    H142294   7.703   6.898   9.402 -0.7420 -0.3663 -0.4059
 6033TIP3    H242295   7.744   7.034   9.455  0.1641 -0.7051 -0.2230
 6034TIP3   OH242296   5.993   3.395  10.146 -0.1649  0.0287 -0.5524
 6034TIP3    H142297   5.947   3.343  10.212 -1.9153  0.4285 -1.3943
 6034TIP3    H242298   6.002   3.336  10.071 -2.0683  0.8163 -1.4756
 6035TIP3   OH242299   5.621   0.288   8.399 -0.3044  0.0778 -0.3550
 6035TIP3    H142300   5.532   0.321   8.413 -0.7332 -1.0843 -0.2300
 6035TIP3    H242301   5.612   0.223   8.329  0.3019 -0.6445  0.2250
 6036TIP3   OH242302   4.990   6.849   8.970  0.3504  0.3373  0.4329
 6036TIP3    H142303   5.050   6.777   8.986 -1.2709 -0.7394  2.0949
 6036TIP3    H242304   5.012   6.881   8.882  2.3519 -0.9248  0.4400
 6037TIP3   OH242305   7.795   5.907   8.058 -0.2827 -0.3882 -0.1211
 6037TIP3    H142306   7.812   5.820   8.094 -0.0534 -0.0814  0.5193
 6037TIP3    H242307   7.816   5.967   8.129  1.7079  0.3234 -1.2617
 6038TIP3   OH242308   6.903   8.275   8.553 -0.0389  0.0616 -0.4094
 6038TIP3    H142309   6.948   8.301   8.633 -0.7977 -1.6384  0.6121
 6038TIP3    H242310   6.969   8.226   8.503  0.5949  1.5754 -1.1174
 6039TIP3   OH242311   0.163   4.830   7.761  0.7784 -0.7525  0.5404
 6039TIP3    H142312   0.130   4.745   7.789  1.5468 -0.7336  1.5345
 6039TIP3    H242313   0.155   4.886   7.838 -1.2016  0.5609 -0.5015
 6040TIP3   OH242314   7.279   0.329   9.824  0.1092  0.5420  0.2560
 6040TIP3    H142315   7.358   0.364   9.783  0.8767 -0.3067  0.9519
 6040TIP3    H242316   7.299   0.236   9.840 -1.7061 -0.1695 -1.2060
 6041TIP3   OH242317   6.103   0.394   8.440  0.0770 -0.1234 -0.2362
 6041TIP3    H142318   6.009   0.407   8.431  0.2789  2.1280  0.2223
 6041TIP3    H242319   6.112   0.325   8.506 -1.2584  0.4923  0.6362
 6042TIP3   OH242320   5.565   5.106   8.009  0.6352  0.0951 -0.6546
 6042TIP3    H142321   5.581   5.171   8.078 -0.4014  0.1944 -0.4891
 6042TIP3    H242322   5.628   5.127   7.941 -0.0331  1.6378 -0.8469
 6043TIP3   OH242323   4.267   5.893   8.520  0.1932  0.0252  0.0001
 6043TIP3    H142324   4.224   5.910   8.604 -0.5858  0.5278 -0.4864
 6043TIP3    H242325   4.230   5.810   8.489  0.5840 -0.2316  0.2167
 6044TIP3   OH242326   6.417   5.520   8.952 -0.1057  0.1033 -0.1298
 6044TIP3    H142327   6.423   5.499   8.859 -0.7992 -1.8671  0.2115
 6044TIP3    H242328   6.404   5.435   8.994 -2.4515  1.1801  1.5291
 6045TIP3   OH242329   7.165   6.248   8.309  0.1397  0.2444 -0.1137
 6045TIP3    H142330   7.122   6.298   8.239  0.9992 -1.2161 -1.7578
 6045TIP3    H242331   7.203   6.172   8.265  1.9539 -0.0128  1.7348
 6046TIP3   OH242332   6.185   0.152   9.413  0.2447  0.1258 -0.2694
 6046TIP3    H142333   6.280   0.146   9.405  0.1576  0.5247 -2.2013
 6046TIP3    H242334   6.167   0.246   9.418 -0.0731  0.0828 -0.5447
 6047TIP3   OH242335   3.739   6.618   8.469  1.1419 -0.1611 -0.0150
 6047TIP3    H142336   3.754   6.560   8.543 -0.4991  1.3825  1.6294
 6047TIP3    H242337   3.802   6.689   8.480  0.9381  0.0397 -0.1254
 6048TIP3   OH242338   4.634   0.910   9.634  0.6066  0.0734  0.3636
 6048TIP3    H142339   4.695   0.929   9.563 -0.0783  1.5046  0.1244
 6048TIP3    H242340   4.594   0.995   9.655  0.5856 -0.3584  2.2708
 6049TIP3   OH242341   3.770   6.904   8.226 -0.4329  0.2272 -0.4281
 6049TIP3    H142342   3.835   6.873   8.289  1.5297 -0.2070 -2.5252
 6049TIP3    H242343   3.761   6.997   8.246  2.0370  0.6682 -0.9526
 6050TIP3   OH242344   4.304   5.259   8.610 -0.0122  0.1723  0.3160
 6050TIP3    H142345   4.328   5.325   8.675  0.2714 -0.2166  0.6117
 6050TIP3    H242346   4.212   5.277   8.589 -0.2497 -0.0042  1.1911
 6051TIP3   OH242347   2.817   3.134   9.062  0.0107 -0.0415 -0.2379
 6051TIP3    H142348   2.893   3.118   9.117 -0.4774  1.4771  0.9632
 6051TIP3    H242349   2.751   3.168   9.122 -1.5836 -1.1675 -1.2817
 6052TIP3   OH242350   5.159   4.847   7.956  0.1274  0.2211 -0.1474
 6052TIP3    H142351   5.102   4.855   8.033  0.1530 -2.2055  0.1968
 6052TIP3    H242352   5.132   4.765   7.914  2.4538 -0.3322 -0.7145
 6053TIP3   OH242353   3.711   3.027   9.463  0.3967  0.5450 -0.1044
 6053TIP3    H142354   3.640   3.087   9.442  0.8105  0.7716 -0.8939
 6053TIP3    H242355   3.766   3.076   9.525 -0.5388  0.0732  1.1346
 6054TIP3   OH242356   4.264   7.728   8.248 -0.7476  0.0141 -0.1178
 6054TIP3    H142357   4.333   7.732   8.315  0.0340 -0.5014 -0.8792
 6054TIP3    H242358   4.287   7.653   8.194 -1.6430  0.1340 -0.6877
 6055TIP3   OH242359   1.550   5.340   9.506 -0.5646  0.1770  0.1200
 6055TIP3    H142360   1.589   5.368   9.589  0.3278 -1.7294  0.4076
 6055TIP3    H242361   1.481   5.278   9.533  0.3779 -1.2079 -0.5545
 6056TIP3   OH242362   6.315   2.308   9.487 -0.1285 -0.2885  0.1157
 6056TIP3    H142363   6.402   2.268   9.487 -0.0415 -0.1010 -0.2874
 6056TIP3    H242364   6.255   2.235   9.502  0.0596 -0.5060 -0.1819
 6057TIP3   OH242365   4.888   1.781   7.831 -0.1116  0.0048  0.1709
 6057TIP3    H142366   4.935   1.709   7.873  0.9721 -0.1076 -1.1740
 6057TIP3    H242367   4.930   1.860   7.867 -0.7618 -0.0251  1.0344
 6058TIP3   OH242368   6.328   2.056   9.008 -0.1708  0.0395  0.2482
 6058TIP3    H142369   6.380   2.067   8.928 -1.3261 -0.3051 -0.5804
 6058TIP3    H242370   6.382   2.000   9.064  1.0479  1.0330  0.1022
 6059TIP3   OH242371   8.413   2.731   7.519 -0.1537  0.4917  0.1233
 6059TIP3    H142372   8.500   2.694   7.533 -0.2355 -0.4802 -1.6582
 6059TIP3    H242373   8.429   2.819   7.487  0.1372  0.6996  0.8245
 6060TIP3   OH242374   4.861   0.758   8.558 -0.8313 -0.2989 -0.4561
 6060TIP3    H142375   4.944   0.741   8.603  0.1635 -0.7094 -2.3115
 6060TIP3    H242376   4.870   0.848   8.525 -0.8759 -0.5144 -1.0830
 6061TIP3   OH242377   6.194   6.028   9.602 -0.0800  0.0598  0.0024
 6061TIP3    H142378   6.287   6.043   9.620 -0.2344  0.5318  0.4093
 6061TIP3    H242379   6.150   6.106   9.635 -0.5359  0.2228 -0.9737
 6062TIP3   OH242380   4.302   2.529   7.563 -0.5769 -1.2277 -0.6032
 6062TIP3    H142381   4.229   2.588   7.546 -1.1757 -1.3651  1.3291
 6062TIP3    H242382   4.379   2.586   7.560 -0.8738 -0.8401 -1.3150
 6063TIP3   OH242383   1.268   1.933   7.901  0.0917 -0.3463  0.0469
 6063TIP3    H142384   1.339   1.870   7.915 -0.3451 -1.0196 -0.6475
 6063TIP3    H242385   1.206   1.886   7.845 -0.7263  0.3627  0.3479
 6064TIP3   OH242386   0.920   2.030   8.089  0.2578  0.1490  0.7207
 6064TIP3    H142387   0.825   2.027   8.092  0.2658 -0.6150  0.4569
 6064TIP3    H242388   0.948   1.939   8.103  0.9180  0.2428  0.0855
 6065TIP3   OH242389   2.672   4.434   8.283 -0.5179  0.3320 -0.0394
 6065TIP3    H142390   2.694   4.484   8.204  0.5776 -0.3410 -0.1675
 6065TIP3    H242391   2.756   4.415   8.325 -1.0619  0.3894  1.1274
 6066TIP3   OH242392   2.380   2.507   8.143  0.5929 -0.8944  0.6849
 6066TIP3    H142393   2.448   2.462   8.093  0.8521  0.1157  0.1047
 6066TIP3    H242394   2.388   2.599   8.117  0.1691 -0.4861  1.9651
 6067TIP3   OH242395   1.240   5.024   7.775 -0.1000 -0.2539  0.0940
 6067TIP3    H142396   1.281   4.952   7.727 -0.3304  0.9410 -2.0372
 6067TIP3    H242397   1.195   5.075   7.707 -0.5759  1.4639  1.6227
 6068TIP3   OH242398   2.610   1.870   8.073 -0.2677  0.0455  0.5225
 6068TIP3    H142399   2.698   1.836   8.057  0.1726  1.1043  0.6247
 6068TIP3    H242400   2.611   1.958   8.036 -1.8979 -0.5990 -1.2561
 6069TIP3   OH242401   1.651   1.593   7.768  0.6599  0.0953  0.0432
 6069TIP3    H142402   1.582   1.603   7.702  0.0381 -0.7028  0.5536
 6069TIP3    H242403   1.620   1.643   7.844  1.4251  1.1047 -0.2792
 6070TIP3   OH242404   1.207   1.688   8.983  0.6959 -0.3035  0.3803
 6070TIP3    H142405   1.220   1.605   9.030 -1.3334 -0.8668  0.0229
 6070TIP3    H242406   1.147   1.666   8.912  0.4075  1.4085  0.0639
 6071TIP3   OH242407   6.040   0.696   8.773 -0.4465 -0.4975 -0.2032
 6071TIP3    H142408   5.973   0.701   8.704 -0.1116 -0.1840 -0.5112
 6071TIP3    H242409   6.062   0.788   8.791  1.0198 -0.6237 -1.2057
 6072TIP3   OH242410   6.645   1.673   8.523 -0.4234  0.8503 -0.3249
 6072TIP3    H142411   6.568   1.635   8.565  0.4950 -0.0107  0.6190
 6072TIP3    H242412   6.636   1.650   8.430  1.2912 -4.0386  0.4251
 6073TIP3   OH242413   1.853   1.988   9.379  0.1013  0.0417  0.8041
 6073TIP3    H142414   1.863   2.065   9.434  1.4552  0.3951  0.1252
 6073TIP3    H242415   1.838   1.916   9.440 -1.6044  0.8884  1.4183
 6074TIP3   OH242416   6.824   7.070   8.764 -0.1668  0.3523  0.1173
 6074TIP3    H142417   6.805   7.076   8.857  0.0496 -1.2534  0.2969
 6074TIP3    H242418   6.749   7.024   8.727  0.3874 -0.2711 -0.2570
 6075TIP3   OH242419   7.728   3.066   8.934  0.9952 -0.0001  0.6883
 6075TIP3    H142420   7.723   3.039   8.842  1.0192  1.3866  0.2611
 6075TIP3    H242421   7.816   3.102   8.944  0.7537  0.5065  1.0635
 6076TIP3   OH242422   7.687   6.961   8.357  0.4657 -0.6110 -0.1576
 6076TIP3    H142423   7.725   6.887   8.406  0.5540 -0.9427 -0.7200
 6076TIP3    H242424   7.611   6.924   8.314  0.0664 -0.1810  0.1727
 6077TIP3   OH242425   5.532   5.250   9.995 -0.0382 -0.6704 -0.1849
 6077TIP3    H142426   5.548   5.326  10.052  0.7804  0.7816 -2.2275
 6077TIP3    H242427   5.592   5.183  10.027 -0.9214 -0.5804  1.7992
 6078TIP3   OH242428   3.667   5.764   9.108 -0.2071  0.0956 -0.4282
 6078TIP3    H142429   3.627   5.792   9.190 -1.0567 -1.6779 -0.1933
 6078TIP3    H242430   3.694   5.674   9.124 -0.4102 -0.2904 -2.0991
 6079TIP3   OH242431   3.740   1.248   7.872  0.4103  0.3882 -0.1377
 6079TIP3    H142432   3.807   1.199   7.824 -0.2931 -0.7666  0.0034
 6079TIP3    H242433   3.778   1.260   7.959  0.7678  0.4550 -0.3025
 6080TIP3   OH242434   8.046   4.310   8.676  0.0915 -0.4003 -0.1794
 6080TIP3    H142435   7.959   4.315   8.637  0.0015  1.4378  0.1779
 6080TIP3    H242436   8.076   4.221   8.657 -1.7511 -0.9795 -0.5232
 6081TIP3   OH242437   0.386   6.422   8.920 -0.5613  0.4612 -0.4291
 6081TIP3    H142438   0.480   6.416   8.906 -0.2873  1.1329  1.0070
 6081TIP3    H242439   0.357   6.331   8.927 -0.0688  0.2459 -1.0905
 6082TIP3   OH242440   4.297   0.209   9.391  0.2026  0.5658 -0.4102
 6082TIP3    H142441   4.314   0.260   9.312  0.2443 -0.0862 -0.8342
 6082TIP3    H242442   4.318   0.119   9.366 -0.8315  0.1915  0.0093
 6083TIP3   OH242443   5.796   3.426   8.585  0.3969 -0.1029 -0.4379
 6083TIP3    H142444   5.865   3.486   8.555 -0.2684  1.5788  1.2061
 6083TIP3    H242445   5.822   3.402   8.674 -0.8227  0.0764 -0.0140
 6084TIP3   OH242446   5.498   5.974   8.900  0.8863  0.2366  0.2864
 6084TIP3    H142447   5.479   5.965   8.993  0.4677 -0.1655  0.1629
 6084TIP3    H242448   5.467   5.893   8.861  2.6900 -0.3947  0.0478
 6085TIP3   OH242449   0.108   2.538   7.897 -0.6655 -0.0361 -0.4892
 6085TIP3    H142450   0.187   2.546   7.950 -0.6968 -2.6485  0.0598
 6085TIP3    H242451   0.131   2.475   7.828 -1.6979  0.6478 -1.5072
 6086TIP3   OH242452   1.946   3.465   9.584  0.1931 -0.8134  0.0143
 6086TIP3    H142453   1.934   3.554   9.617  0.5640 -0.8335  0.2079
 6086TIP3    H242454   1.858   3.426   9.585  0.3173 -1.0989  1.7696
 6087TIP3   OH242455   1.242   2.750   7.865  0.1435 -0.4617  0.0787
 6087TIP3    H142456   1.285   2.665   7.856 -0.2163 -0.7524  0.9702
 6087TIP3    H242457   1.158   2.738   7.821 -1.1823 -1.5563  2.6885
 6088TIP3   OH242458   7.922   5.343   9.520  0.6451 -0.1937  0.1033
 6088TIP3    H142459   7.886   5.320   9.606  0.2425 -0.5564 -0.1582
 6088TIP3    H242460   7.958   5.431   9.532 -2.0602  1.0372 -0.1145
 6089TIP3   OH242461   6.008   2.803   9.242 -0.0922 -0.0014  0.1475
 6089TIP3    H142462   6.015   2.715   9.204 -0.2343  0.2119 -0.3902
 6089TIP3    H242463   5.914   2.821   9.243 -0.2180 -0.5732  1.9680
 6090TIP3   OH242464   4.820   2.731   7.796  0.4143 -0.6851 -0.6680
 6090TIP3    H142465   4.880   2.665   7.832  1.0059  1.2814  2.3341
 6090TIP3    H242466   4.876   2.788   7.744  1.0509  0.4873  1.1980
 6091TIP3   OH242467   5.773   3.409   7.508 -0.2321 -0.7044 -0.1063
 6091TIP3    H142468   5.808   3.475   7.448  1.0690 -0.1548  1.1870
 6091TIP3    H242469   5.843   3.343   7.515  0.2616 -0.0636  1.8063
 6092TIP3   OH242470   7.570   4.854   8.360 -0.6724  0.4746  0.0765
 6092TIP3    H142471   7.654   4.848   8.406 -0.4901  2.1410  0.0198
 6092TIP3    H242472   7.582   4.800   8.282 -0.9482 -2.2887  1.8107
 6093TIP3   OH242473   0.010   4.324   8.445  0.0809  0.2648  0.2792
 6093TIP3    H142474   0.038   4.368   8.526 -0.1200 -0.4623  0.7568
 6093TIP3    H242475  -0.058   4.381   8.409 -0.2963  0.2661  0.9787
 6094TIP3   OH242476   5.429   1.226   9.602 -0.2712  0.4895 -0.0197
 6094TIP3    H142477   5.496   1.294   9.616 -0.0831  0.2506  0.2430
 6094TIP3    H242478   5.479   1.146   9.587 -0.4938  0.0570  1.4103
 6095TIP3   OH242479   6.462   7.345   9.115 -0.0109  0.8233 -0.3219
 6095TIP3    H142480   6.428   7.386   9.036 -0.9134 -0.8103 -0.8240
 6095TIP3    H242481   6.384   7.332   9.170  0.3732  0.4771  0.1457
 6096TIP3   OH242482   7.505   3.595   7.960 -0.4304  0.0905  0.2225
 6096TIP3    H142483   7.442   3.524   7.972 -1.7203  1.1973  0.3068
 6096TIP3    H242484   7.483   3.632   7.874  1.3012 -0.6007 -0.5787
 6097TIP3   OH242485   2.453   4.213   8.240 -0.2595  0.4208  0.0866
 6097TIP3    H142486   2.544   4.244   8.241  0.0410  0.0419 -3.0550
 6097TIP3    H242487   2.413   4.259   8.167 -2.6713  0.5902  1.4170
 6098TIP3   OH242488   5.546   5.616  10.594  0.3792 -0.5520  0.6696
 6098TIP3    H142489   5.564   5.694  10.542  1.2342 -0.2420  1.3961
 6098TIP3    H242490   5.618   5.612  10.657  0.5641 -2.1421  0.4114
 6099TIP3   OH242491   5.081   0.390   9.159  0.3449  0.9896 -0.3625
 6099TIP3    H142492   5.082   0.485   9.171 -0.9124  1.5381 -3.5414
 6099TIP3    H242493   4.991   0.370   9.134  1.1126 -0.6537 -2.0769
 6100TIP3   OH242494   1.178   8.235   7.940 -0.4340 -0.8323 -0.1858
 6100TIP3    H142495   1.211   8.275   8.021  0.3119 -1.3859 -0.1999
 6100TIP3    H242496   1.108   8.177   7.969 -1.9560  0.8973 -0.2289
 6101TIP3   OH242497   3.213   6.129   8.000 -0.2098  0.4618 -0.0400
 6101TIP3    H142498   3.138   6.141   7.942 -0.1094  1.3018 -0.0069
 6101TIP3    H242499   3.253   6.216   8.006  0.5670  0.0936  0.2121
 6102TIP3   OH242500   4.718   4.912   9.711 -0.5191  0.1597  0.1688
 6102TIP3    H142501   4.718   4.889   9.618 -0.6888 -2.7533  0.7936
 6102TIP3    H242502   4.630   4.889   9.741  0.0599 -0.6489  1.3670
 6103TIP3   OH242503   0.079   5.700   8.825  0.0700 -0.5372  0.5286
 6103TIP3    H142504   0.058   5.790   8.849 -0.3207 -0.3094 -0.6010
 6103TIP3    H242505   0.096   5.703   8.731 -1.6062 -1.9110  0.1136
 6104TIP3   OH242506   5.130   2.641   9.546  0.5099 -0.4341  0.5348
 6104TIP3    H142507   5.051   2.604   9.586 -2.4125  0.6895 -3.5433
 6104TIP3    H242508   5.143   2.724   9.592 -1.1743 -0.3125  0.8784
 6105TIP3   OH242509   2.410   3.745   9.573  0.3908  0.1236  0.0372
 6105TIP3    H142510   2.364   3.693   9.638 -0.5893 -1.2084 -1.6288
 6105TIP3    H242511   2.498   3.706   9.569  0.4317  0.1684  0.5047
 6106TIP3   OH242512   5.184   3.955   7.902  0.3537 -0.0955 -0.8405
 6106TIP3    H142513   5.131   4.008   7.842 -1.4917 -1.2598 -0.3273
 6106TIP3    H242514   5.208   4.015   7.972  1.9202  1.0971 -2.3069
 6107TIP3   OH242515   5.008   6.796   8.068 -0.5529 -0.1326 -0.3067
 6107TIP3    H142516   5.009   6.783   8.162  0.9506 -0.2405 -0.3120
 6107TIP3    H242517   5.096   6.770   8.039 -0.4517  1.4044 -1.5143
 6108TIP3   OH242518   2.099   2.833   8.387  0.5965 -0.7353 -0.0696
 6108TIP3    H142519   2.081   2.906   8.328 -0.8372 -0.6757  0.4006
 6108TIP3    H242520   2.194   2.835   8.400  0.8360 -0.2169 -1.6671
 6109TIP3   OH242521   1.428   3.497   7.723  0.1740 -0.4385  0.0490
 6109TIP3    H142522   1.414   3.577   7.672 -2.2153  0.8595  2.4640
 6109TIP3    H242523   1.348   3.446   7.710  0.2644 -0.8688  1.1010
 6110TIP3   OH242524   1.424   1.852   8.963 -0.2546  0.2252  0.2178
 6110TIP3    H142525   1.415   1.913   8.890  0.6820 -1.4056 -1.3443
 6110TIP3    H242526   1.339   1.808   8.968 -0.0016 -0.3789 -0.5991
 6111TIP3   OH242527   8.097   3.447   8.940 -0.1330  0.2389  0.0362
 6111TIP3    H142528   8.059   3.497   8.868 -1.2977  1.0286  1.1451
 6111TIP3    H242529   8.031   3.451   9.009  1.7313  1.1852  1.8719
 6112TIP3   OH242530   8.124   1.884   9.089  0.4082 -0.2748 -0.2415
 6112TIP3    H142531   8.137   1.841   9.005 -0.4136 -0.8710 -0.0705
 6112TIP3    H242532   8.049   1.840   9.128 -0.1158  0.9600  0.1872
 6113TIP3   OH242533   0.844   7.321   8.630  0.0662 -0.9665  0.1305
 6113TIP3    H142534   0.817   7.276   8.551 -0.8975  0.6584 -0.5009
 6113TIP3    H242535   0.763   7.350   8.671  0.6695  1.3053 -0.1800
 6114TIP3   OH242536   0.882   2.373   9.444 -0.0470 -0.4534 -0.6650
 6114TIP3    H142537   0.947   2.336   9.504  0.6474  0.1368 -1.0343
 6114TIP3    H242538   0.863   2.459   9.481 -0.4125 -0.5123 -0.7166
 6115TIP3   OH242539   4.694   7.292   8.683  0.5440 -0.1884 -0.7347
 6115TIP3    H142540   4.717   7.245   8.763 -1.9322  1.0634  0.8623
 6115TIP3    H242541   4.777   7.321   8.647  1.8444 -2.1025  0.5057
 6116TIP3   OH242542   4.746   2.719   9.171 -0.5956 -0.0536  0.0074
 6116TIP3    H142543   4.815   2.687   9.228 -1.9786  0.2438  1.9357
 6116TIP3    H242544   4.670   2.665   9.192 -0.9785 -0.4708 -2.1622
 6117TIP3   OH242545   0.946   6.844   8.402 -0.1649 -0.5189  0.5843
 6117TIP3    H142546   0.898   6.783   8.346 -1.1934  0.7349  0.0721
 6117TIP3    H242547   0.889   6.920   8.411  1.3467  0.6523  0.7052
 6118TIP3   OH242548   7.538   5.864   8.719 -0.6250  0.0023 -0.6099
 6118TIP3    H142549   7.499   5.914   8.790  3.0664  1.7596  0.4061
 6118TIP3    H242550   7.500   5.901   8.640 -2.1028  0.5162  0.2967
 6119TIP3   OH242551   7.361   2.645   8.599 -0.0885  0.4280 -0.1625
 6119TIP3    H142552   7.439   2.597   8.572 -1.1982 -0.9427 -1.0980
 6119TIP3    H242553   7.308   2.652   8.520 -1.0212  1.1046  0.5010
 6120TIP3   OH242554   4.713   3.605  10.294  1.2431  0.2994 -0.1649
 6120TIP3    H142555   4.759   3.526  10.265  1.6859  0.4918  0.0012
 6120TIP3    H242556   4.765   3.677  10.257  0.5063  0.5085 -0.8141
 6121TIP3   OH242557   4.985   5.537  10.067  0.1786  0.4730 -0.4637
 6121TIP3    H142558   4.997   5.462  10.009  2.1268  0.3669  0.0341
 6121TIP3    H242559   4.953   5.607  10.010  2.6933  0.5740 -1.8424
 6122TIP3   OH242560   1.524   7.307   8.791 -0.4787 -0.3223  0.0810
 6122TIP3    H142561   1.528   7.402   8.782  1.6905 -0.1424  2.0654
 6122TIP3    H242562   1.462   7.292   8.862  0.1993 -0.2908  0.6866
 6123TIP3   OH242563   6.071   7.841   8.081  0.6510  0.5732 -0.3896
 6123TIP3    H142564   6.044   7.784   8.009  0.2377 -1.3443  1.2095
 6123TIP3    H242565   6.157   7.873   8.055  0.8290 -0.6646 -1.4036
 6124TIP3   OH242566   1.771   3.962   7.632 -0.3285  0.1410  0.7825
 6124TIP3    H142567   1.767   4.035   7.693 -1.1398 -0.6611  1.7402
 6124TIP3    H242568   1.712   3.896   7.670 -1.9572  0.1186 -1.5579
 6125TIP3   OH242569   4.529   4.305   9.434  0.1557 -0.2335 -0.3700
 6125TIP3    H142570   4.500   4.244   9.366 -0.3935 -0.8822  0.4289
 6125TIP3    H242571   4.555   4.249   9.507  0.0205  0.4741  0.2298
 6126TIP3   OH242572   4.452   2.986   7.984  0.2570  0.2245  0.6459
 6126TIP3    H142573   4.486   3.010   7.898 -0.0246  0.3592  0.5732
 6126TIP3    H242574   4.528   2.993   8.042  0.0921  1.7057  0.7128
 6127TIP3   OH242575   1.946   5.290   8.543 -0.3123 -0.1468 -0.1516
 6127TIP3    H142576   1.953   5.232   8.467  0.5566 -0.1777 -0.0531
 6127TIP3    H242577   1.852   5.303   8.554 -0.4303  1.1830 -2.2226
 6128TIP3   OH242578   0.689   6.566   8.403 -0.2649 -0.5940  0.2888
 6128TIP3    H142579   0.738   6.588   8.324 -0.1132 -1.5339  0.1008
 6128TIP3    H242580   0.624   6.635   8.411  0.4595  0.1462 -0.0053
 6129TIP3   OH242581   3.797   5.825   9.390 -0.1867  0.9959  0.1614
 6129TIP3    H142582   3.803   5.919   9.373 -1.0750  0.9138 -0.7383
 6129TIP3    H242583   3.868   5.786   9.339 -1.5531  0.9522 -1.8454
 6130TIP3   OH242584   4.771   3.646   9.327 -0.4088  0.6193 -0.0908
 6130TIP3    H142585   4.694   3.594   9.351 -0.2283 -0.9694 -2.6027
 6130TIP3    H242586   4.740   3.702   9.256  0.3519  1.2351  0.0514
 6131TIP3   OH242587   2.871   5.243   8.185 -0.3546  0.1607  0.5184
 6131TIP3    H142588   2.779   5.219   8.193 -0.4288  0.0529 -0.5283
 6131TIP3    H242589   2.874   5.336   8.208 -1.0367  0.6422 -1.1752
 6132TIP3   OH242590   6.051   2.503   8.791 -0.0072  0.1317 -0.2292
 6132TIP3    H142591   6.047   2.409   8.812  0.7933  0.0623 -0.3517
 6132TIP3    H242592   6.091   2.543   8.869  0.0961  0.3048 -0.3710
 6133TIP3   OH242593   7.441   5.295   8.379  0.2851 -0.4140  0.1307
 6133TIP3    H142594   7.517   5.284   8.436 -0.0095 -1.5736  0.3284
 6133TIP3    H242595   7.466   5.365   8.319  2.0438 -1.6654 -0.6782
 6134TIP3   OH242596   6.162   0.429   8.827 -0.2484 -0.6069 -0.5620
 6134TIP3    H142597   6.134   0.515   8.799  0.0119 -0.1736  0.4566
 6134TIP3    H242598   6.252   0.421   8.795 -0.6431 -0.9636 -1.6169
 6135TIP3   OH242599   1.598   2.518   9.685  0.0591  0.1292 -0.0636
 6135TIP3    H142600   1.651   2.441   9.662  0.2535 -0.1984  1.3868
 6135TIP3    H242601   1.590   2.567   9.603  0.9981 -0.7932 -0.7332
 6136TIP3   OH242602   2.304   1.004   9.743 -0.3293  0.3413  0.1949
 6136TIP3    H142603   2.289   1.070   9.675  1.8716  0.1479 -0.5580
 6136TIP3    H242604   2.250   1.033   9.816 -2.0246  1.0983 -1.2752
 6137TIP3   OH242605   6.627   7.598  10.477 -0.3334 -0.0638  0.3308
 6137TIP3    H142606   6.611   7.514  10.518  1.8267 -1.1041 -0.7844
 6137TIP3    H242607   6.547   7.617  10.429 -1.0266 -1.2293  0.9748
 6138TIP3   OH242608   1.668   7.059   9.258  0.4265 -0.4176  0.0516
 6138TIP3    H142609   1.716   6.991   9.306 -1.0038 -0.1287  1.9941
 6138TIP3    H242610   1.654   7.129   9.322  0.2057  0.9116 -1.3794
 6139TIP3   OH242611   8.221   4.828   9.661  1.1459 -0.0170  0.5513
 6139TIP3    H142612   8.205   4.820   9.567 -0.1547 -1.9117  0.8651
 6139TIP3    H242613   8.313   4.852   9.668  1.8204 -1.8137 -1.1797
 6140TIP3   OH242614   0.471   7.397   9.297  0.4899 -0.1378  0.3401
 6140TIP3    H142615   0.384   7.428   9.271 -0.0286 -0.8542  1.1695
 6140TIP3    H242616   0.515   7.377   9.214  0.0882  0.7898 -0.1130
 6141TIP3   OH242617   3.162   6.660   8.360 -0.2503 -0.0696  0.1398
 6141TIP3    H142618   3.251   6.692   8.377 -1.0081  0.9837  2.6085
 6141TIP3    H242619   3.170   6.565   8.360  0.6723 -0.0406  1.9799
 6142TIP3   OH242620   4.765   4.779   8.782 -0.3340  0.0403 -0.3512
 6142TIP3    H142621   4.858   4.787   8.762 -0.5672 -0.1768 -1.6304
 6142TIP3    H242622   4.745   4.855   8.837  0.8496 -0.5974  1.0250
 6143TIP3   OH242623   4.785   6.135  10.062 -0.0976 -0.4288 -0.0748
 6143TIP3    H142624   4.718   6.082  10.019 -0.0562  1.9330 -3.3720
 6143TIP3    H242625   4.739   6.212  10.093  0.9092  1.1154 -2.1777
 6144TIP3   OH242626   1.282   0.538   7.782  0.0574 -0.5012  1.0596
 6144TIP3    H142627   1.364   0.580   7.807  1.7476 -2.1055 -1.3869
 6144TIP3    H242628   1.290   0.523   7.688 -3.2744 -0.3322  0.6207
 6145TIP3   OH242629   1.939   4.914   8.788 -0.6326  0.7770 -0.0841
 6145TIP3    H142630   1.847   4.917   8.761 -0.9810  0.6032  1.0422
 6145TIP3    H242631   1.955   4.998   8.830 -0.3048  0.7643 -0.1770
 6146TIP3   OH242632   2.628   1.640   9.392  0.2067 -0.4249  0.4958
 6146TIP3    H142633   2.546   1.607   9.429  0.2658 -0.5599  0.5087
 6146TIP3    H242634   2.696   1.602   9.448  0.2076  1.5857  1.9874
 6147TIP3   OH242635   5.987   3.235   7.544  0.1289 -0.7744 -0.7942
 6147TIP3    H142636   6.057   3.299   7.558 -0.3171 -0.1195 -1.4667
 6147TIP3    H242637   6.017   3.156   7.588 -0.3975  0.6024  2.2515
 6148TIP3   OH242638   7.870   7.670   8.318  0.2384 -0.6493  0.2204
 6148TIP3    H142639   7.949   7.724   8.325  0.9973 -1.9184  2.2055
 6148TIP3    H242640   7.800   7.733   8.300  1.2676  0.8326  1.1450
 6149TIP3   OH242641   6.401   3.872   8.446 -0.1031 -0.2283 -0.5770
 6149TIP3    H142642   6.419   3.966   8.446  0.8302 -0.3991  0.0993
 6149TIP3    H242643   6.400   3.848   8.354 -0.2954  0.4291 -0.7529
 6150TIP3   OH242644   1.676   6.495   8.286  0.0018 -0.0740 -0.2532
 6150TIP3    H142645   1.670   6.552   8.362  2.1654 -0.5513  0.3501
 6150TIP3    H242646   1.730   6.543   8.223  1.3882 -1.1629  0.0470
 6151TIP3   OH242647   6.502   5.844   8.000  0.2399  0.3555  0.1080
 6151TIP3    H142648   6.508   5.778   7.931  1.1237 -0.2257  0.7243
 6151TIP3    H242649   6.417   5.827   8.041  1.8363 -2.7812  2.5428
 6152TIP3   OH242650   6.967   2.339   7.782  0.5483  0.5069 -0.8779
 6152TIP3    H142651   6.920   2.258   7.804  2.2286 -0.2330  0.1336
 6152TIP3    H242652   7.032   2.312   7.717  1.2990  0.9653 -0.3337
 6153TIP3   OH242653   4.102   5.709   9.610  0.1057 -0.0667  0.4032
 6153TIP3    H142654   4.196   5.715   9.626  0.0731 -0.4616  0.7795
 6153TIP3    H242655   4.094   5.674   9.521  0.2987  1.4218 -0.2200
 6154TIP3   OH242656   5.321   4.089  10.118  0.2781 -0.2098 -0.1953
 6154TIP3    H142657   5.306   4.121  10.207  0.6187 -0.2122 -0.1367
 6154TIP3    H242658   5.380   4.153  10.079  1.5510 -1.1183  0.1577
 6155TIP3   OH242659   6.611   4.233   9.448  0.3184  0.0030 -0.0294
 6155TIP3    H142660   6.704   4.210   9.454 -0.1264 -2.3894 -1.2324
 6155TIP3    H242661   6.579   4.225   9.538  1.3813  1.6801  0.5584
 6156TIP3   OH242662   0.921   3.078   9.027 -0.2084  0.2570  0.8882
 6156TIP3    H142663   0.866   3.097   8.951 -0.1584 -1.1157  0.4668
 6156TIP3    H242664   1.009   3.104   9.000 -0.1205 -0.5917  0.2853
 6157TIP3   OH242665   5.927   2.621   9.438 -0.1688  0.7208 -0.2843
 6157TIP3    H142666   5.974   2.673   9.373 -0.5770  0.1947 -1.0055
 6157TIP3    H242667   5.917   2.535   9.398  1.5743 -0.3383  1.3501
 6158TIP3   OH242668   0.945   8.047   7.966  0.2846 -0.0359 -0.0310
 6158TIP3    H142669   0.859   8.070   7.931 -0.0153 -1.8455 -0.5688
 6158TIP3    H242670   0.993   8.011   7.891  1.2049  0.1519  0.4558
 6159TIP3   OH242671   1.296   5.859   7.934 -0.0975 -0.2065 -0.1619
 6159TIP3    H142672   1.382   5.817   7.935  0.6681  1.1397 -2.2533
 6159TIP3    H242673   1.250   5.818   7.861 -0.3587  0.6785 -0.5034
 6160TIP3   OH242674   3.289   8.336   8.977  0.1545 -0.7143  0.0670
 6160TIP3    H142675   3.270   8.386   8.897 -0.9726  0.2554  0.8944
 6160TIP3    H242676   3.366   8.284   8.955 -0.5359 -1.0022 -1.8742
 6161TIP3   OH242677   5.341   8.216   9.343  0.0728 -0.0222 -0.3367
 6161TIP3    H142678   5.284   8.274   9.292  0.5461  0.6460 -0.1171
 6161TIP3    H242679   5.295   8.203   9.426 -0.9265 -1.4949 -1.0900
 6162TIP3   OH242680   4.684   7.272   9.918 -1.3006  0.4242 -0.6437
 6162TIP3    H142681   4.740   7.329   9.865  0.4681 -1.2426 -0.6986
 6162TIP3    H242682   4.658   7.327   9.992  0.1015  1.3915 -0.8213
 6163TIP3   OH242683   1.015   7.645   9.525  0.6426  0.6750 -0.1153
 6163TIP3    H142684   1.063   7.575   9.569 -0.1828 -0.5493 -1.0995
 6163TIP3    H242685   0.926   7.639   9.561 -0.2613 -0.8403 -2.3444
 6164TIP3   OH242686   0.123   0.091   8.047  0.4917  0.2444 -0.0170
 6164TIP3    H142687   0.118   0.029   8.119  0.8700  0.0880 -0.1225
 6164TIP3    H242688   0.214   0.089   8.019 -0.0535 -1.3063 -1.9097
 6165TIP3   OH242689   7.633   7.693  10.118 -0.5249 -0.0943  0.3884
 6165TIP3    H142690   7.676   7.649  10.192 -1.0670 -1.0292  0.1641
 6165TIP3    H242691   7.613   7.622  10.057 -2.4761  0.2884  0.5259
 6166TIP3   OH242692   5.418   5.921   9.144 -0.3817  0.2628  0.4442
 6166TIP3    H142693   5.348   5.910   9.208  0.0960 -0.2974  0.8817
 6166TIP3    H242694   5.496   5.935   9.196  0.1186 -0.7798  0.0201
 6167TIP3   OH242695   6.547   3.617   9.066 -0.2083  0.2933 -0.1296
 6167TIP3    H142696   6.617   3.583   9.122 -1.4178 -1.1376  0.5636
 6167TIP3    H242697   6.530   3.546   9.004 -2.4869 -0.3061  1.0637
 6168TIP3   OH242698   6.612   6.505   8.827  0.2194  0.0297  0.2317
 6168TIP3    H142699   6.533   6.451   8.819 -1.1764  1.9672  0.1750
 6168TIP3    H242700   6.651   6.503   8.740 -0.3239 -0.1422 -0.0130
 6169TIP3   OH242701   5.012   8.061  13.456 -0.6385  0.2183  0.2330
 6169TIP3    H142702   4.920   8.080  13.437 -0.6057  0.6098  0.4670
 6169TIP3    H242703   5.038   7.998  13.388 -1.3318 -0.5878  0.7006
 6170TIP3   OH242704   4.186   7.506   9.037 -0.2525  0.1334  0.0390
 6170TIP3    H142705   4.129   7.448   8.987 -1.4326 -0.3222  1.8176
 6170TIP3    H242706   4.181   7.590   8.990 -2.3099  0.0769  0.0533
 6171TIP3   OH242707   7.645   7.162   8.143  0.2333 -0.2372 -0.1764
 6171TIP3    H142708   7.578   7.224   8.172 -0.0538 -0.0100 -1.3134
 6171TIP3    H242709   7.651   7.098   8.215 -0.0966  0.5918  0.6118
 6172TIP3   OH242710   2.817   7.342   8.089 -0.0701  0.4078  0.1773
 6172TIP3    H142711   2.801   7.425   8.134 -1.9155  0.6802 -0.9197
 6172TIP3    H242712   2.797   7.275   8.155 -2.5427  0.8080 -0.1015
 6173TIP3   OH242713   6.527   0.256   9.045  0.1150  0.1124 -0.0125
 6173TIP3    H142714   6.483   0.309   9.113 -1.1834  0.0209 -0.7495
 6173TIP3    H242715   6.476   0.272   8.966  1.1866 -0.3464 -0.8123
 6174TIP3   OH242716   1.339   7.390   8.524  0.2253 -0.5393  0.0517
 6174TIP3    H142717   1.361   7.446   8.599  0.6034  0.9679 -1.1371
 6174TIP3    H242718   1.423   7.361   8.490  0.3090  1.7190 -1.8996
 6175TIP3   OH242719   6.701   5.746   8.844  0.0672 -0.7949  0.4059
 6175TIP3    H142720   6.699   5.731   8.749 -2.8679 -0.2136  0.2776
 6175TIP3    H242721   6.714   5.659   8.882  0.5749 -1.1320 -0.5138
 6176TIP3   OH242722   4.537   2.250   7.949  0.5785 -0.1457  0.4650
 6176TIP3    H142723   4.479   2.301   7.892  2.6329  2.3159  0.4176
 6176TIP3    H242724   4.583   2.191   7.890 -1.5400 -1.9134  0.4653
 6177TIP3   OH242725   1.016   4.031   8.251 -0.4518  0.1841 -0.0851
 6177TIP3    H142726   1.004   3.960   8.188  0.6317 -1.5765  1.5966
 6177TIP3    H242727   1.102   4.016   8.289 -0.2686  2.3238  0.4890
 6178TIP3   OH242728   4.676   1.209   8.278  0.1338 -0.3269 -0.5420
 6178TIP3    H142729   4.614   1.208   8.351  0.8588 -0.8877  0.0950
 6178TIP3    H242730   4.761   1.222   8.320  0.5649 -0.6833 -1.2874
 6179TIP3   OH242731   5.717   0.983   8.795 -0.1391  0.4266  0.2375
 6179TIP3    H142732   5.669   1.052   8.839 -1.3271  0.9591 -1.7699
 6179TIP3    H242733   5.653   0.912   8.783  0.4717 -0.1611  0.3795
 6180TIP3   OH242734   5.787   0.292   8.645  0.7249 -0.0429  0.1845
 6180TIP3    H142735   5.731   0.306   8.569  1.2489 -2.1072 -0.6610
 6180TIP3    H242736   5.744   0.339   8.716 -0.3256  1.0852 -1.1501
 6181TIP3   OH242737   2.495   0.557   7.981 -0.6695 -0.9875 -0.0525
 6181TIP3    H142738   2.413   0.525   8.019 -0.5554  0.1461  1.2287
 6181TIP3    H242739   2.482   0.652   7.972  0.8068 -0.6593  1.0089
 6182TIP3   OH242740   0.628   5.717   8.218  0.1491 -0.0019 -0.2195
 6182TIP3    H142741   0.593   5.805   8.233  0.1723  0.0957 -0.7330
 6182TIP3    H242742   0.551   5.663   8.201  0.0847 -0.2040  0.6618
 6183TIP3   OH242743   4.926   3.371   8.540 -0.3101 -0.4856 -0.2489
 6183TIP3    H142744   4.948   3.313   8.613  0.5236  0.6029  0.4019
 6183TIP3    H242745   4.970   3.453   8.561 -0.6791  0.0901 -1.6162
 6184TIP3   OH242746   2.436   1.536   9.557  0.1620 -0.3689 -0.2869
 6184TIP3    H142747   2.495   1.533   9.633  0.6305  1.3218 -0.5351
 6184TIP3    H242748   2.437   1.446   9.522 -0.0324 -1.1699  1.6497
 6185TIP3   OH242749   1.436   1.296   8.962 -0.0095 -0.0528 -0.5141
 6185TIP3    H142750   1.457   1.386   8.940 -1.7292 -0.0256 -2.2791
 6185TIP3    H242751   1.408   1.299   9.054  0.0964  1.1596 -0.5159
 6186TIP3   OH242752   7.194   8.427  10.413  0.4306  0.3760  0.5878
 6186TIP3    H142753   7.163   8.336  10.413 -0.2864  0.6052  0.0239
 6186TIP3    H242754   7.160   8.464  10.331  1.0797  1.0353  0.5958
 6187TIP3   OH242755   8.247   6.580   8.063  0.2832 -0.1915 -0.5796
 6187TIP3    H142756   8.152   6.588   8.059  0.3690  0.4634 -1.9402
 6187TIP3    H242757   8.267   6.580   8.156 -1.0589 -0.5764 -0.2621
 6188TIP3   OH242758   8.329   7.747   8.803 -0.2588 -0.1740 -0.3960
 6188TIP3    H142759   8.307   7.710   8.718 -3.2376  1.5964 -0.5556
 6188TIP3    H242760   8.273   7.700   8.865  3.2007 -2.7839  1.0739
 6189TIP3   OH242761   7.043   2.717   8.991  0.1240  0.0960 -0.2431
 6189TIP3    H142762   6.951   2.738   8.977  0.1022 -0.3035 -0.7460
 6189TIP3    H242763   7.086   2.744   8.910  0.2152 -1.0319 -0.5940
 6190TIP3   OH242764   1.448   1.815   8.436 -0.1905  0.0421  0.3945
 6190TIP3    H142765   1.360   1.818   8.474 -0.3188  0.4504  0.0689
 6190TIP3    H242766   1.475   1.906   8.430  0.4991 -0.1063  1.0442
 6191TIP3   OH242767   5.758   8.171   9.199 -0.5596 -0.2685  0.2927
 6191TIP3    H142768   5.701   8.104   9.162 -0.4391 -0.5709  0.6603
 6191TIP3    H242769   5.700   8.246   9.215 -0.4778  0.1762 -1.2759
 6192TIP3   OH242770   5.371   5.228   8.266  0.4180  0.0793  0.0034
 6192TIP3    H142771   5.328   5.268   8.342 -0.3785  1.0582 -0.9266
 6192TIP3    H242772   5.378   5.136   8.289  0.2764  0.3669  1.3033
 6193TIP3   OH242773   5.966   3.595   8.485 -0.4596 -0.0388 -0.3316
 6193TIP3    H142774   5.948   3.658   8.416  0.2723  0.6547  0.0948
 6193TIP3    H242775   6.060   3.601   8.500 -0.8419  1.1590  1.9636
 6194TIP3   OH242776   1.473   1.315   7.758 -0.2992  0.2814  0.2601
 6194TIP3    H142777   1.468   1.284   7.848 -1.8553 -0.6129 -0.0934
 6194TIP3    H242778   1.397   1.275   7.715 -0.4254  1.8651 -1.0801
 6195TIP3   OH242779   1.822   2.765   8.283 -0.4055  0.8712  0.0659
 6195TIP3    H142780   1.787   2.850   8.310  0.4151  1.5588 -0.9307
 6195TIP3    H242781   1.917   2.773   8.298 -0.2114  0.4711 -0.8913
 6196TIP3   OH242782   5.941   3.844   9.826 -0.4300 -0.3263  0.1023
 6196TIP3    H142783   5.895   3.787   9.888  1.1052 -0.4521  1.1767
 6196TIP3    H242784   6.023   3.799   9.808 -0.3225  0.3015 -1.1129
 6197TIP3   OH242785   5.537   4.875   8.227 -0.0480 -0.8476  0.5825
 6197TIP3    H142786   5.582   4.889   8.311  0.2421 -0.5857  0.3882
 6197TIP3    H242787   5.570   4.946   8.171 -1.0229 -0.3889  0.5632
 6198TIP3   OH242788   6.647   1.069   8.031 -0.5056 -0.6312 -0.2682
 6198TIP3    H142789   6.602   1.049   7.949  0.9407  0.1108 -1.2898
 6198TIP3    H242790   6.739   1.048   8.013 -0.2271 -0.8842  1.3207
 6199TIP3   OH242791   5.337   6.018   8.354  0.1052  0.1926 -0.3618
 6199TIP3    H142792   5.266   6.002   8.292 -0.5491  1.0040  0.1637
 6199TIP3    H242793   5.316   6.103   8.394  1.0446  0.1552  0.2374
 6200TIP3   OH242794   7.236   6.045   7.653  0.0797  0.1694  0.2364
 6200TIP3    H142795   7.158   6.041   7.709  0.3654  0.3778  0.6558
 6200TIP3    H242796   7.202   6.068   7.566 -0.3841 -0.2891  0.2880
 6201TIP3   OH242797   3.314   3.723   8.464 -0.4184 -0.2395  0.0827
 6201TIP3    H142798   3.263   3.716   8.383  0.2309 -2.3723 -0.1954
 6201TIP3    H242799   3.401   3.748   8.434 -0.0692 -1.4376  0.0427
 6202TIP3   OH242800   6.510   6.072   8.820 -0.4779 -0.0237  0.5285
 6202TIP3    H142801   6.603   6.067   8.843  0.0492 -1.2994 -1.6275
 6202TIP3    H242802   6.472   5.991   8.855 -0.5915  0.0559  0.5926
 6203TIP3   OH242803   4.390   0.841   9.046 -0.1766 -0.4851 -0.3299
 6203TIP3    H142804   4.438   0.854   9.128  0.0801 -0.3791 -0.4967
 6203TIP3    H242805   4.326   0.912   9.044  0.5446  0.1647 -0.7475
 6204TIP3   OH242806   1.931   2.844   7.475 -0.0806  0.3669  0.4384
 6204TIP3    H142807   1.968   2.812   7.557  0.9916 -1.8080 -0.8126
 6204TIP3    H242808   2.006   2.847   7.415 -1.3966 -1.6247 -1.4390
 6205TIP3   OH242809   1.948   1.451   9.139 -0.3690  0.2162  0.0045
 6205TIP3    H142810   1.879   1.448   9.073 -0.5370  0.3811  0.1704
 6205TIP3    H242811   2.011   1.513   9.104  0.1899 -0.6803 -0.6175
 6206TIP3   OH242812   8.085   8.071   9.396  0.0529  0.7540 -0.5759
 6206TIP3    H142813   8.146   8.027   9.336  0.1546  0.6698 -0.4117
 6206TIP3    H242814   7.998   8.045   9.364  0.0908 -1.7304  1.0505
 6207TIP3   OH242815   2.827   7.673   7.904  0.7079 -0.7028 -0.1084
 6207TIP3    H142816   2.804   7.670   7.997 -1.3478  0.6567 -0.4972
 6207TIP3    H242817   2.907   7.726   7.901  0.3036 -0.0030  0.8423
 6208TIP3   OH242818   3.485   3.808   7.980  0.2316  0.4185 -0.2394
 6208TIP3    H142819   3.411   3.752   8.003  1.0621 -0.7329 -0.2981
 6208TIP3    H242820   3.445   3.894   7.961 -1.0332 -0.0760  0.0863
 6209TIP3   OH242821   0.045   2.890   8.743 -0.2463 -0.5693 -0.2638
 6209TIP3    H142822   0.096   2.971   8.740 -0.2117 -0.5691  0.1804
 6209TIP3    H242823  -0.037   2.915   8.784 -0.3082 -0.7219 -0.2951
 6210TIP3   OH242824   7.758   4.253   8.851  0.0517 -0.1205 -0.1298
 6210TIP3    H142825   7.669   4.226   8.825 -0.0450 -0.4944  0.5833
 6210TIP3    H242826   7.802   4.171   8.873 -0.3534  0.2567  2.4115
 6211TIP3   OH242827   8.268   7.234   8.832  0.2110 -0.0060  0.2485
 6211TIP3    H142828   8.339   7.296   8.815  0.2688 -0.0505  0.3248
 6211TIP3    H242829   8.265   7.226   8.928 -0.1003  0.2293  0.2577
 6212TIP3   OH242830   7.712   4.824   9.549 -0.0061  0.5631  0.3324
 6212TIP3    H142831   7.789   4.874   9.523 -0.9274  2.1891  0.5399
 6212TIP3    H242832   7.746   4.739   9.577  1.5933  0.9110 -0.4478
 6213TIP3   OH242833   7.152   3.136   9.711  0.0231  0.5740 -0.2219
 6213TIP3    H142834   7.123   3.045   9.711  1.8670 -0.0463 -0.1837
 6213TIP3    H242835   7.165   3.157   9.804  4.2658 -0.7834 -0.3073
 6214TIP3   OH242836   4.073   2.570   8.373  0.2233 -0.2555  0.3584
 6214TIP3    H142837   4.123   2.505   8.324 -0.0976 -0.7330  0.6527
 6214TIP3    H242838   4.001   2.520   8.412 -1.3700  0.6597 -1.2758
 6215TIP3   OH242839   8.190   2.016   8.796 -0.1672  0.1910  0.0561
 6215TIP3    H142840   8.117   2.077   8.802 -0.6916 -0.4860  0.8304
 6215TIP3    H242841   8.171   1.962   8.720 -0.3630  0.1737  0.1153
 6216TIP3   OH242842   0.223   1.421  10.083 -0.1091 -0.4097  0.7742
 6216TIP3    H142843   0.173   1.347  10.116 -0.1471 -0.8707 -0.2673
 6216TIP3    H242844   0.265   1.459  10.160 -0.8821 -0.9126  1.4488
 6217TIP3   OH242845   2.307   5.397   9.106  0.1029 -0.1165  0.3360
 6217TIP3    H142846   2.316   5.308   9.072 -2.4530 -0.2460 -0.1745
 6217TIP3    H242847   2.281   5.386   9.197 -0.9955  0.0630  0.0566
 6218TIP3   OH242848   2.846   1.765   9.185 -0.8447 -0.6470  0.3656
 6218TIP3    H142849   2.916   1.724   9.236  1.1428  0.5418 -1.2513
 6218TIP3    H242850   2.826   1.846   9.233  0.0769 -0.1832 -0.0155
 6219TIP3   OH242851   6.946   6.821   8.683  0.0762  0.3073 -0.0805
 6219TIP3    H142852   6.880   6.881   8.647  0.1583  0.6665  0.3507
 6219TIP3    H242853   6.908   6.790   8.765  0.1456 -0.0266 -0.1760
 6220TIP3   OH242854   3.755   1.879   9.108  0.3025 -0.5158  0.1293
 6220TIP3    H142855   3.770   1.785   9.113 -2.6994 -1.1466 -0.8038
 6220TIP3    H242856   3.690   1.897   9.175  1.7325  1.1944  1.1574
 6221TIP3   OH242857   6.329   7.334   8.876  0.2598 -0.3332 -0.6654
 6221TIP3    H142858   6.353   7.241   8.881  1.6743  0.0122 -0.3637
 6221TIP3    H242859   6.239   7.338   8.908  0.5399 -1.4815  0.3455
 6222TIP3   OH242860   6.992   1.944   8.760 -0.3127 -0.0409 -0.1943
 6222TIP3    H142861   7.061   1.913   8.702 -0.7299 -1.4703  0.0268
 6222TIP3    H242862   7.012   2.037   8.775  0.2572  0.1630 -1.9538
 6223TIP3   OH242863   1.766   6.548   9.173 -0.4585  0.1193 -0.4438
 6223TIP3    H142864   1.747   6.601   9.251 -1.0457  0.7640 -1.0136
 6223TIP3    H242865   1.681   6.530   9.135 -0.2834 -1.4539 -0.1501
 6224TIP3   OH242866   3.551   3.079   7.451 -0.1679  0.2838 -0.3840
 6224TIP3    H142867   3.616   3.092   7.382 -1.4921  1.9629 -1.4120
 6224TIP3    H242868   3.480   3.031   7.408 -0.6854  0.7077 -0.0167
 6225TIP3   OH242869   5.122   3.676   9.888 -0.9527  0.2007  0.0872
 6225TIP3    H142870   5.190   3.725   9.935 -2.1764  0.3219  1.8363
 6225TIP3    H242871   5.139   3.585   9.911 -0.4214  0.0667 -0.8045
 6226TIP3   OH242872   3.672   7.339  10.069  0.2056  0.3229 -0.4557
 6226TIP3    H142873   3.701   7.376  10.152  2.0133  0.9706 -1.3237
 6226TIP3    H242874   3.589   7.297  10.089  0.1984  1.1762  1.4916
 6227TIP3   OH242875   0.439   3.125   8.930 -0.3848  0.3613 -0.3247
 6227TIP3    H142876   0.463   3.142   9.021 -0.3641 -0.5918 -0.1365
 6227TIP3    H242877   0.344   3.131   8.928 -0.3699  0.6348 -0.3037
 6228TIP3   OH242878   2.222   3.829   7.750  0.2921  0.4612 -0.2680
 6228TIP3    H142879   2.260   3.908   7.788 -2.1079  0.9821  1.3320
 6228TIP3    H242880   2.148   3.861   7.699  0.8396 -0.6051 -1.7715
 6229TIP3   OH242881   7.393   2.649   8.208  0.4562 -0.1492 -0.0904
 6229TIP3    H142882   7.448   2.592   8.261 -0.0584 -0.8595 -0.3006
 6229TIP3    H242883   7.401   2.616   8.119 -0.6253 -0.5453 -0.0626
 6230TIP3   OH242884   1.377   7.296   9.028  0.1980 -0.6639 -1.0502
 6230TIP3    H142885   1.419   7.342   9.101 -0.9874  1.2827 -1.5149
 6230TIP3    H242886   1.340   7.217   9.068  0.1264  0.0425  0.3396
 6231TIP3   OH242887   0.979   2.515   7.895 -0.1600  0.1360 -0.6873
 6231TIP3    H142888   1.058   2.562   7.925  0.2977 -2.1896  2.2739
 6231TIP3    H242889   1.012   2.454   7.829  0.0100  0.9867 -1.4062
 6232TIP3   OH242890   0.918   6.514   7.978  0.3477  0.1998 -0.2677
 6232TIP3    H142891   0.925   6.419   7.983 -1.9206 -0.0424 -0.6876
 6232TIP3    H242892   0.955   6.536   7.893  0.0996 -0.4259 -0.5478
 6233TIP3   OH242893   7.511   0.424   9.663  1.1254 -0.5926  0.1830
 6233TIP3    H142894   7.483   0.348   9.613 -0.7205  1.2917 -1.8374
 6233TIP3    H242895   7.601   0.440   9.634  1.2673 -1.5553  0.0702
 6234TIP3   OH242896   2.904   5.619   8.157 -0.2238 -0.5332 -0.1308
 6234TIP3    H142897   2.944   5.648   8.075  0.2873 -0.7464  0.0407
 6234TIP3    H242898   2.837   5.685   8.175 -0.1341 -0.3210 -0.5639
 6235TIP3   OH242899   4.759   3.312   8.069  0.1373 -0.3980  0.1806
 6235TIP3    H142900   4.837   3.299   8.015 -0.6284 -0.7949 -0.8410
 6235TIP3    H242901   4.710   3.231   8.061 -1.0462  0.3476 -0.2722
 6236TIP3   OH242902   5.403   0.889   9.052 -0.3464 -0.0518 -0.0707
 6236TIP3    H142903   5.478   0.839   9.083  0.4817 -0.0574 -1.9620
 6236TIP3    H242904   5.426   0.981   9.069  0.5351  0.0109 -1.4872
 6237TIP3   OH242905   1.756   1.099   9.438  0.7204 -0.0703 -0.3297
 6237TIP3    H142906   1.801   1.179   9.465 -0.0899 -0.2392  1.7623
 6237TIP3    H242907   1.667   1.109   9.473 -0.1200 -0.8496 -2.1436
 6238TIP3   OH242908   4.595   3.440   9.370  0.5022  0.1588  0.4803
 6238TIP3    H142909   4.552   3.444   9.455 -0.8534  1.4825 -0.2002
 6238TIP3    H242910   4.552   3.367   9.325 -0.3141  0.7768  0.2105
 6239TIP3   OH242911   6.292   6.727   8.551  0.3148  0.4807 -0.2017
 6239TIP3    H142912   6.362   6.784   8.585 -0.1997  0.8318  0.2856
 6239TIP3    H242913   6.218   6.743   8.609  0.2656 -0.9684  0.1680
 6240TIP3   OH242914   4.609   5.479   9.989 -1.0888 -0.3791 -0.2910
 6240TIP3    H142915   4.543   5.442  10.048  0.1313 -0.3467  1.1557
 6240TIP3    H242916   4.625   5.409   9.926 -1.2933 -1.0459  0.3687
 6241TIP3   OH242917   2.018   2.604  10.141 -0.5490  0.5889  0.2693
 6241TIP3    H142918   2.037   2.698  10.139 -0.1979  0.5590 -3.0805
 6241TIP3    H242919   2.104   2.562  10.127 -0.9163 -0.1897  0.2769
 6242TIP3   OH242920   2.823   0.067   8.657  0.6628 -0.4483  0.1177
 6242TIP3    H142921   2.827   0.084   8.562 -0.4104  0.0520  0.1485
 6242TIP3    H242922   2.906   0.101   8.691  1.1279 -0.7779 -0.6600
 6243TIP3   OH242923   5.865   7.500   9.945 -0.6361  0.3675  0.4624
 6243TIP3    H142924   5.909   7.543  10.018  0.2873  1.5759 -0.7640
 6243TIP3    H242925   5.918   7.522   9.869 -1.7937 -0.5421 -0.6470
 6244TIP3   OH242926   4.328   6.818   9.056 -0.1239 -0.3689  0.2530
 6244TIP3    H142927   4.348   6.737   9.102  0.2007  0.7924  2.3054
 6244TIP3    H242928   4.234   6.813   9.038  0.1005 -1.6497 -0.6550
 6245TIP3   OH242929   3.662   3.196   9.088 -0.2168  0.2796  0.4783
 6245TIP3    H142930   3.613   3.263   9.134 -1.1042  1.8346 -2.4842
 6245TIP3    H242931   3.604   3.167   9.018  1.4673 -1.0940 -0.4422
 6246TIP3   OH242932   5.174   4.779   9.904  0.3754  0.6046  0.4415
 6246TIP3    H142933   5.084   4.805   9.922 -0.0693 -0.8482  0.4296
 6246TIP3    H242934   5.227   4.828   9.967 -0.5513  0.4035  1.3915
 6247TIP3   OH242935   0.587   6.359   8.570 -0.6192  0.0192  0.0191
 6247TIP3    H142936   0.618   6.431   8.515 -1.9846 -1.0636 -2.2772
 6247TIP3    H242937   0.492   6.360   8.560 -1.0255  0.1543  2.9495
 6248TIP3   OH242938   1.599   4.534   9.052 -0.3560  0.3476 -0.5762
 6248TIP3    H142939   1.609   4.534   9.148 -2.2354 -1.6167 -0.3070
 6248TIP3    H242940   1.599   4.627   9.029 -0.0078  0.8840  1.3443
 6249TIP3   OH242941   7.797   1.951   9.797 -0.2933 -0.1306  0.2286
 6249TIP3    H142942   7.825   1.944   9.889 -0.6609  1.9730  0.5693
 6249TIP3    H242943   7.876   1.937   9.746 -0.1916 -1.9076  0.8135
 6250TIP3   OH242944   6.375   5.570   8.381  0.2665  0.9099 -0.2937
 6250TIP3    H142945   6.458   5.619   8.382  1.1538 -0.5111  0.4917
 6250TIP3    H242946   6.392   5.496   8.322 -0.7025  1.0021 -0.6924
 6251TIP3   OH242947   1.718   5.326   7.771  0.1426 -0.2568 -0.1162
 6251TIP3    H142948   1.659   5.361   7.704 -0.2694 -0.0434  0.3486
 6251TIP3    H242949   1.659   5.283   7.834  0.1325  2.5152  1.9527
 6252TIP3   OH242950   0.848   1.384   9.168  0.0671 -0.2100  0.1061
 6252TIP3    H142951   0.779   1.420   9.112  0.9505  1.8325  0.2031
 6252TIP3    H242952   0.803   1.326   9.229 -1.5440  0.8862  0.0230
 6253TIP3   OH242953   0.979   3.666   9.129 -0.2469 -0.1395  0.2840
 6253TIP3    H142954   1.068   3.703   9.129 -1.3721  2.8931 -0.6285
 6253TIP3    H242955   0.956   3.660   9.222  0.5594  0.0370  0.5013
 6254TIP3   OH242956   0.252   2.011   9.075 -0.1210 -0.8797 -0.1311
 6254TIP3    H142957   0.177   1.999   9.017 -0.6573 -0.1611  0.3984
 6254TIP3    H242958   0.308   2.075   9.030 -0.2100 -0.8248 -0.1633
 6255TIP3   OH242959   0.361   2.447   9.670  0.0788  0.1392 -0.1524
 6255TIP3    H142960   0.343   2.516   9.607  0.3307  2.3880  2.0678
 6255TIP3    H242961   0.277   2.427   9.710  0.4055  1.2531  1.1618
 6256TIP3   OH242962   6.336   3.890   8.911  0.0694  0.1334  0.2245
 6256TIP3    H142963   6.249   3.906   8.875  0.0863 -1.1516 -0.4558
 6256TIP3    H242964   6.337   3.935   8.995 -0.6255  1.6583 -0.5645
 6257TIP3   OH242965   5.445   0.377   8.630 -0.3132 -0.6712 -0.8070
 6257TIP3    H142966   5.355   0.365   8.598 -0.3670  0.0030 -0.9265
 6257TIP3    H242967   5.488   0.293   8.614 -0.7568 -0.8089 -1.3018
 6258TIP3   OH242968   6.672   8.429   7.774  0.0718 -0.0095  0.5422
 6258TIP3    H142969   6.729   8.423   7.698 -1.2016 -0.6253 -0.4066
 6258TIP3    H242970   6.648   8.521   7.779  0.4038  0.0871  0.3873
 6259TIP3   OH242971   2.154   1.095   7.604  0.5488 -0.2571 -0.5444
 6259TIP3    H142972   2.132   1.091   7.511 -0.0920 -0.6950 -0.3798
 6259TIP3    H242973   2.071   1.118   7.648  0.8242 -0.1386 -0.0730
 6260TIP3   OH242974   4.070   4.902   7.844 -0.6886 -0.5528  0.3473
 6260TIP3    H142975   4.070   4.887   7.749  0.2041 -1.2366  0.4409
 6260TIP3    H242976   4.060   4.815   7.882 -0.0524 -0.3995  0.8850
 6261TIP3   OH242977   1.747   2.550  10.057 -0.0186 -0.0969 -0.3016
 6261TIP3    H142978   1.824   2.579  10.105 -0.7610  1.4768  0.0007
 6261TIP3    H242979   1.727   2.464  10.094 -1.3579  1.5489  3.3242
 6262TIP3   OH242980   5.665   5.047   9.841 -0.4998 -0.6188  0.0003
 6262TIP3    H142981   5.614   5.000   9.775 -3.5999  0.4187  1.5116
 6262TIP3    H242982   5.645   5.003   9.923  1.5134 -0.4724  0.6213
 6263TIP3   OH242983   0.534   1.124   8.038  0.0528 -0.1740 -0.0016
 6263TIP3    H142984   0.461   1.178   8.068  0.5135  0.8674 -0.7014
 6263TIP3    H242985   0.606   1.147   8.097  0.4869  0.6256 -0.8203
 6264TIP3   OH242986   2.528   8.326   8.969 -0.1185 -0.1270  0.3439
 6264TIP3    H142987   2.470   8.381   8.916  2.8712 -0.4970 -3.8443
 6264TIP3    H242988   2.503   8.236   8.945  1.4256 -0.2958 -0.7384
 6265TIP3   OH242989   2.149   3.774   9.099  0.2641 -0.1561  0.3776
 6265TIP3    H142990   2.243   3.782   9.082  0.5430 -1.8142  0.9063
 6265TIP3    H242991   2.141   3.778   9.194  0.1087 -2.1069  0.5029
 6266TIP3   OH242992   5.461   4.979   9.471 -0.1653  1.0840  0.4104
 6266TIP3    H142993   5.443   5.071   9.450 -3.3371  0.6875  0.7962
 6266TIP3    H242994   5.466   4.977   9.566 -0.7658  0.7773  0.4375
 6267TIP3   OH242995   7.513   5.052   9.591 -0.3876  0.1651 -0.4177
 6267TIP3    H142996   7.447   5.018   9.651 -0.6561  1.7065  0.2196
 6267TIP3    H242997   7.587   4.992   9.600 -0.6120  0.0827  1.1131
 6268TIP3   OH242998   7.769   0.479   8.051 -0.1055 -0.0515  0.2601
 6268TIP3    H142999   7.795   0.564   8.014  0.9189 -1.3241 -2.1896
 6268TIP3    H243000   7.852   0.435   8.070 -0.5767 -1.1056 -0.0509
 6269TIP3   OH243001   2.445   3.286   9.406 -0.2472 -0.1970 -0.4099
 6269TIP3    H143002   2.361   3.271   9.450  0.0547  0.3893  0.3957
 6269TIP3    H243003   2.423   3.345   9.334 -0.4836  0.2171 -0.0077
 6270TIP3   OH243004   2.614   2.417   8.021 -0.4157  0.0786 -0.1006
 6270TIP3    H143005   2.638   2.344   7.962 -1.3771 -0.7248  0.4713
 6270TIP3    H243006   2.614   2.494   7.964 -0.7676 -0.5921 -1.0435
 6271TIP3   OH243007   1.198   2.878   8.988  0.4198 -0.3071 -0.6843
 6271TIP3    H143008   1.188   2.791   9.029  0.0940 -0.7926 -1.7597
 6271TIP3    H243009   1.200   2.860   8.894  1.7740  0.7321 -0.8800
 6272TIP3   OH243010   0.638   5.724   7.605 -0.1099 -0.6088 -0.0350
 6272TIP3    H143011   0.584   5.687   7.535 -1.2047 -1.7528  1.3602
 6272TIP3    H243012   0.585   5.795   7.641  0.4619 -0.0074 -0.3513
 6273TIP3   OH243013   4.162   3.372   9.064  0.2737 -0.2498 -0.3968
 6273TIP3    H143014   4.225   3.310   9.100  0.9048  0.1697 -0.7722
 6273TIP3    H243015   4.209   3.455   9.058 -0.8095  0.5067  0.9246
 6274TIP3   OH243016   2.103   4.798   8.981  0.2823 -0.0737 -0.0030
 6274TIP3    H143017   2.023   4.811   8.929  0.7913  0.6623 -0.6341
 6274TIP3    H243018   2.079   4.732   9.046 -0.9213  0.3287 -0.0049
 6275TIP3   OH243019   4.184   7.552   8.545 -0.0429  0.2141 -0.5516
 6275TIP3    H143020   4.132   7.544   8.465  0.2812 -0.9367 -0.6636
 6275TIP3    H243021   4.251   7.484   8.537  0.3400  0.4535  0.4438
 6276TIP3   OH243022   2.908   2.252   8.409  0.0799  0.2019 -0.2822
 6276TIP3    H143023   2.930   2.252   8.502 -2.1067  0.7448  0.3045
 6276TIP3    H243024   2.908   2.160   8.384  3.2326  0.1470 -0.5017
 6277TIP3   OH243025   0.819   1.263   7.761 -0.0606  0.4585  0.3257
 6277TIP3    H143026   0.763   1.340   7.759  1.0406  1.2853 -1.5159
 6277TIP3    H243027   0.785   1.207   7.691 -0.9734 -0.8586  1.7732
 6278TIP3   OH243028   0.203   1.629   8.844 -0.3349 -0.1804 -0.1828
 6278TIP3    H143029   0.181   1.704   8.789 -1.0028 -0.0161  0.2994
 6278TIP3    H243030   0.183   1.657   8.933 -0.1320 -0.7626  0.0510
 6279TIP3   OH243031   4.374   6.932   8.004  0.3678  0.0744  0.6127
 6279TIP3    H143032   4.357   6.951   7.912 -1.6382 -0.1391  0.8766
 6279TIP3    H243033   4.464   6.959   8.019  0.3966  1.0691 -1.1583
 6280TIP3   OH243034   6.504   8.183   7.700  0.3649  0.3113 -0.5072
 6280TIP3    H143035   6.443   8.256   7.693  0.3947  0.2263 -2.1617
 6280TIP3    H243036   6.589   8.221   7.675  0.6715  0.0379  0.0953
 6281TIP3   OH243037   6.868   1.064   8.694  0.3122  0.0138 -0.5635
 6281TIP3    H143038   6.800   1.000   8.716  0.5451 -0.8485 -2.1914
 6281TIP3    H243039   6.876   1.059   8.599  2.4588  0.2843 -0.4483
 6282TIP3   OH243040   0.805   0.281   9.563  0.3264  0.1418  0.0167
 6282TIP3    H143041   0.857   0.231   9.627  0.7387 -0.0028 -0.4219
 6282TIP3    H243042   0.775   0.357   9.611 -0.5005 -0.6372  0.7624
 6283TIP3   OH243043   6.992   5.178   9.324 -0.0818 -0.6222 -0.7062
 6283TIP3    H143044   7.007   5.272   9.311  0.2705 -0.2708  1.6857
 6283TIP3    H243045   7.064   5.135   9.280  1.4177  0.4332  0.6032
 6284TIP3   OH243046   0.900   0.804   9.782  0.5207  0.4917  0.2278
 6284TIP3    H143047   0.815   0.842   9.807  0.0844 -0.5237  0.3295
 6284TIP3    H243048   0.921   0.846   9.699 -0.3092  0.4215 -0.0306
 6285TIP3   OH243049   7.153   4.916   8.937 -0.5047  0.0878  0.3514
 6285TIP3    H143050   7.072   4.875   8.908  0.8821 -1.4424 -1.6015
 6285TIP3    H243051   7.143   5.009   8.914 -2.1593  0.1958  1.3458
 6286TIP3   OH243052   0.768   4.341   8.729  1.0423  0.0232  0.0073
 6286TIP3    H143053   0.779   4.345   8.824  0.3506  0.0641  0.0945
 6286TIP3    H243054   0.832   4.403   8.694  1.2348  0.0754  0.4502
 6287TIP3   OH243055   7.195   3.815   8.720 -0.1398 -0.1473  0.0260
 6287TIP3    H143056   7.102   3.837   8.717 -0.1398  0.1241  1.3214
 6287TIP3    H243057   7.217   3.787   8.631 -1.3710  0.1339 -0.3743
 6288TIP3   OH243058   6.754   1.415   8.649 -0.3905  0.9289 -0.0717
 6288TIP3    H143059   6.715   1.479   8.589 -2.0014 -2.0873 -2.5487
 6288TIP3    H243060   6.695   1.339   8.645  1.5773 -0.8991  2.3721
 6289TIP3   OH243061   4.829   4.908  10.625  0.0001 -0.5957  0.8881
 6289TIP3    H143062   4.918   4.900  10.591 -0.7927 -0.0601 -1.4856
 6289TIP3    H243063   4.805   5.000  10.608 -1.6682 -1.2063 -0.3908
 6290TIP3   OH243064   7.543   2.720   8.823  0.2766 -0.0360  0.2406
 6290TIP3    H143065   7.542   2.625   8.812 -0.6642 -0.0960  0.7624
 6290TIP3    H243066   7.495   2.754   8.748 -1.3811 -0.1240  1.2253
 6291TIP3   OH243067   2.108   4.471   9.436  0.6999  0.5141  0.5953
 6291TIP3    H143068   2.014   4.454   9.447  0.2701  2.2536 -0.0864
 6291TIP3    H243069   2.149   4.385   9.444 -0.9355 -0.2537  1.0911
 6292TIP3   OH243070   7.325   2.209   9.141  0.4812  0.4326 -0.0327
 6292TIP3    H143071   7.337   2.288   9.194 -1.7847  0.9524 -0.1892
 6292TIP3    H243072   7.298   2.242   9.055  0.5388 -0.4862 -0.4100
 6293TIP3   OH243073   3.376   2.422   8.135 -0.2730  0.6364  0.1558
 6293TIP3    H143074   3.333   2.369   8.203 -0.4648 -1.4388 -1.4805
 6293TIP3    H243075   3.314   2.492   8.117 -1.7180 -0.6515 -0.1059
 6294TIP3   OH243076   6.308   8.227   9.341 -0.2246 -0.7762 -0.3239
 6294TIP3    H143077   6.361   8.289   9.391  0.4361 -1.5061 -0.1088
 6294TIP3    H243078   6.301   8.267   9.254 -2.9378  1.4482  0.7319
 6295TIP3   OH243079   6.967   1.223   8.896 -0.0722  0.0111 -0.0219
 6295TIP3    H143080   6.956   1.150   8.835  0.6049  0.0585 -0.2059
 6295TIP3    H243081   6.893   1.281   8.877  0.0399 -0.0542 -0.6868
 6296TIP3   OH243082   4.031   3.600   8.819  0.2446 -0.4357  0.4258
 6296TIP3    H143083   4.083   3.680   8.826 -0.2372 -0.1024  0.2458
 6296TIP3    H243084   4.095   3.529   8.827  0.5815 -0.0431  1.3202
 6297TIP3   OH243085   5.286   6.938   8.896  0.3121 -0.6958  0.0971
 6297TIP3    H143086   5.223   7.000   8.861 -0.2623 -1.4186 -0.1923
 6297TIP3    H243087   5.241   6.853   8.890  1.1491 -1.1623  0.2812
 6298TIP3   OH243088   3.905   1.420   8.571  0.4417  0.1035 -0.0816
 6298TIP3    H143089   3.926   1.507   8.606  0.8244 -0.7761  2.0074
 6298TIP3    H243090   3.810   1.420   8.562  0.1559 -0.0618  2.3285
 6299TIP3   OH243091   2.610   2.624   7.847 -0.2453  0.1902  0.5619
 6299TIP3    H143092   2.685   2.631   7.788 -0.6416 -1.0779 -0.1358
 6299TIP3    H243093   2.534   2.634   7.790 -0.6252  0.1439  1.0516
 6300TIP3   OH243094   4.296   3.990   7.536 -0.3597  0.4023 -0.0348
 6300TIP3    H143095   4.299   3.995   7.631 -0.6932  0.2531 -0.0153
 6300TIP3    H243096   4.266   4.077   7.508 -0.8088  0.2704  0.0263
 6301TIP3   OH243097   3.725   7.856   9.065  0.6865  0.3738  0.1084
 6301TIP3    H143098   3.812   7.822   9.088  0.5910  0.7320  1.0567
 6301TIP3    H243099   3.665   7.784   9.084  0.3955  1.2243  2.8418
 6302TIP3   OH243100   8.038   0.853   7.792 -0.3317  0.6676  0.0018
 6302TIP3    H143101   8.107   0.799   7.754 -0.9356 -0.0696 -0.0878
 6302TIP3    H243102   8.070   0.943   7.784  1.4892  0.2600  1.7399
 6303TIP3   OH243103   4.267   3.006   8.416  0.7763  0.2378 -0.4756
 6303TIP3    H143104   4.266   3.036   8.325  1.3988 -1.6849 -1.1829
 6303TIP3    H243105   4.358   3.019   8.444  0.7999  0.0167 -0.4450
 6304TIP3   OH243106   0.175   7.830   9.163 -0.2748 -0.1096 -0.3519
 6304TIP3    H143107   0.198   7.748   9.206 -0.6010 -0.0956 -0.1500
 6304TIP3    H243108   0.205   7.898   9.224  2.7045  0.0479 -1.7728
 6305TIP3   OH243109   6.169   2.209   9.207  0.4009 -0.1509 -0.2917
 6305TIP3    H143110   6.199   2.171   9.125 -0.8268 -0.3928 -0.6505
 6305TIP3    H243111   6.102   2.272   9.181 -0.5994 -0.8361  0.5640
 6306TIP3   OH243112   6.777   1.895   8.579 -0.4426 -0.1791  0.4211
 6306TIP3    H143113   6.746   1.809   8.549 -0.1010  0.0060 -0.4939
 6306TIP3    H243114   6.864   1.877   8.616  0.1983 -0.0531 -0.9536
 6307TIP3   OH243115   2.167   4.103   7.532 -0.1984 -0.5626 -0.4679
 6307TIP3    H143116   2.256   4.066   7.532 -0.5228 -1.3717  0.2929
 6307TIP3    H243117   2.110   4.029   7.511 -0.7162 -0.0856 -0.7726
 6308TIP3   OH243118   0.663   0.914   9.450 -0.2001 -0.5418  0.9921
 6308TIP3    H143119   0.697   0.829   9.476 -1.8998 -1.4830  0.2815
 6308TIP3    H243120   0.644   0.959   9.532  0.4392 -0.9549  1.3702
 6309TIP3   OH243121   7.425   6.456   8.075 -0.1728  0.1835  0.0193
 6309TIP3    H143122   7.343   6.427   8.033 -1.2619  1.9454  0.7961
 6309TIP3    H243123   7.423   6.552   8.066  2.0415  0.2535 -0.3011
 6310TIP3   OH243124   6.249   1.264   9.742  0.3303  0.1479 -0.4671
 6310TIP3    H143125   6.185   1.324   9.781  0.6082  2.3206 -3.0515
 6310TIP3    H243126   6.197   1.191   9.710 -0.7692  1.2985 -1.4394
 6311TIP3   OH243127   4.504   6.840   8.827  0.4968 -0.2369  0.2690
 6311TIP3    H143128   4.591   6.799   8.828  0.9716  0.7297 -0.4506
 6311TIP3    H243129   4.481   6.848   8.920  1.1467 -0.5556  0.4662
 6312TIP3   OH243130   8.119   0.289  10.495 -0.1600 -0.2770 -0.0325
 6312TIP3    H143131   8.086   0.261  10.410 -1.5965 -1.1402  0.7779
 6312TIP3    H243132   8.073   0.372  10.512 -2.4963 -1.7307  1.3270
 6313TIP3   OH243133   7.417   3.941   7.752  0.0037 -0.2555  0.1856
 6313TIP3    H143134   7.406   3.846   7.752 -0.3728 -0.2557  1.8474
 6313TIP3    H243135   7.512   3.955   7.748  0.0795 -0.7243  0.3234
 6314TIP3   OH243136   0.357   7.893   8.532  0.2045 -0.2134  0.4341
 6314TIP3    H143137   0.267   7.870   8.509  0.7279 -2.3207  0.2143
 6314TIP3    H243138   0.374   7.843   8.612  1.7032 -1.3159 -0.5081
 6315TIP3   OH243139   3.761   3.551   8.946 -0.3102 -0.2530 -0.0840
 6315TIP3    H143140   3.715   3.631   8.970 -0.8358 -0.2499 -1.0689
 6315TIP3    H243141   3.845   3.581   8.913 -0.7590 -0.0480 -1.0698
 6316TIP3   OH243142   6.815   4.865   9.261 -0.0463  0.2005 -0.2629
 6316TIP3    H143143   6.787   4.773   9.263  0.4437  0.0432 -0.7436
 6316TIP3    H243144   6.830   4.884   9.169  0.2732  0.6414 -0.1211
 6317TIP3   OH243145   3.641   2.770   9.376  0.5153 -0.4282 -0.4068
 6317TIP3    H143146   3.634   2.842   9.440  1.4300  0.5264 -1.3461
 6317TIP3    H243147   3.734   2.747   9.377  0.3824 -0.9748 -0.7854
 6318TIP3   OH243148   3.326   8.231   8.597  0.0831  0.0975  0.6909
 6318TIP3    H143149   3.319   8.320   8.630  0.3678  0.4728 -0.2293
 6318TIP3    H243150   3.241   8.191   8.617 -0.4872  0.9490  0.0575
 6319TIP3   OH243151   7.061   7.731  10.103 -0.4210 -0.1056  0.0076
 6319TIP3    H143152   7.131   7.784  10.141 -0.1439  0.3303 -1.0561
 6319TIP3    H243153   7.106   7.662  10.054 -0.7725 -0.9423  0.8192
 6320TIP3   OH243154   1.256   0.918   8.007  0.3915 -0.1186 -0.3670
 6320TIP3    H143155   1.264   0.823   8.014 -2.9131 -0.5132 -0.6553
 6320TIP3    H243156   1.209   0.944   8.085 -2.5447  0.6127 -2.2294
 6321TIP3   OH243157   3.849   3.026   8.579  0.4875  0.6728  0.3919
 6321TIP3    H143158   3.912   2.957   8.557  0.1780  0.6875 -0.5903
 6321TIP3    H243159   3.903   3.104   8.593  0.7370  0.5597  0.0820
 6322TIP3   OH243160   8.101   5.151   9.397 -0.3476  0.6819  0.0433
 6322TIP3    H143161   8.039   5.188   9.460 -0.6088 -0.5611  0.5543
 6322TIP3    H243162   8.106   5.216   9.327 -0.1435  2.0407  1.2759
 6323TIP3   OH243163   2.986   7.319   8.552  0.3149  0.2999  0.3669
 6323TIP3    H143164   2.922   7.371   8.503 -1.9776 -1.2229  1.5351
 6323TIP3    H243165   3.050   7.382   8.583 -0.1424  1.8021 -1.5409
 6324TIP3   OH243166   2.476   7.893   8.340  0.1567  0.1145 -0.3527
 6324TIP3    H143167   2.568   7.895   8.367 -0.2197 -1.1353  1.1699
 6324TIP3    H243168   2.457   7.801   8.327 -1.0599  0.2972  0.0192
 6325TIP3   OH243169   2.999   1.749   7.796  0.2082 -0.3368 -0.3079
 6325TIP3    H143170   2.983   1.666   7.751 -0.1714 -1.9623  2.6340
 6325TIP3    H243171   3.092   1.767   7.780  0.0904 -0.8145 -1.6952
 6326TIP3   OH243172   4.113   3.774   7.720 -0.2299  0.6228  0.0230
 6326TIP3    H143173   4.181   3.718   7.757 -1.1633 -0.5601  0.0127
 6326TIP3    H243174   4.032   3.742   7.758 -0.8857  1.4040 -0.6709
 6327TIP3   OH243175   7.400   7.962   9.294  0.7239  0.2866  0.5971
 6327TIP3    H143176   7.443   7.877   9.280  0.1642 -0.1263  1.3121
 6327TIP3    H243177   7.429   8.016   9.221  0.6470 -0.7016 -0.1850
 6328TIP3   OH243178   5.879   8.199   8.739  0.5652 -0.1556 -0.0907
 6328TIP3    H143179   5.836   8.134   8.795 -0.3026  0.1489 -0.3789
 6328TIP3    H243180   5.936   8.148   8.682  0.0053 -0.6497 -0.2118
 6329TIP3   OH243181   4.033   1.823   9.750 -0.0351  0.0822  0.0306
 6329TIP3    H143182   3.998   1.735   9.764 -0.5582  0.5176  1.6817
 6329TIP3    H243183   4.091   1.814   9.674  0.3745 -1.8214  0.5130
 6330TIP3   OH243184   3.787   3.015   7.813 -0.3671 -0.8434  0.1881
 6330TIP3    H143185   3.739   3.006   7.895  0.8649  0.0772  1.0359
 6330TIP3    H243186   3.726   3.060   7.754 -1.0530 -0.9931  0.7712
 6331TIP3   OH243187   5.733   7.490   8.430 -0.4153  0.2281  0.0744
 6331TIP3    H143188   5.774   7.463   8.512  1.4108 -1.3485 -1.2788
 6331TIP3    H243189   5.796   7.550   8.391 -0.3401 -0.5669 -1.0599
 6332TIP3   OH243190   8.085   5.557   9.297  0.5915 -0.1876 -0.4597
 6332TIP3    H143191   8.100   5.549   9.391  0.5104  1.9498 -0.2076
 6332TIP3    H243192   8.120   5.477   9.259  1.5097 -0.6477  1.2925
 6333TIP3   OH243193   2.997   2.063   8.919 -0.6048  0.4631 -0.0640
 6333TIP3    H143194   3.055   1.990   8.896 -0.4848  0.2575  0.8234
 6333TIP3    H243195   3.017   2.080   9.012 -2.0075  0.3457  0.2774
 6334TIP3   OH243196   1.267   7.745   7.923 -0.0841  0.0588  0.1656
 6334TIP3    H143197   1.209   7.789   7.862 -0.4930 -2.0644 -1.0799
 6334TIP3    H243198   1.233   7.655   7.929  0.8233 -0.2175  2.3862
 6335TIP3   OH243199   2.348   3.475   9.224  0.3778  0.3911 -0.1158
 6335TIP3    H143200   2.282   3.498   9.290  0.8492  0.5131  0.3142
 6335TIP3    H243201   2.408   3.549   9.222 -0.4570  1.0898 -1.7870
 6336TIP3   OH243202   4.286   4.995   8.667  0.2901 -0.2128 -0.2106
 6336TIP3    H143203   4.332   5.070   8.629 -0.2420  0.6737  0.8367
 6336TIP3    H243204   4.205   5.032   8.703  0.4035 -1.1423  1.0718
 6337TIP3   OH243205   2.794   3.246   7.396  0.3920 -0.0971  0.0544
 6337TIP3    H143206   2.842   3.311   7.448  1.8634 -0.3434 -0.9403
 6337TIP3    H243207   2.744   3.297   7.333  0.0848  0.1343  0.4844
 6338TIP3   OH243208   5.222   6.280   9.212 -0.3763 -0.3624  0.2461
 6338TIP3    H143209   5.231   6.332   9.292 -2.0530  0.6044 -0.1501
 6338TIP3    H243210   5.308   6.284   9.171  0.0980  0.3782  1.2747
 6339TIP3   OH243211   6.112   8.247  10.156  0.0519  0.6966  0.2825
 6339TIP3    H143212   6.183   8.289  10.204 -1.1751  1.3382  1.6551
 6339TIP3    H243213   6.057   8.208  10.225  0.2735 -1.7792 -0.8614
 6340TIP3   OH243214   7.913   2.716   9.356 -0.8907  0.3747 -0.5360
 6340TIP3    H143215   7.909   2.812   9.358  0.2342  0.4290  0.3435
 6340TIP3    H243216   7.918   2.695   9.263  1.2647  1.3442 -0.7245
 6341TIP3   OH243217   2.304   5.132   7.621  0.2945  0.1037 -0.0315
 6341TIP3    H143218   2.350   5.211   7.595  0.0096 -0.0103 -0.9057
 6341TIP3    H243219   2.283   5.146   7.713  1.2594  0.5465  0.1359
 6342TIP3   OH243220   6.729   2.439   8.729  0.3408 -0.0826  0.0931
 6342TIP3    H143221   6.731   2.516   8.785  0.1447 -1.4711  2.1359
 6342TIP3    H243222   6.778   2.373   8.778  0.4524 -1.2786 -1.5582
 6343TIP3   OH243223   0.889   7.310   9.247  0.0929  0.6131  0.1085
 6343TIP3    H143224   0.935   7.237   9.290 -0.6550  0.1189  0.0958
 6343TIP3    H243225   0.843   7.354   9.319  0.9999  1.4320  0.2030
 6344TIP3   OH243226   5.300   5.142   9.916  0.2999  0.1424  0.1145
 6344TIP3    H143227   5.331   5.054   9.935  0.5716  0.1006 -0.5167
 6344TIP3    H243228   5.379   5.196   9.912  0.0698  0.6185  1.4991
 6345TIP3   OH243229   2.756   6.507   8.953 -0.1276 -0.5933  0.1772
 6345TIP3    H143230   2.844   6.541   8.937 -0.5120  0.6885  0.6705
 6345TIP3    H243231   2.724   6.557   9.028 -1.0444 -1.4844  0.4050
 6346TIP3   OH243232   6.148   7.867   9.870  0.0859  0.0547 -0.0752
 6346TIP3    H143233   6.153   7.939   9.932 -0.8956 -0.4249  0.5856
 6346TIP3    H243234   6.175   7.905   9.787  0.6846  0.8953  0.4912
 6347TIP3   OH243235   4.637   5.603   9.475 -0.7350 -0.3525  0.2340
 6347TIP3    H143236   4.632   5.612   9.570 -0.0778 -1.8207  0.4445
 6347TIP3    H243237   4.555   5.561   9.450 -1.2289  0.7110  0.0465
 6348TIP3   OH243238   2.646   5.423   9.503  0.5760  0.0307 -0.2172
 6348TIP3    H143239   2.595   5.349   9.537  0.4234  0.5949  0.8312
 6348TIP3    H243240   2.714   5.437   9.569 -0.0189  1.4650  0.1174
 6349TIP3   OH243241   0.835   3.624   7.871 -0.1924 -0.0076 -0.4154
 6349TIP3    H143242   0.801   3.686   7.935  0.3023  0.8014 -0.9202
 6349TIP3    H243243   0.783   3.639   7.793 -2.0740 -2.2750  0.2770
 6350TIP3   OH243244   0.918   0.468   8.606  0.3332 -0.1745 -0.2397
 6350TIP3    H143245   0.876   0.396   8.559 -0.9956  0.3745  0.0505
 6350TIP3    H243246   0.956   0.427   8.684 -2.3385 -0.3044  1.0919
 6351TIP3   OH243247   3.201   2.454   8.634  0.5356  0.3761 -0.7679
 6351TIP3    H143248   3.201   2.476   8.727  0.0938  2.6282 -1.2239
 6351TIP3    H243249   3.112   2.474   8.605  0.6892 -0.2192 -1.7012
 6352TIP3   OH243250   3.943   2.086   9.082  0.2258 -0.0570 -0.1056
 6352TIP3    H143251   4.033   2.054   9.075  0.1231 -0.2906 -0.3905
 6352TIP3    H243252   3.889   2.009   9.070 -0.0411  0.3178 -1.5784
 6353TIP3   OH243253   6.152   7.334   9.973  0.6196 -0.0716 -0.1557
 6353TIP3    H143254   6.237   7.310  10.011  0.7001  1.6745  0.8573
 6353TIP3    H243255   6.093   7.338  10.048 -1.0296 -3.4879 -1.0460
 6354TIP3   OH243256   1.915   6.924   8.009  0.7285 -0.0834  0.4282
 6354TIP3    H143257   1.959   6.900   8.091  0.3104  1.3614  1.1136
 6354TIP3    H243258   1.928   7.019   8.002  1.5666 -0.3253 -1.6856
 6355TIP3   OH243259   6.500   3.563   9.388  0.0066 -0.7754 -0.0179
 6355TIP3    H143260   6.459   3.530   9.468 -1.1079  1.3860  0.3842
 6355TIP3    H243261   6.439   3.538   9.318 -0.1277 -0.7532  0.0919
 6356TIP3   OH243262   8.081   7.608  10.038  0.1798 -0.0053 -0.4089
 6356TIP3    H143263   8.160   7.660  10.055  0.3365 -0.3944  0.0675
 6356TIP3    H243264   8.019   7.671  10.000  0.8104  0.2441 -1.0515
 6357TIP3   OH243265   3.406   3.954   8.612  0.0862 -0.0167  0.3601
 6357TIP3    H143266   3.422   4.049   8.618  1.4603 -0.1803 -0.3886
 6357TIP3    H243267   3.319   3.942   8.652  0.4994  1.3605  1.7904
 6358TIP3   OH243268   4.632   7.720   9.663 -0.3911 -0.0354 -0.2785
 6358TIP3    H143269   4.648   7.814   9.661  0.5390 -0.1925 -1.7633
 6358TIP3    H243270   4.537   7.711   9.656 -0.9110  0.8169  3.4378
 6359TIP3   OH243271   7.269   1.855   9.882 -0.1570 -0.0424 -0.2526
 6359TIP3    H143272   7.337   1.810   9.933 -0.3301  0.5295  0.5049
 6359TIP3    H243273   7.298   1.846   9.791  0.7038 -0.1920  0.0218
 6360TIP3   OH243274   2.455   5.099   8.489 -0.0166  0.0282  0.2537
 6360TIP3    H143275   2.365   5.083   8.461 -0.3479  1.0741  0.6779
 6360TIP3    H243276   2.504   5.113   8.408 -0.7123  1.7794  0.1040
 6361TIP3   OH243277   2.450   4.688   7.653 -0.7559 -0.0528 -0.3423
 6361TIP3    H143278   2.369   4.736   7.635  0.2713  1.5841 -0.8367
 6361TIP3    H243279   2.513   4.725   7.591  0.2093 -1.7898 -0.4461
 6362TIP3   OH243280   6.916   0.992   8.031 -0.5166 -0.1567 -0.3552
 6362TIP3    H143281   6.925   1.014   8.124 -2.6845 -0.3650 -0.0470
 6362TIP3    H243282   7.006   0.977   8.002  0.3615  1.4169  1.3115
 6363TIP3   OH243283   2.755   8.017   8.691 -0.0832  0.0044  0.4762
 6363TIP3    H143284   2.734   8.109   8.707 -0.2748 -0.4551  3.1609
 6363TIP3    H243285   2.815   8.020   8.616 -3.4458  1.9017 -2.4645
 6364TIP3   OH243286   4.921   5.653   9.588 -0.1434 -0.0091 -0.0473
 6364TIP3    H143287   4.947   5.627   9.676  0.1660 -1.2701 -0.4851
 6364TIP3    H243288   4.836   5.610   9.575 -0.1280  0.0661 -0.4033
 6365TIP3   OH243289   5.249   5.712   8.675 -0.3996  0.1466 -0.3325
 6365TIP3    H143290   5.285   5.740   8.591  1.7922  1.2678  0.8834
 6365TIP3    H243291   5.325   5.680   8.724 -1.6941 -0.9193  1.0633
 6366TIP3   OH243292   0.890   2.016   9.066  0.2603 -0.2936  0.5682
 6366TIP3    H143293   0.870   2.069   9.144  0.0890  0.7732 -0.1740
 6366TIP3    H243294   0.825   2.045   9.002  2.6919  1.6186 -1.2033
 6367TIP3   OH243295   2.820   4.872   8.860 -0.2487 -0.0266  0.1314
 6367TIP3    H143296   2.860   4.795   8.819 -1.9263  0.1355 -1.9368
 6367TIP3    H243297   2.728   4.866   8.838 -0.5418  2.2516  0.4838
 6368TIP3   OH243298   0.447   2.552   7.903  0.0456 -0.3041 -0.4492
 6368TIP3    H143299   0.533   2.523   7.935 -0.4052 -0.0195  1.0958
 6368TIP3    H243300   0.457   2.646   7.890 -0.1633 -0.1863  0.2123
 6369TIP3   OH243301   5.423   3.499   7.869  0.0328 -0.2511  0.1630
 6369TIP3    H143302   5.444   3.521   7.960  1.4945 -2.0487  0.3141
 6369TIP3    H243303   5.508   3.496   7.826 -0.5682 -0.4566 -1.0345
 6370TIP3   OH243304   6.591   2.290   9.459  0.7023 -0.1571  0.1539
 6370TIP3    H143305   6.630   2.203   9.449  1.1160 -0.1633  1.5687
 6370TIP3    H243306   6.662   2.351   9.440  0.8130 -0.1541  0.5569
 6371TIP3   OH243307   0.167   1.114   9.886  0.0325  0.1485 -0.2849
 6371TIP3    H143308   0.080   1.149   9.865 -0.5371 -1.9504 -1.7793
 6371TIP3    H243309   0.211   1.108   9.801  1.3707  0.4643  0.3632
 6372TIP3   OH243310   7.892   7.708  10.241 -0.6564  0.1644 -0.3492
 6372TIP3    H143311   7.931   7.652  10.174 -0.4981 -0.0634 -0.0703
 6372TIP3    H243312   7.857   7.647  10.306 -1.3838  0.3670 -0.5409
 6373TIP3   OH243313   6.068   1.169   8.558  0.4410  0.6182  0.3349
 6373TIP3    H143314   5.990   1.190   8.507 -0.5323 -1.3773  0.8652
 6373TIP3    H243315   6.136   1.151   8.492 -0.4162 -0.5872 -0.2583
 6374TIP3   OH243316   2.632   4.765   9.833  0.6543 -0.4000 -0.2155
 6374TIP3    H143317   2.680   4.844   9.807 -1.7291  0.8508 -1.1223
 6374TIP3    H243318   2.627   4.713   9.753  0.3551 -0.4196 -0.1864
 6375TIP3   OH243319   4.702   7.005   8.655  0.2364  0.4183 -0.6572
 6375TIP3    H143320   4.733   6.922   8.691 -0.0684  1.3031  1.7712
 6375TIP3    H243321   4.769   7.069   8.680 -0.4892  1.2500 -0.7945
 6376TIP3   OH243322   0.213   0.566   7.668  0.4894  0.3858  0.2840
 6376TIP3    H143323   0.170   0.588   7.750 -1.1885  0.8922 -0.6930
 6376TIP3    H243324   0.157   0.500   7.627  0.7682  0.8600 -0.9077
 6377TIP3   OH243325   6.085   5.409   8.298  0.2712  0.0022 -0.5035
 6377TIP3    H143326   6.021   5.473   8.266 -0.4358 -0.4817 -0.0899
 6377TIP3    H243327   6.170   5.449   8.281 -0.1372  0.5934 -1.2077
 6378TIP3   OH243328   6.741   3.376   8.427  0.4701 -0.1763 -0.3150
 6378TIP3    H143329   6.725   3.354   8.335 -0.7018 -0.1039 -0.1426
 6378TIP3    H243330   6.690   3.312   8.476 -0.0418  0.6563  0.2579
 6379TIP3   OH243331   3.316   8.311  13.829 -0.2688 -0.2834 -1.1697
 6379TIP3    H143332   3.253   8.273  13.890 -0.1432  2.2547  0.6966
 6379TIP3    H243333   3.394   8.255  13.837 -0.6854 -0.7091  0.0693
 6380TIP3   OH243334   7.633   1.975   8.702 -0.4675  0.3076  0.2198
 6380TIP3    H143335   7.652   2.046   8.641 -0.2056  0.2175  0.1927
 6380TIP3    H243336   7.719   1.944   8.730 -0.5528  1.7799  2.3444
 6381TIP3   OH243337   7.170   2.140   8.547  0.4626 -0.3114  0.4955
 6381TIP3    H143338   7.240   2.107   8.492  1.5171  2.7370 -0.1828
 6381TIP3    H243339   7.090   2.105   8.508  1.3287  0.0106 -1.7259
 6382TIP3   OH243340   7.254   6.351   9.163  0.1796 -0.7186  0.2603
 6382TIP3    H143341   7.326   6.318   9.217 -0.6662 -0.1660  1.7637
 6382TIP3    H243342   7.264   6.446   9.165 -0.2877 -0.6625  0.0150
 6383TIP3   OH243343   3.538   4.077   8.314  0.1026  0.1753 -0.6812
 6383TIP3    H143344   3.541   4.171   8.332 -0.7346  0.0285  0.3541
 6383TIP3    H243345   3.449   4.061   8.283 -0.6698 -0.6614  1.7226
 6384TIP3   OH243346   4.558   4.023   8.680  0.4949 -0.7020 -0.0055
 6384TIP3    H143347   4.550   4.054   8.770 -0.5372 -1.5879  0.2329
 6384TIP3    H243348   4.470   4.035   8.643  1.1465  0.5661 -1.2094
 6385TIP3   OH243349   6.362   2.770   9.642  0.1149 -0.0205 -0.1619
 6385TIP3    H143350   6.379   2.677   9.624 -0.9573 -0.5264  1.2748
 6385TIP3    H243351   6.313   2.801   9.565 -0.4962 -0.9448 -0.1561
 6386TIP3   OH243352   4.226   4.587   7.881  0.4610 -0.3718 -0.6635
 6386TIP3    H143353   4.319   4.603   7.898  0.1457  0.9577 -0.0573
 6386TIP3    H243354   4.183   4.601   7.965 -0.5640  1.6374 -1.4424
 6387TIP3   OH243355   6.368   0.711   8.393 -0.5125  0.1968  0.0563
 6387TIP3    H143356   6.293   0.766   8.369 -0.4499  0.9172  1.3580
 6387TIP3    H243357   6.439   0.740   8.336 -0.4111  1.7031  0.8889
 6388TIP3   OH243358   1.926   0.280   8.069 -0.0377 -0.4079  0.5343
 6388TIP3    H143359   1.911   0.312   7.981 -0.4007  0.2669  0.8360
 6388TIP3    H243360   1.913   0.185   8.063  0.5958 -0.4612 -0.2696
 6389TIP3   OH243361   7.030   6.756  10.137 -0.2852 -0.1222 -0.4699
 6389TIP3    H143362   7.109   6.751  10.191 -0.1016 -0.7200 -0.7920
 6389TIP3    H243363   7.005   6.665  10.122 -1.8205  0.0456  0.7604
 6390TIP3   OH243364   5.959   4.161   8.639  0.0679  0.5659 -0.2580
 6390TIP3    H143365   6.027   4.169   8.573 -0.4633 -0.1117 -0.9059
 6390TIP3    H243366   5.978   4.080   8.685 -0.7191 -0.0345 -0.9550
 6391TIP3   OH243367   5.254   3.517   8.833  0.6413 -0.0843  0.4613
 6391TIP3    H143368   5.314   3.590   8.843  1.3754 -0.0092 -3.1497
 6391TIP3    H243369   5.298   3.457   8.773 -2.3436 -0.5142 -1.5628
 6392TIP3   OH243370   7.253   0.252   8.649  0.3749 -0.1127 -0.1923
 6392TIP3    H143371   7.292   0.252   8.561  1.7547  1.2555  0.3887
 6392TIP3    H243372   7.318   0.209   8.704 -0.2042 -0.3840  0.2819
 6393TIP3   OH243373   3.798   0.488   8.541  0.5155  0.0172  0.0763
 6393TIP3    H143374   3.711   0.470   8.505  0.8199  1.4590 -1.5006
 6393TIP3    H243375   3.784   0.494   8.636 -0.2968 -3.9431  0.3541
 6394TIP3   OH243376   0.467   3.964   8.106 -0.1915  0.1767 -0.0780
 6394TIP3    H143377   0.384   3.947   8.152  0.0744 -1.4668 -0.1322
 6394TIP3    H243378   0.535   3.943   8.170  0.1732 -0.3781 -0.6319
 6395TIP3   OH243379   4.020   0.550   8.392 -0.0610 -0.4201  0.2716
 6395TIP3    H143380   3.955   0.515   8.454  2.0154 -1.2132  2.1110
 6395TIP3    H243381   4.006   0.645   8.395 -1.2897 -0.5803  0.4185
 6396TIP3   OH243382   2.352   6.044  13.360 -0.4876 -0.3757  0.6335
 6396TIP3    H143383   2.304   6.029  13.278 -2.8857 -0.9010  2.0466
 6396TIP3    H243384   2.336   5.965  13.412  0.5250  0.1871  1.8353
 6397TIP3   OH243385   7.660   0.515   8.738  0.3967 -0.2343 -0.4159
 6397TIP3    H143386   7.670   0.470   8.822  0.1036  0.5692  0.0582
 6397TIP3    H243387   7.750   0.535   8.711  0.4615  2.3768  1.3193
 6398TIP3   OH243388   6.551   0.927  10.148  0.2975  0.0273 -0.1580
 6398TIP3    H143389   6.634   0.958  10.111  0.0096  1.1208  0.0712
 6398TIP3    H243390   6.489   0.998  10.131 -0.3043 -0.2795  0.6944
 6399TIP3   OH243391   5.745   0.470   7.951  0.3983 -0.2560 -0.7901
 6399TIP3    H143392   5.807   0.536   7.918  0.4695  0.5903  0.9245
 6399TIP3    H243393   5.781   0.387   7.921  3.3284  0.0434  1.4115
 6400TIP3   OH243394   2.099   0.083   7.684 -0.2244 -0.2321  0.0121
 6400TIP3    H143395   2.180   0.039   7.660 -1.2294 -1.8940 -0.5488
 6400TIP3    H243396   2.070   0.037   7.763  0.2807  1.5716  1.2980
 6401TIP3   OH243397   7.200   3.153   7.913 -0.0381  0.1080 -0.0881
 6401TIP3    H143398   7.244   3.085   7.863  0.7417 -1.5001  2.6046
 6401TIP3    H243399   7.121   3.173   7.862  0.7116 -1.3239 -1.9332
 6402TIP3   OH243400   5.404   2.407   7.952  0.3022  0.2162  0.0286
 6402TIP3    H143401   5.383   2.400   7.859 -1.4101  0.9900  0.3159
 6402TIP3    H243402   5.499   2.396   7.956  0.2875 -1.0632 -1.6618
 6403TIP3   OH243403   2.773   3.879   8.914 -0.4480  0.1480 -0.4047
 6403TIP3    H143404   2.775   3.852   8.822 -1.1932  1.6295 -0.9006
 6403TIP3    H243405   2.824   3.960   8.916  0.0535 -0.1707  0.6207
 6404TIP3   OH243406   0.029   0.353   7.668 -0.4415  0.2042  0.5290
 6404TIP3    H143407   0.091   0.280   7.667  0.8638  1.1296  3.1230
 6404TIP3    H243408  -0.045   0.323   7.616  1.4304 -1.6375 -1.2337
 6405TIP3   OH243409   2.197   1.082   8.470 -0.2784 -0.0337  0.4974
 6405TIP3    H143410   2.133   1.039   8.526 -1.0637  1.5802  0.8833
 6405TIP3    H243411   2.279   1.036   8.488 -0.9150 -0.8178  1.4837
 6406TIP3   OH243412   4.547   3.066   8.398 -0.6350 -0.2004  0.1015
 6406TIP3    H143413   4.638   3.087   8.418 -1.0841  2.0302 -0.0100
 6406TIP3    H243414   4.551   3.019   8.315  0.3027  1.2928 -0.7189
 6407TIP3   OH243415   6.206   5.286   8.878  0.1139 -0.3777  0.2017
 6407TIP3    H143416   6.223   5.224   8.949  1.8543 -0.3965 -0.1765
 6407TIP3    H243417   6.201   5.232   8.799  1.6723 -0.1002 -0.1350
 6408TIP3   OH243418   4.503   5.769   8.660  0.6053  0.2323  0.1405
 6408TIP3    H143419   4.464   5.706   8.720 -0.3507  1.2674  0.6547
 6408TIP3    H243420   4.428   5.811   8.617  1.0317  2.4513  1.3472
 6409TIP3   OH243421   1.226   4.223   8.641 -0.1095  0.1988  0.4836
 6409TIP3    H143422   1.137   4.195   8.659 -0.2320 -0.1257 -0.5616
 6409TIP3    H243423   1.223   4.318   8.652 -0.7893  0.2843 -0.3278
 6410TIP3   OH243424   6.177   3.732   7.501 -0.3228 -0.2175  0.4961
 6410TIP3    H143425   6.263   3.695   7.521  0.1041 -0.2384 -1.2710
 6410TIP3    H243426   6.191   3.827   7.502  0.3046 -0.2264 -1.9837
 6411TIP3   OH243427   6.465   7.921   8.382  0.4187 -0.6701  0.3683
 6411TIP3    H143428   6.457   7.883   8.469  0.9658 -0.3101  0.5833
 6411TIP3    H243429   6.412   8.001   8.385 -0.9211 -1.5119 -0.1557
 6412TIP3   OH243430   7.729   5.076   7.900 -0.5546  0.5875 -0.0441
 6412TIP3    H143431   7.758   4.986   7.917 -0.6203  0.8592  1.6531
 6412TIP3    H243432   7.674   5.098   7.976  0.3097  2.4138  0.0975
 6413TIP3   OH243433   8.373   7.156   9.121 -0.1751 -0.4872  0.3382
 6413TIP3    H143434   8.414   7.136   9.037  0.3362  0.5782  0.3243
 6413TIP3    H243435   8.401   7.245   9.141 -1.6633 -0.0925  0.8157
 6414TIP3   OH243436   0.167   6.900   9.067  0.3244  0.1494  0.5800
 6414TIP3    H143437   0.099   6.835   9.085  1.6629 -0.9586  1.9575
 6414TIP3    H243438   0.227   6.856   9.007 -0.1259  1.1234 -0.6331
 6415TIP3   OH243439   7.070   4.168   9.357 -0.0474  0.5236 -0.1890
 6415TIP3    H143440   7.134   4.219   9.307  0.0068  1.9044  1.1896
 6415TIP3    H243441   7.118   4.090   9.385  0.7986  1.1473  0.1504
 6416TIP3   OH243442   5.939   8.174   7.654  0.2564 -0.2459  0.0128
 6416TIP3    H143443   6.032   8.157   7.642  0.8121  0.0301  3.0156
 6416TIP3    H243444   5.918   8.241   7.590  2.4866  0.6664  0.1406
 6417TIP3   OH243445   6.615   7.389   9.832  0.3262  0.3533 -0.0087
 6417TIP3    H143446   6.697   7.342   9.845  0.7678  0.3621 -2.2806
 6417TIP3    H243447   6.558   7.325   9.789 -0.0143  1.0523 -0.6239
 6418TIP3   OH243448   6.910   0.673   8.065  0.0253  0.7039 -0.3410
 6418TIP3    H143449   6.961   0.753   8.052  1.9243 -0.4745 -0.5576
 6418TIP3    H243450   6.940   0.639   8.149 -0.4359 -0.0069 -0.4553
 6419TIP3   OH243451   4.777   6.904   9.146  0.5417  0.0599 -0.1466
 6419TIP3    H143452   4.738   6.837   9.203 -2.2705  1.7615  0.1165
 6419TIP3    H243453   4.861   6.866   9.120 -0.0214 -2.7036  1.5430
 6420TIP3   OH243454   5.769   2.906   9.218 -0.1698 -0.6362 -0.3771
 6420TIP3    H143455   5.769   2.948   9.304  0.6842  0.6924 -0.9936
 6420TIP3    H243456   5.834   2.955   9.167  1.0005 -2.8127 -1.1095
 6421TIP3   OH243457   1.577   7.223   8.430 -0.1663  0.3429  0.9700
 6421TIP3    H143458   1.635   7.166   8.380 -1.3145 -0.3888  0.4312
 6421TIP3    H243459   1.492   7.180   8.426 -1.1455  2.2019  0.3004
 6422TIP3   OH243460   4.411   4.319   7.874 -0.5412  0.5526 -0.2194
 6422TIP3    H143461   4.361   4.393   7.908  0.8615  0.9069  1.1673
 6422TIP3    H243462   4.502   4.343   7.888  0.0598 -0.1825 -2.4768
 6423TIP3   OH243463   6.386   8.274   8.056 -0.7143 -0.0163  0.2517
 6423TIP3    H143464   6.316   8.331   8.087 -1.7471 -1.8109  1.3627
 6423TIP3    H243465   6.440   8.258   8.134 -0.5014 -0.6407 -0.0173
 6424TIP3   OH243466   7.173   6.947   8.085  0.1885  0.0757  0.4510
 6424TIP3    H143467   7.152   7.041   8.085 -1.2317 -0.1688  2.3821
 6424TIP3    H243468   7.093   6.905   8.117  0.4779 -1.9209 -1.2202
 6425TIP3   OH243469   6.098   1.675   8.255 -0.3084  0.4426  0.0482
 6425TIP3    H143470   6.138   1.604   8.306 -0.9434 -0.1720 -0.3032
 6425TIP3    H243471   6.171   1.712   8.206  0.0717  0.1817  0.3998
 6426TIP3   OH243472   6.681   3.244   7.867 -0.1252  0.0247  0.4356
 6426TIP3    H143473   6.750   3.179   7.882 -0.5927 -0.7361 -0.5504
 6426TIP3    H243474   6.604   3.192   7.844 -1.2278  0.8306  2.1568
 6427TIP3   OH243475   6.232   2.879   9.401  0.3163  0.9306  0.3283
 6427TIP3    H143476   6.168   2.853   9.335 -2.5044  3.6393  1.7315
 6427TIP3    H243477   6.275   2.956   9.362  1.8358 -0.0767 -0.0529
 6428TIP3   OH243478   4.685   3.978   8.427 -0.0210 -0.3030  0.1810
 6428TIP3    H143479   4.627   3.914   8.386 -0.4937  0.0651  0.2610
 6428TIP3    H243480   4.643   3.997   8.511  0.9377 -1.0586  0.8500
 6429TIP3   OH243481   4.277   5.045   7.956  0.3204 -0.4188 -0.6603
 6429TIP3    H143482   4.207   5.000   7.909 -0.2272  1.8290 -2.1472
 6429TIP3    H243483   4.232   5.094   8.025  0.8839 -1.8388  0.7902
 6430TIP3   OH243484   1.157   5.012   9.597  0.7269 -0.4087  0.3646
 6430TIP3    H143485   1.080   4.957   9.580 -0.5614  1.3362  0.3333
 6430TIP3    H243486   1.208   4.962   9.662  0.8147 -2.6772 -1.3372
 6431TIP3   OH243487   2.780   5.494   9.728 -0.6314 -0.4776  0.2274
 6431TIP3    H143488   2.709   5.476   9.788  0.2625  0.6211  1.6947
 6431TIP3    H243489   2.857   5.506   9.784  0.4839 -0.5409 -1.2137
 6432TIP3   OH243490   3.090   4.654   9.480 -0.0386  0.3650 -0.3604
 6432TIP3    H143491   3.013   4.635   9.535  0.3149 -0.9585 -0.2945
 6432TIP3    H243492   3.107   4.573   9.433  1.3685  0.6067 -0.3232
 6433TIP3   OH243493   8.285   3.240   8.840  0.3315  0.0457 -0.6722
 6433TIP3    H143494   8.260   3.331   8.855  0.7054  0.0461 -0.0177
 6433TIP3    H243495   8.241   3.216   8.758  0.4454  0.8873 -0.9838
 6434TIP3   OH243496   4.035   2.089   8.058  0.2863 -0.2650 -0.2528
 6434TIP3    H143497   4.011   2.161   8.000 -0.4570 -0.0253  0.3379
 6434TIP3    H243498   4.130   2.086   8.054  0.3602  1.0465  0.0478
 6435TIP3   OH243499   6.804   3.026   9.266 -0.0517  0.6132 -0.1246
 6435TIP3    H143500   6.873   3.091   9.281 -0.0073  0.2078  1.6152
 6435TIP3    H243501   6.735   3.049   9.328 -0.9678  0.2544 -0.9735
 6436TIP3   OH243502   5.394   3.343   9.773 -0.5231 -0.2725 -0.0359
 6436TIP3    H143503   5.428   3.254   9.766 -0.8912 -0.3368 -1.5191
 6436TIP3    H243504   5.419   3.372   9.860  0.0222 -1.6556  0.2982
 6437TIP3   OH243505   6.442   0.895   7.866 -0.0192 -0.4977 -0.7840
 6437TIP3    H143506   6.389   0.878   7.788 -0.2458  0.4397 -0.8507
 6437TIP3    H243507   6.405   0.975   7.903  2.3847  1.1612 -1.7643
 6438TIP3   OH243508   0.215   4.883   8.183  0.3800  0.3093 -0.4045
 6438TIP3    H143509   0.298   4.839   8.200 -0.0806 -0.4337 -0.0371
 6438TIP3    H243510   0.219   4.906   8.090  1.2094  0.7611 -0.2686
 6439TIP3   OH243511   8.090   6.888   9.826 -0.2409 -0.8553  0.0682
 6439TIP3    H143512   8.132   6.934   9.898  2.5785 -1.2112 -1.2054
 6439TIP3    H243513   8.114   6.939   9.748 -5.4093  1.1402 -0.6279
 6440TIP3   OH243514   7.811   0.406   8.441  0.4113  0.1883  0.2232
 6440TIP3    H143515   7.739   0.464   8.419  0.5873  0.0046 -0.9007
 6440TIP3    H243516   7.781   0.359   8.519  0.0496  1.3708  0.8109
 6441TIP3   OH243517   8.119   6.302   7.949 -0.3353  0.0521 -0.0857
 6441TIP3    H143518   8.047   6.332   8.004 -0.7320  1.7175 -1.4033
 6441TIP3    H243519   8.082   6.231   7.897 -0.4169 -0.4467  0.6402
 6442TIP3   OH243520   2.510   3.305   9.684 -0.4407 -0.3965 -0.2720
 6442TIP3    H143521   2.534   3.333   9.596 -0.2272  2.7679  0.6331
 6442TIP3    H243522   2.581   3.246   9.711  0.4293  0.0026 -1.5862
 6443TIP3   OH243523   4.992   3.847   7.620  0.6058  0.0879  0.4138
 6443TIP3    H143524   5.066   3.860   7.560 -1.0335 -1.6292 -2.1916
 6443TIP3    H243525   4.919   3.892   7.577 -0.4518 -0.4611  1.5950
 6444TIP3   OH243526   7.954   3.027   9.332  0.2699 -0.0844 -0.1303
 6444TIP3    H143527   7.878   3.072   9.295 -0.8024  0.4029  2.4622
 6444TIP3    H243528   8.029   3.067   9.289 -0.8627  0.0895 -2.0674
 6445TIP3   OH243529   4.969   4.563   8.585  1.1402 -0.1223 -0.1434
 6445TIP3    H143530   4.994   4.609   8.666  1.6232 -1.2041  0.3390
 6445TIP3    H243531   4.914   4.626   8.539 -1.1457 -0.2903  2.1316
 6446TIP3   OH243532   2.558   0.819   9.588  0.8047 -0.4989  0.3820
 6446TIP3    H143533   2.555   0.797   9.495  0.2301 -1.7297  0.6783
 6446TIP3    H243534   2.510   0.749   9.632 -0.1792  0.8005  1.4947
 6447TIP3   OH243535   0.835   4.005   7.769  0.4156 -0.2724 -0.2001
 6447TIP3    H143536   0.912   3.948   7.763  1.3037  0.6672  1.3538
 6447TIP3    H243537   0.834   4.054   7.687  1.2365 -0.5965 -0.4098
 6448TIP3   OH243538   3.524   5.636   8.571  0.4757  0.2948  0.2224
 6448TIP3    H143539   3.502   5.572   8.638 -0.8890  0.6019  0.1104
 6448TIP3    H243540   3.619   5.636   8.567  0.5483 -0.3720  1.5204
 6449TIP3   OH243541   6.881   5.586   8.101 -1.0159 -0.3220 -0.0075
 6449TIP3    H143542   6.954   5.643   8.127  0.4537 -0.5581 -3.1277
 6449TIP3    H243543   6.861   5.536   8.180  2.7603 -0.7750  0.8570
 6450TIP3   OH243544   2.470   1.841   8.354  0.0282  0.6099 -0.5448
 6450TIP3    H143545   2.509   1.873   8.273 -1.3250  1.0639 -1.0529
 6450TIP3    H243546   2.526   1.875   8.423  1.2919  0.0894 -1.2849
 6451TIP3   OH243547   2.075   3.192   7.987 -0.3392  0.2687 -0.0493
 6451TIP3    H143548   2.147   3.142   7.948  0.3115  0.3244  1.0576
 6451TIP3    H243549   2.116   3.271   8.021 -1.1321  0.8869 -0.4880
 6452TIP3   OH243550   8.169   5.957   8.906  0.2769  0.1830 -0.5260
 6452TIP3    H143551   8.087   5.997   8.937  0.0117 -1.0004  0.3729
 6452TIP3    H243552   8.178   5.878   8.959  1.5908 -0.1294 -1.1893
 6453TIP3   OH243553   2.569   2.093   8.809 -0.1158 -1.0017 -0.3787
 6453TIP3    H143554   2.492   2.147   8.820  1.1221  0.4971  1.8081
 6453TIP3    H243555   2.609   2.122   8.727 -0.6230 -0.1156 -0.3197
 6454TIP3   OH243556   6.450   5.001   8.440  0.3039 -0.1740 -0.0412
 6454TIP3    H143557   6.498   4.936   8.490 -1.0414 -0.5739  0.7974
 6454TIP3    H243558   6.378   5.027   8.498 -0.3656  0.5481 -1.1533
 6455TIP3   OH243559   1.451   3.160   8.560 -0.5832 -0.2738  0.2585
 6455TIP3    H143560   1.499   3.240   8.539 -0.3900  0.2104  2.3332
 6455TIP3    H243561   1.518   3.098   8.588 -0.7475 -1.1557 -1.2072
 6456TIP3   OH243562   8.325   3.175   9.521  0.4067 -0.4862  0.6132
 6456TIP3    H143563   8.390   3.115   9.484 -0.5125 -2.0794  1.4426
 6456TIP3    H243564   8.243   3.125   9.520 -0.7049  1.2454  0.1388
 6457TIP3   OH243565   3.423   1.138   8.866  0.6529 -0.1418 -0.3314
 6457TIP3    H143566   3.328   1.140   8.857  0.7489  1.9091 -1.6782
 6457TIP3    H243567   3.438   1.140   8.960 -0.7139  3.1882 -0.0540
 6458TIP3   OH243568   3.254   4.791   7.778 -0.4247  0.0788 -0.1153
 6458TIP3    H143569   3.320   4.851   7.813 -0.4849  0.7951 -1.2011
 6458TIP3    H243570   3.238   4.821   7.689 -0.1458 -1.8127 -0.8549
 6459TIP3   OH243571   2.675   6.346   8.461 -0.1159  0.4384  0.0666
 6459TIP3    H143572   2.763   6.330   8.428 -0.6991 -0.2232 -1.2331
 6459TIP3    H243573   2.685   6.419   8.523  1.0638  1.6482 -1.4724
 6460TIP3   OH243574   5.330   5.243   7.932  0.3246 -0.3622 -0.2449
 6460TIP3    H143575   5.387   5.166   7.943 -0.4605 -0.8137  0.8913
 6460TIP3    H243576   5.361   5.304   7.999 -0.5458 -0.6426  0.4320
 6461TIP3   OH243577   5.174   5.107   8.977 -0.3968 -0.3342 -0.1525
 6461TIP3    H143578   5.098   5.162   8.956 -0.6007 -1.1886 -1.8053
 6461TIP3    H243579   5.214   5.089   8.892  0.7244 -1.2379  0.5503
 6462TIP3   OH243580   1.013   0.341   8.862  0.4284  0.7239  0.0074
 6462TIP3    H143581   1.007   0.248   8.883 -0.5215  0.6432 -0.5525
 6462TIP3    H243582   0.957   0.384   8.926 -1.8658  0.5510 -1.7599
 6463TIP3   OH243583   4.363   5.619   8.856  0.6927 -0.3552 -0.3697
 6463TIP3    H143584   4.290   5.651   8.908  1.5286 -0.6400  1.0326
 6463TIP3    H243585   4.348   5.525   8.849  0.6684 -0.3417 -0.5049
 6464TIP3   OH243586   0.546   5.387   8.994  0.3269 -0.0852 -0.0411
 6464TIP3    H143587   0.538   5.460   9.055 -1.3317  0.0341 -0.3450
 6464TIP3    H243588   0.534   5.427   8.908  1.2658 -0.4631 -0.3671
 6465TIP3   OH243589   6.369   6.365   9.649 -0.1058  0.0601 -0.6304
 6465TIP3    H143590   6.284   6.326   9.666  0.3627 -1.3801 -1.3897
 6465TIP3    H243591   6.419   6.296   9.606  1.1954  1.1194 -0.9052
 6466TIP3   OH243592   0.473   2.405   8.344 -0.0027 -0.0682 -0.2120
 6466TIP3    H143593   0.465   2.468   8.273 -0.9762  3.4422  2.6700
 6466TIP3    H243594   0.384   2.380   8.365  0.1646 -0.0739  0.5261
 6467TIP3   OH243595   1.204   0.301   7.897  0.2883 -0.7175  0.2879
 6467TIP3    H143596   1.281   0.290   7.953  0.6359 -1.3279 -0.2957
 6467TIP3    H243597   1.235   0.355   7.824  0.5128 -2.0053 -0.5957
 6468TIP3   OH243598   6.254   3.007   8.622 -0.2651 -0.3387  0.3899
 6468TIP3    H143599   6.287   2.919   8.641 -2.0376 -1.1947 -0.2678
 6468TIP3    H243600   6.277   3.023   8.530  0.9511  0.3499  0.7834
 6469TIP3   OH243601   3.249   1.923   8.709 -0.5492 -0.6441  0.7283
 6469TIP3    H143602   3.217   1.834   8.697  0.3557 -0.6304 -3.2332
 6469TIP3    H243603   3.199   1.975   8.646  1.6080  0.8810  0.1707
 6470TIP3   OH243604   7.628   0.846   8.976  0.5429  0.1167  1.2187
 6470TIP3    H143605   7.700   0.799   9.019 -0.9803 -1.6135  2.0097
 6470TIP3    H243606   7.556   0.782   8.973 -1.4333  2.1958  1.7366
 6471TIP3   OH243607   3.994   7.804   8.715 -0.7658  0.0105  0.2045
 6471TIP3    H143608   3.991   7.709   8.727  2.4608 -0.1454  0.5927
 6471TIP3    H243609   4.011   7.816   8.622  2.0118 -0.0342  0.6204
 6472TIP3   OH243610   4.174   6.587   8.347 -0.7532  0.5998  0.3362
 6472TIP3    H143611   4.247   6.639   8.313 -0.5579  0.9921  1.3450
 6472TIP3    H243612   4.193   6.575   8.440 -0.9144 -1.0923  0.1846
 6473TIP3   OH243613   7.101   0.065   8.968  0.5696 -0.0222 -0.5738
 6473TIP3    H143614   7.118   0.159   8.954 -0.4666  0.3793  0.6695
 6473TIP3    H243615   7.075   0.059   9.059  0.9377 -1.5956 -0.5481
 6474TIP3   OH243616   5.984   2.845   9.818  0.6293  0.5151 -1.0441
 6474TIP3    H143617   6.078   2.830   9.827  0.1910 -2.0393  0.0998
 6474TIP3    H243618   5.970   2.930   9.861  2.2479  0.3792 -0.1618
 6475TIP3   OH243619   4.743   5.573  10.258  0.3632  0.0556  0.1555
 6475TIP3    H143620   4.774   5.537  10.175 -2.6510  0.1664 -1.1279
 6475TIP3    H243621   4.683   5.643  10.233 -1.2025 -0.3767  2.4006
 6476TIP3   OH243622   8.150   5.914   7.911 -0.4998  0.0036  0.1558
 6476TIP3    H143623   8.202   5.839   7.941 -0.1934  0.1601  0.0230
 6476TIP3    H243624   8.069   5.876   7.878 -0.8981 -0.1640  1.2932
 6477TIP3   OH243625   7.789   1.413   8.351  0.0135 -0.7284 -0.3409
 6477TIP3    H143626   7.737   1.360   8.411  1.9937  0.5504  2.7470
 6477TIP3    H243627   7.871   1.364   8.340  0.3405 -0.1393 -0.5844
 6478TIP3   OH243628   8.226   0.343   9.376 -0.0257 -0.0709 -0.3561
 6478TIP3    H143629   8.297   0.402   9.350  1.1601 -0.3089  2.0474
 6478TIP3    H243630   8.270   0.269   9.416 -1.6070 -1.0152 -0.2920
 6479TIP3   OH243631   4.964   4.619  10.472 -0.0420  0.1892 -0.0785
 6479TIP3    H143632   5.058   4.634  10.469 -0.1861  1.0628 -0.7223
 6479TIP3    H243633   4.927   4.705  10.493 -0.7471  0.1002 -0.9068
 6480TIP3   OH243634   2.149   5.981   8.575 -0.4290  0.2910 -0.3772
 6480TIP3    H143635   2.178   5.901   8.619 -0.5603 -0.0265 -0.8693
 6480TIP3    H243636   2.208   5.991   8.501 -0.2249  0.8162 -0.1510
 6481TIP3   OH243637   3.622   0.901   8.643 -0.5223 -0.2212 -0.1536
 6481TIP3    H143638   3.573   0.906   8.561 -1.2761  0.5907  0.3374
 6481TIP3    H243639   3.689   0.969   8.635 -0.8813  0.1620  0.0878
 6482TIP3   OH243640   6.276   2.993   8.351 -0.0045 -0.0007  0.0309
 6482TIP3    H143641   6.193   2.964   8.312 -0.3370  0.0911  0.6551
 6482TIP3    H243642   6.299   3.072   8.302 -0.5857  0.2980  0.2309
 6483TIP3   OH243643   7.644   6.143   9.038 -0.2368 -0.7865  0.1416
 6483TIP3    H143644   7.654   6.218   8.979  1.9324 -2.1278 -1.3230
 6483TIP3    H243645   7.660   6.180   9.125  1.8801  0.3567 -0.6428
 6484TIP3   OH243646   4.740   0.714   9.226 -0.5025 -0.1341  0.2364
 6484TIP3    H143647   4.678   0.648   9.255  1.1652 -2.0649 -0.3565
 6484TIP3    H243648   4.826   0.674   9.238  0.5949  1.9219 -0.2014
 6485TIP3   OH243649   0.622   6.426   7.837  0.0233  0.0312  0.4976
 6485TIP3    H143650   0.573   6.353   7.874 -2.1633  1.3481  0.3650
 6485TIP3    H243651   0.628   6.405   7.744 -0.0014 -0.3062  0.5711
 6486TIP3   OH243652   3.467   5.459   9.098  0.3002 -0.6512 -0.0005
 6486TIP3    H143653   3.556   5.434   9.075  0.0709 -2.0211  0.5564
 6486TIP3    H243654   3.477   5.530   9.161  0.9546  0.8488 -1.7022
 6487TIP3   OH243655   6.661   1.989   9.104  0.0961 -0.1258 -0.1664
 6487TIP3    H143656   6.595   2.035   9.052  1.3402  1.8465 -0.0732
 6487TIP3    H243657   6.618   1.907   9.128 -1.7640  0.4142 -1.3760
 6488TIP3   OH243658   3.793   3.490   9.407 -0.2492  0.4290 -0.1048
 6488TIP3    H143659   3.834   3.491   9.321  0.2735  0.6690  0.1404
 6488TIP3    H243660   3.739   3.569   9.409  1.8574  1.9500  0.7653
 6489TIP3   OH243661   4.120   0.347   8.534 -0.1031 -0.1151 -0.3959
 6489TIP3    H143662   4.200   0.301   8.509  0.8055  1.9088 -1.4442
 6489TIP3    H243663   4.114   0.420   8.472 -1.8856  0.7163  0.6819
 6490TIP3   OH243664   2.971   0.294   7.977  0.0144 -0.6710 -0.6159
 6490TIP3    H143665   2.974   0.271   8.070  1.5224 -1.4284 -0.8051
 6490TIP3    H243666   3.004   0.216   7.932 -0.8808 -0.3935 -1.8161
 6491TIP3   OH243667   0.015   2.024   8.687 -0.2253  0.4920  0.1090
 6491TIP3    H143668  -0.049   1.955   8.667 -0.5351  1.4671 -2.5847
 6491TIP3    H243669   0.022   2.023   8.783 -0.6535 -2.8384  0.2048
 6492TIP3   OH243670   3.790   5.720   8.012  0.3515  0.4511 -0.3484
 6492TIP3    H143671   3.799   5.737   8.106 -1.5346  0.7115 -0.1698
 6492TIP3    H243672   3.851   5.782   7.970  0.5726  0.9355  0.6655
 6493TIP3   OH243673   5.627   6.724   9.664 -0.3644  0.3136  0.2820
 6493TIP3    H143674   5.553   6.748   9.607  0.6539  0.6117 -0.9724
 6493TIP3    H243675   5.594   6.736   9.753 -2.0289 -0.1878 -0.2249
 6494TIP3   OH243676   6.955   6.044   9.931  0.0380  0.0240  0.2298
 6494TIP3    H143677   7.040   6.081   9.907 -0.6273  1.1383 -0.4629
 6494TIP3    H243678   6.926   5.997   9.853 -0.6900  0.9838 -0.0937
 6495TIP3   OH243679   6.527   4.142   9.691  0.3496 -0.2611 -0.0308
 6495TIP3    H143680   6.545   4.081   9.763  0.8411 -0.2746 -0.1633
 6495TIP3    H243681   6.440   4.177   9.711 -0.0125 -1.1346 -0.0527
 6496TIP3   OH243682   2.566   6.137   8.138 -0.2755  0.2144  0.4892
 6496TIP3    H143683   2.531   6.225   8.152  0.4258  0.8128 -1.2146
 6496TIP3    H243684   2.660   6.151   8.126  0.1021 -0.9808  1.8790
 6497TIP3   OH243685   7.505   6.614   8.406 -0.0544 -0.0831 -0.2205
 6497TIP3    H143686   7.449   6.672   8.354  0.3675  1.7633  1.2904
 6497TIP3    H243687   7.480   6.525   8.378 -2.4523  0.7239 -0.8605
 6498TIP3   OH243688   2.137   7.356   7.906 -0.1928 -0.2027  0.3715
 6498TIP3    H143689   2.149   7.313   7.821  0.9170  0.2280  0.2938
 6498TIP3    H243690   2.219   7.338   7.953 -0.8401 -0.5311  1.4047
 6499TIP3   OH243691   7.358   1.581   9.227  0.3079  0.0272 -0.1757
 6499TIP3    H143692   7.280   1.586   9.171 -0.9817 -1.1717  1.4502
 6499TIP3    H243693   7.412   1.514   9.186 -0.2848 -0.3315 -0.3825
 6500TIP3   OH243694   7.956   4.855   9.385  0.3207  0.2055  0.1208
 6500TIP3    H143695   8.049   4.838   9.371  0.4988 -0.0301  1.4435
 6500TIP3    H243696   7.950   4.948   9.405  0.2699  0.2247  0.0175
 6501TIP3   OH243697   8.053   2.888   8.436  0.5235  0.1124 -0.0973
 6501TIP3    H143698   8.132   2.929   8.400  1.2418 -0.1478  1.0926
 6501TIP3    H243699   8.065   2.895   8.531 -0.0248 -1.5585  0.1169
 6502TIP3   OH243700   8.077   0.159   8.228 -0.5155  0.7905 -0.4098
 6502TIP3    H143701   8.090   0.240   8.277  2.0893 -0.3521  0.9604
 6502TIP3    H243702   8.165   0.126   8.213 -1.4871 -1.4336 -1.5822
 6503TIP3   OH243703   3.281   3.957   8.208  0.4012 -0.1127 -0.3239
 6503TIP3    H143704   3.230   3.880   8.185  0.5404 -0.2285 -0.2468
 6503TIP3    H243705   3.336   3.974   8.131  1.0389 -0.6410  0.0018
 6504TIP3   OH243706   1.025   1.036   8.227 -0.0506  0.0262  0.0449
 6504TIP3    H143707   0.991   1.088   8.300  0.3493  0.8138 -0.3143
 6504TIP3    H243708   1.016   1.093   8.151  0.3395 -0.4595 -0.3699
 6505TIP3   OH243709   6.031   7.736   8.890 -0.4794 -0.4287  0.3610
 6505TIP3    H143710   6.053   7.829   8.893  1.0473 -0.7636  0.4660
 6505TIP3    H243711   5.964   7.728   8.822  1.9356  0.2931 -2.3066
 6506TIP3   OH243712   5.661   1.116   8.208  0.5521 -0.2615 -0.6538
 6506TIP3    H143713   5.721   1.086   8.276 -0.3241 -1.5633 -0.4097
 6506TIP3    H243714   5.578   1.072   8.228 -0.7066  1.9412 -0.6167
 6507TIP3   OH243715   0.658   6.440   8.959  0.0017 -0.0354 -0.7353
 6507TIP3    H143716   0.661   6.474   9.048  0.6008  1.1391 -1.1879
 6507TIP3    H243717   0.742   6.395   8.948 -0.4720 -1.0475 -0.4016
 6508TIP3   OH243718   5.993   6.652   8.450 -0.1253  0.0089 -0.2759
 6508TIP3    H143719   5.939   6.683   8.523 -1.5803 -0.6025 -1.0631
 6508TIP3    H243720   6.028   6.732   8.410  0.3956  0.3653  0.8388
 6509TIP3   OH243721   4.137   5.215  10.009 -0.2004  0.3811  0.4157
 6509TIP3    H143722   4.218   5.216   9.958 -0.0751 -1.8314  0.4571
 6509TIP3    H243723   4.166   5.205  10.100 -0.5066  0.3108  0.5083
 6510TIP3   OH243724   3.346   0.067   9.373 -0.6205 -0.1291 -0.4518
 6510TIP3    H143725   3.283   0.029   9.312  0.3860 -1.7992 -0.5280
 6510TIP3    H243726   3.307   0.054   9.459 -0.1992 -1.5950 -0.4624
 6511TIP3   OH243727   0.179   1.713   9.628 -0.6753  0.3989  0.1816
 6511TIP3    H143728   0.158   1.626   9.662 -1.2414  0.4754  0.0402
 6511TIP3    H243729   0.221   1.758   9.700  1.4944 -0.6585 -0.3302
 6512TIP3   OH243730   3.220   5.069   9.037  0.2654  0.0984 -0.2287
 6512TIP3    H143731   3.129   5.041   9.045  0.8466 -1.6696  0.6806
 6512TIP3    H243732   3.255   5.017   8.965  0.7237  0.3157 -0.1627
 6513TIP3   OH243733   3.923   7.023   9.219 -0.2352  0.0433  0.0186
 6513TIP3    H143734   3.940   7.011   9.125 -0.3522  0.9481 -0.1223
 6513TIP3    H243735   3.999   6.985   9.262  0.0017 -0.0296 -0.4571
 6514TIP3   OH243736   2.670   0.911   9.186  0.2246 -0.0845 -0.2935
 6514TIP3    H143737   2.736   0.866   9.133 -0.5552 -0.9079 -0.6043
 6514TIP3    H243738   2.591   0.908   9.132 -0.2189  0.3517  0.3220
 6515TIP3   OH243739   6.868   7.077   9.502  0.0476 -0.0513  0.5085
 6515TIP3    H143740   6.889   6.990   9.469  0.7896 -0.3425  1.6941
 6515TIP3    H243741   6.952   7.121   9.510 -0.2461  0.4820  0.7446
 6516TIP3   OH243742   3.144   6.321   8.553 -0.0975 -0.6131 -1.3674
 6516TIP3    H143743   3.152   6.230   8.582 -1.1429 -0.2313  0.2708
 6516TIP3    H243744   3.068   6.320   8.495 -1.7189 -0.4164  0.6299
 6517TIP3   OH243745   6.197   7.525   7.792 -0.1633 -0.3728 -0.6689
 6517TIP3    H143746   6.212   7.493   7.703 -0.2119 -0.9988 -0.4549
 6517TIP3    H243747   6.224   7.453   7.849  2.1729  0.8753 -0.0733
 6518TIP3   OH243748   3.005   6.602   8.952  0.6058 -0.6286 -0.3153
 6518TIP3    H143749   3.039   6.691   8.964  0.7362 -0.3154 -2.5054
 6518TIP3    H243750   3.041   6.574   8.867  0.4190 -2.7154  0.2239
 6519TIP3   OH243751   1.505   2.850   7.961  0.4758  0.2732 -0.3854
 6519TIP3    H143752   1.506   2.827   8.054  1.7128 -0.9297 -0.6625
 6519TIP3    H243753   1.418   2.823   7.931  0.6529 -0.8883  0.0816
 6520TIP3   OH243754   2.490   5.995   7.892 -0.1630  0.8383  0.0672
 6520TIP3    H143755   2.488   6.044   7.975 -1.8357  0.4105  0.3233
 6520TIP3    H243756   2.421   6.034   7.840  0.2128  0.4342 -0.7423
 6521TIP3   OH243757   4.901   1.539   8.606 -0.3566 -0.1217 -0.0104
 6521TIP3    H143758   4.872   1.615   8.658  1.7609  0.4936  0.3502
 6521TIP3    H243759   4.839   1.535   8.533  0.0688  2.6286 -0.6240
 6522TIP3   OH243760   3.286   7.549   9.159  0.5906  0.2556  0.0473
 6522TIP3    H143761   3.337   7.468   9.158  1.6329  0.8829 -1.8413
 6522TIP3    H243762   3.341   7.612   9.205  0.4829  0.3115  0.1008
 6523TIP3   OH243763   3.069   1.112   8.493  0.0350 -0.3887 -0.0057
 6523TIP3    H143764   3.020   1.160   8.426  0.2169 -1.5807 -1.0307
 6523TIP3    H243765   3.132   1.176   8.527  1.1308 -0.1734 -2.2251
 6524TIP3   OH243766   0.081   3.343   8.519 -0.9325  0.0561  0.3387
 6524TIP3    H143767   0.133   3.281   8.468 -1.0552 -0.0075  0.2906
 6524TIP3    H243768   0.106   3.429   8.485 -1.9715 -0.0519 -0.7331
 6525TIP3   OH243769   7.132   7.221  10.408 -0.1496 -0.1126 -0.2587
 6525TIP3    H143770   7.104   7.174  10.330  0.8127  3.7084 -3.2148
 6525TIP3    H243771   7.066   7.290  10.420 -1.3026 -1.6203  3.5905
 6526TIP3   OH243772   1.626   5.482   9.738 -0.1120 -0.2742 -0.0162
 6526TIP3    H143773   1.710   5.455   9.774  1.2204  2.6201 -0.6489
 6526TIP3    H243774   1.603   5.561   9.787 -0.7560  0.9004 -2.0730
 6527TIP3   OH243775   3.619   7.233   9.797  0.1161 -0.5795 -0.0423
 6527TIP3    H143776   3.649   7.272   9.879 -2.2226 -1.2809  1.2288
 6527TIP3    H243777   3.525   7.249   9.795  0.3429  1.3869 -3.7319
 6528TIP3   OH243778   6.747   4.560   9.028  0.0684 -0.2165  0.4676
 6528TIP3    H143779   6.743   4.581   8.934  0.9155 -3.9571 -0.5726
 6528TIP3    H243780   6.840   4.554   9.047 -0.1019  0.4799  1.5932
 6529TIP3   OH243781   7.072   1.833   9.227 -0.3613 -0.1363 -0.2936
 6529TIP3    H143782   7.132   1.884   9.172 -0.1472 -0.3910 -0.2996
 6529TIP3    H243783   7.002   1.894   9.250 -0.1027  0.1609 -0.2951
 6530TIP3   OH243784   6.377   3.242  10.324 -0.1705 -0.6758  0.0367
 6530TIP3    H143785   6.415   3.301  10.390 -2.5188 -1.2769  2.0676
 6530TIP3    H243786   6.330   3.300  10.265 -1.6749 -0.3372  1.4796
 6531TIP3   OH243787   4.324   0.889   8.324  0.3935  0.0231 -0.2032
 6531TIP3    H143788   4.358   0.935   8.247 -0.9730 -0.2205 -0.9904
 6531TIP3    H243789   4.290   0.806   8.289 -2.4036  0.8937  0.2089
 6532TIP3   OH243790   5.679   6.084   8.082  0.0755  0.1976 -0.3207
 6532TIP3    H143791   5.752   6.060   8.024  0.8744 -0.9261  1.0924
 6532TIP3    H243792   5.616   6.013   8.072  0.1201  0.1093  0.0063
 6533TIP3   OH243793   7.516   1.922   8.007 -0.6091  0.5416 -0.2363
 6533TIP3    H143794   7.579   1.850   8.014  0.8485  1.3998 -2.9329
 6533TIP3    H243795   7.434   1.879   7.982 -0.8628 -0.4838  2.1241
 6534TIP3   OH243796   4.837   8.396   9.384 -0.0796  0.3406 -0.0666
 6534TIP3    H143797   4.779   8.323   9.405  1.0263 -0.6709 -0.4482
 6534TIP3    H243798   4.870   8.426   9.468  0.9695 -0.8780 -0.0206
 6535TIP3   OH243799   8.309   5.631  10.007 -0.0270 -0.1145 -0.1344
 6535TIP3    H143800   8.263   5.582   9.938 -0.1363 -2.0874  1.2686
 6535TIP3    H243801   8.294   5.581  10.087 -0.4002  2.3945  1.5036
 6536TIP3   OH243802   0.660   6.159   8.771 -0.1128 -0.3519 -0.3223
 6536TIP3    H143803   0.686   6.206   8.850 -2.6778  0.2790  0.2253
 6536TIP3    H243804   0.653   6.226   8.704 -1.0749 -0.3588 -0.2425
 6537TIP3   OH243805   4.484   5.168   8.424  0.1514 -0.0911  0.0686
 6537TIP3    H143806   4.508   5.254   8.392 -0.3461 -0.6990 -2.1105
 6537TIP3    H243807   4.406   5.183   8.477 -0.8024  0.6658 -1.4876
 6538TIP3   OH243808   2.226   5.949   7.738 -0.3727 -0.1075  0.2772
 6538TIP3    H143809   2.156   5.886   7.718  0.2699 -0.8384  0.2677
 6538TIP3    H243810   2.180   6.025   7.775 -1.1291 -0.7824  0.7682
 6539TIP3   OH243811   6.435   1.549   8.673  0.0412  0.2413  0.0960
 6539TIP3    H143812   6.472   1.467   8.641 -0.7107 -0.3629  0.7311
 6539TIP3    H243813   6.340   1.536   8.668 -0.1416  1.9117 -1.8929
 6540TIP3   OH243814   2.195   3.794   8.227 -0.2451 -0.1060 -0.4239
 6540TIP3    H143815   2.142   3.764   8.300 -0.7851 -1.6112 -1.3945
 6540TIP3    H243816   2.141   3.779   8.150  0.3306  1.3954 -1.1534
 6541TIP3   OH243817   1.592   3.474   7.963  0.6343  0.6488 -0.3930
 6541TIP3    H143818   1.566   3.468   7.871 -0.9062 -0.2774  0.0777
 6541TIP3    H243819   1.575   3.387   7.998  1.9362  0.7704  0.6105
 6542TIP3   OH243820   7.913   2.361   9.172  0.0747 -0.5507  0.0777
 6542TIP3    H143821   8.001   2.394   9.153 -0.4364  0.6387 -0.3339
 6542TIP3    H243822   7.927   2.285   9.228  1.3781 -0.6151 -0.3071
 6543TIP3   OH243823   3.076   7.683   8.692  0.2280  0.4239  0.2765
 6543TIP3    H143824   3.105   7.718   8.777  2.4156  1.6179 -0.8833
 6543TIP3    H243825   3.091   7.589   8.698 -1.5555  0.1733  1.8758
 6544TIP3   OH243826   4.688   4.795   9.222  0.7947  0.1651 -0.2238
 6544TIP3    H143827   4.758   4.833   9.170 -0.3490 -0.0401 -2.0193
 6544TIP3    H243828   4.626   4.761   9.157 -0.5437 -0.4225  1.2907
 6545TIP3   OH243829   3.809   6.758   9.274 -0.4110 -0.5529 -0.1729
 6545TIP3    H143830   3.834   6.842   9.233  0.7536 -0.5322  0.5153
 6545TIP3    H243831   3.807   6.778   9.368 -5.0369 -0.0760 -0.1781
 6546TIP3   OH243832   1.576   7.059   8.689 -0.0597 -0.1045  0.6137
 6546TIP3    H143833   1.560   7.147   8.722 -0.2466 -0.5210  1.6746
 6546TIP3    H243834   1.549   7.062   8.597  2.0102  1.5197  0.0018
 6547TIP3   OH243835   6.910   7.947  10.076 -0.0316 -0.5095 -0.0258
 6547TIP3    H143836   6.836   7.951  10.136 -0.0604 -1.7041  0.0474
 6547TIP3    H243837   6.960   7.870  10.105  0.5614 -0.4405 -0.8360
 6548TIP3   OH243838   1.877   8.204   9.441  0.2484  0.5269  0.1669
 6548TIP3    H143839   1.950   8.251   9.480 -0.7783  0.6550  2.0364
 6548TIP3    H243840   1.886   8.220   9.347  2.2058  1.0969  0.4096
 6549TIP3   OH243841   3.555   7.073   8.784 -0.5089  0.4362 -0.1293
 6549TIP3    H143842   3.643   7.035   8.784 -0.1989  1.1198  0.7040
 6549TIP3    H243843   3.570   7.167   8.786 -1.2323  0.8110 -4.2918
 6550TIP3   OH243844   0.763   3.730   9.324 -0.1493 -0.1614 -0.5083
 6550TIP3    H143845   0.744   3.649   9.371  1.0847  0.2673  0.7947
 6550TIP3    H243846   0.713   3.797   9.370 -0.1380  0.0261 -0.7663
 6551TIP3   OH243847   2.073   7.614   7.811  0.7841  0.5805  0.2849
 6551TIP3    H143848   2.080   7.522   7.839 -0.2635  0.2934 -0.3111
 6551TIP3    H243849   2.160   7.635   7.777  0.9184 -0.3548  0.0045
 6552TIP3   OH243850   6.542   1.838   9.688 -0.4199  0.1778 -0.0871
 6552TIP3    H143851   6.482   1.908   9.714 -1.0561 -0.7033  0.8726
 6552TIP3    H243852   6.532   1.771   9.756 -1.2324 -1.6777 -1.9393
 6553TIP3   OH243853   7.634   0.660   9.782 -0.0141 -0.4391 -0.3126
 6553TIP3    H143854   7.548   0.665   9.825 -0.0782 -0.3262 -0.4536
 6553TIP3    H243855   7.614   0.629   9.693  0.0720 -0.2299 -0.4054
 6554TIP3   OH243856   4.325   0.285   9.852  0.3836 -0.0257  0.3258
 6554TIP3    H143857   4.337   0.190   9.855 -0.7840 -0.3158 -2.3038
 6554TIP3    H243858   4.414   0.319   9.842  0.5756 -1.1074 -2.2414
 6555TIP3   OH243859   2.863   0.140   8.390  0.5516 -0.4362 -0.0582
 6555TIP3    H143860   2.789   0.174   8.341  0.4564 -1.5634 -0.7346
 6555TIP3    H243861   2.935   0.198   8.369  0.6778 -1.2460 -2.0834
 6556TIP3   OH243862   8.277   7.734   7.813 -0.3375  0.2522 -0.0532
 6556TIP3    H143863   8.353   7.789   7.796  0.3485 -0.7168 -0.2352
 6556TIP3    H243864   8.313   7.646   7.823 -1.4954 -0.3288 -0.7560
 6557TIP3   OH243865   7.725   2.988   8.662 -0.2803  0.1175 -0.3638
 6557TIP3    H143866   7.748   3.020   8.575 -1.8410  0.5887 -0.6254
 6557TIP3    H243867   7.700   2.897   8.649  2.5033 -0.8298  0.1246
 6558TIP3   OH243868   3.291   3.551   8.989 -0.3382  0.6104  0.3405
 6558TIP3    H143869   3.374   3.506   8.976 -0.5408  0.2465  0.3028
 6558TIP3    H243870   3.255   3.561   8.900 -0.7418 -0.0129  0.4277
 6559TIP3   OH243871   4.071   4.639   9.269 -0.3198  0.6126  0.4996
 6559TIP3    H143872   4.034   4.723   9.296  1.2793  0.9051  1.9663
 6559TIP3    H243873   4.133   4.660   9.200 -0.0902  0.6159  0.7053
 6560TIP3   OH243874   1.628   3.891   8.350  0.5540  0.1264 -0.1203
 6560TIP3    H143875   1.593   3.969   8.306 -1.9528  1.0200  3.0696
 6560TIP3    H243876   1.602   3.818   8.293  0.8279  1.3989 -1.9776
 6561TIP3   OH243877   1.432   3.930   9.163 -0.4147 -0.0936  0.1056
 6561TIP3    H143878   1.457   4.012   9.205 -2.0228 -0.5581  2.1054
 6561TIP3    H243879   1.417   3.869   9.235  0.7634 -2.1950 -1.3165
 6562TIP3   OH243880   5.090   5.700   7.731 -0.1675 -0.0323  0.4055
 6562TIP3    H143881   5.076   5.700   7.636  1.0728 -0.4303  0.2012
 6562TIP3    H243882   5.140   5.620   7.747  1.0496  0.8355  1.1492
 6563TIP3   OH243883   3.744   6.106   8.930  0.1127 -0.0974  0.4961
 6563TIP3    H143884   3.661   6.058   8.929 -0.0682  0.2216 -0.4305
 6563TIP3    H243885   3.724   6.188   8.976 -0.7697  1.1293 -1.9316
 6564TIP3   OH243886   1.585   2.067   8.472 -0.3612  0.4583  0.2466
 6564TIP3    H143887   1.655   2.002   8.463 -0.1756  0.4922  1.3026
 6564TIP3    H243888   1.617   2.142   8.423 -0.2791 -0.0124 -0.4357
 6565TIP3   OH243889   6.338   1.267   8.791 -0.7126 -0.2924 -0.0126
 6565TIP3    H143890   6.263   1.280   8.733  0.6633  2.2089 -1.3745
 6565TIP3    H243891   6.316   1.317   8.870 -0.2603  0.9599 -0.6600
 6566TIP3   OH243892   3.077   3.199   8.131  0.3634  0.1465  0.4200
 6566TIP3    H143893   3.012   3.141   8.090  0.1188  0.1866  0.7378
 6566TIP3    H243894   3.055   3.196   8.225  2.5843 -2.1182  0.9762
 6567TIP3   OH243895   7.122   5.740   8.176  0.3018  0.0836  0.2452
 6567TIP3    H143896   7.205   5.748   8.129  0.3848 -0.4708  0.2930
 6567TIP3    H243897   7.146   5.739   8.269  0.1118  1.5437  0.3394
 6568TIP3   OH243898   1.619   2.041   7.842  0.0314 -0.1780  0.1189
 6568TIP3    H143899   1.597   2.126   7.879  2.6231  1.1565 -1.1020
 6568TIP3    H243900   1.634   2.059   7.749 -0.1285 -2.1643 -0.3435
 6569TIP3   OH243901   0.357   0.142   8.487  0.6604  0.5753  0.2089
 6569TIP3    H143902   0.402   0.225   8.501  0.3082  0.4729  2.1610
 6569TIP3    H243903   0.270   0.155   8.524  0.5106 -0.5720  0.2955
 6570TIP3   OH243904   7.476   0.952   8.296  0.0408 -0.7423 -0.6171
 6570TIP3    H143905   7.471   0.936   8.391  0.3309  0.2507 -0.4176
 6570TIP3    H243906   7.491   0.866   8.258 -0.7507 -1.2479  0.1843
 6571TIP3   OH243907   4.294   4.883   9.348  0.0395 -0.2608  0.1231
 6571TIP3    H143908   4.201   4.904   9.339  0.1869  0.4940  0.3327
 6571TIP3    H243909   4.328   4.890   9.258 -0.3024 -1.5537 -0.1276
 6572TIP3   OH243910   3.196   0.876   8.097 -0.5952 -0.2744  0.3480
 6572TIP3    H143911   3.249   0.806   8.136 -0.2323 -0.2515 -0.1036
 6572TIP3    H243912   3.137   0.830   8.038 -0.5162 -0.2192  0.2275
 6573TIP3   OH243913   2.789   0.524   8.026  0.0291  0.0454  0.6981
 6573TIP3    H143914   2.830   0.438   8.017 -0.3079 -0.0449 -0.0721
 6573TIP3    H243915   2.697   0.509   8.004  0.4885  1.1146 -2.4449
 6574TIP3   OH243916   2.109   1.994   8.921  0.2604  0.4376 -0.0542
 6574TIP3    H143917   2.042   1.983   8.854 -1.1851  2.1834  1.0116
 6574TIP3    H243918   2.067   1.964   9.002  1.1418  0.5668  0.4610
 6575TIP3   OH243919   0.633   2.547   8.858  0.4100  0.0376  0.2979
 6575TIP3    H143920   0.711   2.599   8.872 -0.4936  0.9166  2.4658
 6575TIP3    H243921   0.646   2.468   8.912  0.1271 -0.1630  0.0790
 6576TIP3   OH243922   1.132   4.321   7.816 -0.0847 -0.2508  0.3490
 6576TIP3    H143923   1.117   4.265   7.740  2.9010 -0.0513 -0.4930
 6576TIP3    H243924   1.145   4.409   7.779  2.3241 -0.3065  0.9125
 6577TIP3   OH243925   7.053   7.870   9.774 -0.7568  0.1276 -0.2646
 6577TIP3    H143926   7.137   7.888   9.816 -0.1201  0.1414 -1.5147
 6577TIP3    H243927   6.991   7.926   9.821  0.0153  0.5263  0.3114
 6578TIP3   OH243928   2.946   4.969   8.301 -0.3049  0.2568  0.1016
 6578TIP3    H143929   2.979   5.047   8.258 -1.0544 -0.4959 -1.9472
 6578TIP3    H243930   3.014   4.903   8.287 -0.1673  0.2273  0.8618
 6579TIP3   OH243931   4.648   6.056   7.709 -0.1239  0.1260 -0.1368
 6579TIP3    H143932   4.630   6.147   7.687  1.3054  0.1860 -1.2051
 6579TIP3    H243933   4.571   6.028   7.759 -1.2933  1.4525 -1.0989
 6580TIP3   OH243934   2.034   8.411   8.342  0.2481  0.0631 -0.1366
 6580TIP3    H143935   1.995   8.330   8.310  1.0603 -0.1274 -0.6933
 6580TIP3    H243936   2.000   8.421   8.431  1.1815 -1.6100  0.4450
 6581TIP3   OH243937   8.348   8.272   7.979 -0.1290 -0.2900 -0.4946
 6581TIP3    H143938   8.360   8.362   8.007  0.8745  0.8679 -4.1282
 6581TIP3    H243939   8.254   8.254   7.993 -0.7739  2.0190 -1.4771
 6582TIP3   OH243940   3.568   1.692   9.433 -0.1106  0.0603  0.1642
 6582TIP3    H143941   3.473   1.703   9.431  0.0529  1.9153  0.3631
 6582TIP3    H243942   3.602   1.778   9.407  1.5125 -0.6373 -0.1096
 6583TIP3   OH243943   0.361   7.624   9.648 -0.4418 -0.0136  0.6113
 6583TIP3    H143944   0.376   7.719   9.654  0.6448 -0.0208 -1.3225
 6583TIP3    H243945   0.442   7.589   9.611 -0.9297 -1.6898  1.0432
 6584TIP3   OH243946   5.894   3.584   8.167  0.2248  0.1274 -0.0522
 6584TIP3    H143947   5.872   3.526   8.094  0.3115  1.8413 -1.4855
 6584TIP3    H243948   5.938   3.527   8.230 -1.9480 -1.9116 -0.2128
 6585TIP3   OH243949   4.640   0.513   8.130  0.1506  0.7394  0.1791
 6585TIP3    H143950   4.639   0.537   8.037  1.0555  1.2792  0.2981
 6585TIP3    H243951   4.646   0.597   8.175  0.1811  0.4492  0.7153
 6586TIP3   OH243952   7.950   5.139   8.865 -0.4752  0.0665  0.2357
 6586TIP3    H143953   7.910   5.215   8.908 -0.2318  0.0433  0.5021
 6586TIP3    H243954   7.890   5.067   8.883 -1.8618  0.6159 -1.8485
 6587TIP3   OH243955   3.507   2.719   7.926  0.5237 -0.4097  0.2677
 6587TIP3    H143956   3.467   2.793   7.880  1.8132 -0.3002 -0.7328
 6587TIP3    H243957   3.568   2.681   7.862  0.6098 -1.7369  1.0975
 6588TIP3   OH243958   4.801   5.298   8.718  0.2556  0.3578  0.0985
 6588TIP3    H143959   4.841   5.318   8.802  0.5544 -1.7899  0.5262
 6588TIP3    H243960   4.847   5.219   8.688  0.4159  1.2610 -2.2625
 6589TIP3   OH243961   8.390   1.249   9.844  0.4565 -0.1368  0.2173
 6589TIP3    H143962   8.385   1.281   9.754 -1.1854 -0.9867 -0.0247
 6589TIP3    H243963   8.314   1.288   9.888 -0.6089 -2.2254  0.3625
 6590TIP3   OH243964   1.466   0.456   9.859  0.3635 -0.5390 -0.1410
 6590TIP3    H143965   1.488   0.543   9.890 -0.2019 -0.0981 -0.9368
 6590TIP3    H243966   1.550   0.414   9.842  0.6311 -0.0393 -0.0631
 6591TIP3   OH243967   2.113   7.941   8.688  0.3953 -0.1985  0.0392
 6591TIP3    H143968   2.088   7.864   8.740  2.8411 -1.3470 -0.3864
 6591TIP3    H243969   2.165   7.906   8.616  0.3264  1.7559 -1.0227
 6592TIP3   OH243970   5.415   4.293   9.195 -0.8088 -0.0295  0.3224
 6592TIP3    H143971   5.345   4.228   9.189 -1.6044  0.7488  0.9726
 6592TIP3    H243972   5.465   4.282   9.113 -0.5907 -1.7964  0.6451
 6593TIP3   OH243973   6.594   6.790   8.412  0.5318  0.1862  0.3239
 6593TIP3    H143974   6.576   6.875   8.372  0.6619  0.2381  0.3758
 6593TIP3    H243975   6.688   6.778   8.400  0.6653  0.4357  1.0708
 6594TIP3   OH243976   8.210   1.510   7.769  0.3960  0.3251 -0.1296
 6594TIP3    H143977   8.138   1.462   7.810  0.5790 -0.0851 -0.2851
 6594TIP3    H243978   8.289   1.473   7.807  0.5424  0.4177 -0.3386
 6595TIP3   OH243979   5.161   6.751   9.896  0.2252  0.1024  0.2902
 6595TIP3    H143980   5.169   6.835   9.850 -0.9410  0.2369  0.2941
 6595TIP3    H243981   5.083   6.761   9.951  1.4290 -0.1574  2.1108
 6596TIP3   OH243982   2.489   4.554   7.889  0.2225  0.1635  0.4693
 6596TIP3    H143983   2.566   4.498   7.879 -1.1316 -1.5976 -0.5781
 6596TIP3    H243984   2.482   4.600   7.806 -0.9737 -1.2280 -0.2439
 6597TIP3   OH243985   5.200   4.426   9.013  0.1760  0.0416 -0.1059
 6597TIP3    H143986   5.234   4.363   8.949  0.3696 -0.2356  0.2644
 6597TIP3    H243987   5.246   4.404   9.094 -0.3685  0.1256  0.2295
 6598TIP3   OH243988   2.993   5.538   9.188 -0.5046 -0.0541 -0.1042
 6598TIP3    H143989   2.955   5.625   9.180  1.0262  0.5552 -1.2091
 6598TIP3    H243990   2.918   5.479   9.189 -1.5696  1.2573  0.7293
 6599TIP3   OH243991   1.468   6.072   9.749 -0.0783 -0.3352  0.0884
 6599TIP3    H143992   1.404   6.014   9.707 -0.3819  0.1284 -0.0995
 6599TIP3    H243993   1.432   6.160   9.736 -0.7037 -0.2328  2.2301
 6600TIP3   OH243994   8.065   0.813   8.200 -0.1315  0.5337  0.2795
 6600TIP3    H143995   8.121   0.750   8.153 -1.9953 -1.0753  0.0935
 6600TIP3    H243996   8.058   0.888   8.141  3.1024  1.5568  0.9927
 6601TIP3   OH243997   1.775   7.032   8.863  0.6184  0.4207  0.2628
 6601TIP3    H143998   1.776   6.937   8.863 -0.8871  0.3484  2.2889
 6601TIP3    H243999   1.699   7.055   8.808 -0.0056  0.3812  1.0922
 6602TIP3   OH244000   5.008   2.536   8.291  0.5281  0.5261  0.4045
 6602TIP3    H144001   5.072   2.525   8.221  0.6520 -0.8689  0.7092
 6602TIP3    H244002   4.939   2.472   8.270 -0.5747  1.6907  0.3178
 6603TIP3   OH244003   1.791   0.687   8.134 -0.0503  0.3288 -1.2605
 6603TIP3    H144004   1.792   0.730   8.048  0.9362 -0.4289 -1.6529
 6603TIP3    H244005   1.794   0.760   8.197  0.5242  0.8781 -1.8992
 6604TIP3   OH244006   3.433   3.017   8.459  0.1994 -0.8125 -0.0109
 6604TIP3    H144007   3.492   2.952   8.421  1.3724  0.8026 -1.1144
 6604TIP3    H244008   3.413   3.076   8.386 -1.0241 -0.0764  0.8905
 6605TIP3   OH244009   5.442   5.444   8.547 -0.4538 -0.3780 -0.0208
 6605TIP3    H144010   5.490   5.469   8.468 -0.6988  0.3252  0.0424
 6605TIP3    H244011   5.464   5.352   8.561 -0.9943 -0.7339 -1.3486
 6606TIP3   OH244012   3.179   2.593   8.038 -0.1894 -0.3649  0.1682
 6606TIP3    H144013   3.244   2.651   8.078  1.8071 -0.2352 -2.9385
 6606TIP3    H244014   3.101   2.648   8.028 -0.6055 -0.2465  3.0886
 6607TIP3   OH244015   6.096   5.962   8.265  0.2687  0.0548  0.9045
 6607TIP3    H144016   6.079   5.892   8.328 -0.3148 -0.4358  0.2127
 6607TIP3    H244017   6.154   5.922   8.200  0.8058  0.5385  1.0745
 6608TIP3   OH244018   2.974   6.018   9.131  0.0379 -0.0367  0.2309
 6608TIP3    H144019   2.894   6.019   9.183 -1.3249  2.6294 -1.6984
 6608TIP3    H244020   2.991   6.110   9.111  1.7498 -0.7646 -2.1286
 6609TIP3   OH244021   6.917   3.427   8.088 -0.4763 -0.4020 -0.0401
 6609TIP3    H144022   6.877   3.482   8.154  1.8618 -0.8130  1.8648
 6609TIP3    H244023   6.899   3.338   8.116  0.1964 -0.5808 -0.1505
 6610TIP3   OH244024   1.805   1.487  15.030  0.0069  0.1755  0.2838
 6610TIP3    H144025   1.821   1.567  15.080  0.3974 -0.4609  1.2146
 6610TIP3    H244026   1.763   1.428  15.092  0.4359 -0.6143 -0.1528
 6611TIP3   OH244027   5.728   0.145   9.023 -0.4796  0.0603  0.1922
 6611TIP3    H144028   5.777   0.096   8.957  0.9897 -0.0707  1.3419
 6611TIP3    H244029   5.677   0.208   8.973  0.7740  0.1184 -1.0648
 6612TIP3   OH244030   7.386   1.313   9.140 -0.5647  0.8136 -0.4686
 6612TIP3    H144031   7.434   1.229   9.139  0.1468  1.2066 -0.2493
 6612TIP3    H244032   7.312   1.299   9.081 -1.0828 -0.3282  0.4102
 6613TIP3   OH244033   0.022   0.739   8.305 -0.0350 -0.6203 -0.2413
 6613TIP3    H144034   0.095   0.688   8.340  0.4387 -2.4331 -3.4725
 6613TIP3    H244035  -0.050   0.676   8.301 -0.9265  0.3491  0.1637
 6614TIP3   OH244036   4.905   0.388   8.161 -0.2941 -0.6414 -0.6133
 6614TIP3    H144037   4.881   0.304   8.202 -1.2307  0.4084  1.0781
 6614TIP3    H244038   4.821   0.427   8.136 -0.0280  0.6328  0.3822
 6615TIP3   OH244039   8.351   3.468   9.044  0.1506  0.1499  0.1782
 6615TIP3    H144040   8.385   3.421   9.120  2.4793  0.3036 -0.6803
 6615TIP3    H244041   8.262   3.435   9.033 -0.1178 -0.1750  2.6795
 6616TIP3   OH244042   0.671   4.118   7.955 -0.1087 -0.3069  0.1352
 6616TIP3    H144043   0.698   4.081   8.039 -1.3410 -2.1513 -0.2255
 6616TIP3    H244044   0.732   4.080   7.891 -0.9139 -1.1535 -0.1443
 6617TIP3   OH244045   6.792   0.526  10.297  0.1438 -0.0843  0.3386
 6617TIP3    H144046   6.786   0.544  10.203  0.1766  0.0168  0.3563
 6617TIP3    H244047   6.783   0.611  10.339  1.2101  0.0276  0.3862
 6618TIP3   OH244048   1.818   5.972   9.343  0.3187  0.0166  0.0563
 6618TIP3    H144049   1.786   5.995   9.430  1.1011  1.6074 -0.0445
 6618TIP3    H244050   1.743   5.987   9.285  0.8435  2.6889 -0.0348
 6619TIP3   OH244051   0.700   3.711   9.049 -0.7262 -0.0074 -0.0721
 6619TIP3    H144052   0.760   3.711   9.123  3.2558  0.9587 -3.0132
 6619TIP3    H244053   0.676   3.619   9.037  2.6570 -0.9276 -0.5335
 6620TIP3   OH244054   0.796   7.524   8.974 -0.1361  0.5036 -0.0597
 6620TIP3    H144055   0.711   7.484   8.954  0.8681 -1.4985 -0.5288
 6620TIP3    H244056   0.815   7.578   8.897  0.2478 -1.2299 -1.2322
 6621TIP3   OH244057   8.258   4.432   7.904  0.3549  0.1927  0.1593
 6621TIP3    H144058   8.285   4.367   7.969 -1.0205 -0.6934 -0.1352
 6621TIP3    H244059   8.204   4.494   7.954  1.7514  1.2250  0.4637
 6622TIP3   OH244060   5.142   3.642   7.732  0.0699  0.1605 -0.0266
 6622TIP3    H144061   5.155   3.596   7.649 -0.0480  0.9116 -0.4641
 6622TIP3    H244062   5.089   3.718   7.709 -1.1682 -0.3703  0.9686
 6623TIP3   OH244063   0.858   5.076   8.945  0.4623  0.4386  0.3146
 6623TIP3    H144064   0.945   5.102   8.975  1.4365 -1.2323 -0.8837
 6623TIP3    H244065   0.830   5.010   9.007  0.5275  0.2065  0.1004
 6624TIP3   OH244066   6.762   2.172   8.910 -0.4300  1.1716  0.0665
 6624TIP3    H144067   6.843   2.217   8.885 -0.1006  0.2733 -0.5438
 6624TIP3    H244068   6.792   2.097   8.962 -0.7046 -0.1428 -1.5563
 6625TIP3   OH244069   7.357   1.207   8.432  0.3433  0.1346  0.1396
 6625TIP3    H144070   7.401   1.157   8.363 -1.9920 -2.3001  0.2849
 6625TIP3    H244071   7.322   1.284   8.387  1.0979 -0.0584 -0.8174
 6626TIP3   OH244072   4.908   1.422   8.227 -0.3063 -0.1360 -0.2164
 6626TIP3    H144073   4.847   1.492   8.250 -0.7195 -1.0081  1.5047
 6626TIP3    H244074   4.924   1.376   8.309  1.5077 -0.8699 -0.9291
 6627TIP3   OH244075   8.174   2.702   8.697 -0.9784 -0.2369 -0.4394
 6627TIP3    H144076   8.132   2.783   8.726 -2.1502 -0.8191 -0.4579
 6627TIP3    H244077   8.251   2.731   8.648 -1.2359  0.8560 -0.2149
 6628TIP3   OH244078   3.312   4.005   7.941 -0.1245 -0.3960 -0.5756
 6628TIP3    H144079   3.226   3.981   7.906 -0.6501  0.6334 -0.0238
 6628TIP3    H244080   3.314   4.101   7.937  0.8629 -0.3935 -0.2661
 6629TIP3   OH244081   0.357   7.127   8.210 -0.2503  0.7223  0.1807
 6629TIP3    H144082   0.330   7.208   8.167  1.4582 -0.2484 -3.0319
 6629TIP3    H244083   0.279   7.072   8.209 -0.5612  1.1642 -0.5571
 6630TIP3   OH244084   8.166   0.406   7.827 -0.2867 -0.2067 -0.4304
 6630TIP3    H144085   8.237   0.343   7.824  0.7521  0.5325  3.3323
 6630TIP3    H244086   8.095   0.360   7.872 -0.3878  0.5497  0.2067
 6631TIP3   OH244087   6.837   5.127   8.625 -0.0173 -0.1217 -0.1069
 6631TIP3    H144088   6.872   5.039   8.637  1.4934  0.1980 -1.6392
 6631TIP3    H244089   6.914   5.184   8.630 -0.3684  0.7190 -2.6357
 6632TIP3   OH244090   0.333   4.574   8.526  0.1362  0.0894 -0.2200
 6632TIP3    H144091   0.374   4.660   8.516  2.8096 -1.0091  0.2819
 6632TIP3    H244092   0.404   4.512   8.507 -0.8128 -1.9958  2.5136
 6633TIP3   OH244093   6.208   8.216   7.634  0.1516 -0.0638  0.0941
 6633TIP3    H144094   6.271   8.163   7.586 -0.0068  0.4026 -0.6509
 6633TIP3    H244095   6.261   8.283   7.677  0.3098 -0.5753  0.7000
 6634TIP3   OH244096   8.158   3.155   9.197 -0.2965 -0.0287  0.3287
 6634TIP3    H144097   8.153   3.247   9.224  0.3261  0.2895 -0.5927
 6634TIP3    H244098   8.249   3.131   9.212 -0.3762 -0.3910  0.2312
 6635TIP3   OH244099   3.704   6.671   9.555  0.2881  0.5734 -0.3903
 6635TIP3    H144100   3.630   6.670   9.615  0.3508  0.2333 -0.3167
 6635TIP3    H244101   3.739   6.760   9.560  2.4154 -0.2669  2.6867
 6636TIP3   OH244102   5.056   2.655   8.896  0.5534 -0.3477 -0.5668
 6636TIP3    H144103   5.038   2.719   8.965 -2.1921  0.4771 -1.9280
 6636TIP3    H244104   5.114   2.702   8.835  2.4660 -0.8715  0.7269
 6637TIP3   OH244105   6.736   6.827   9.024  0.0784 -0.1710 -0.2447
 6637TIP3    H144106   6.739   6.796   8.933  0.9843  0.9079 -0.6146
 6637TIP3    H244107   6.771   6.754   9.075  1.0733 -0.2216 -0.9568
 6638TIP3   OH244108   8.149   4.061   8.249  0.1233  0.4442 -0.6432
 6638TIP3    H144109   8.099   4.004   8.307  0.5107 -0.4620 -1.1737
 6638TIP3    H244110   8.127   4.150   8.277  1.1433  0.0532  1.6424
 6639TIP3   OH244111   4.589   3.113   7.745 -0.0639 -0.0601 -0.2377
 6639TIP3    H144112   4.672   3.144   7.781  0.7520 -0.3656 -1.7508
 6639TIP3    H244113   4.575   3.168   7.668 -0.5172 -0.9731 -0.8236
 6640TIP3   OH244114   3.841   8.429   7.849 -0.3535  0.2777 -0.1667
 6640TIP3    H144115   3.931   8.437   7.816 -0.1441 -0.9241  0.0841
 6640TIP3    H244116   3.844   8.354   7.908 -1.2419  1.0109  0.8523
 6641TIP3   OH244117   2.027   7.150   9.211 -0.1967  0.9863 -0.5001
 6641TIP3    H144118   2.033   7.201   9.293  0.1734  1.0920 -0.5912
 6641TIP3    H244119   2.086   7.077   9.224  1.0341  1.8146 -1.2535
 6642TIP3   OH244120   3.632   1.811   8.595 -0.0879 -0.5206  0.0072
 6642TIP3    H144121   3.712   1.759   8.606 -0.3755 -0.7579  1.2527
 6642TIP3    H244122   3.572   1.773   8.659  0.1606  2.2772  2.0681
 6643TIP3   OH244123   6.148   7.997   8.877  0.4317  0.1325  0.2194
 6643TIP3    H144124   6.097   8.047   8.941 -0.5950  0.2649 -0.6793
 6643TIP3    H244125   6.195   8.064   8.827  1.7828 -0.0037  1.2551
 6644TIP3   OH244126   3.013   3.040   7.868  0.0565 -0.0957 -0.4513
 6644TIP3    H144127   2.968   3.006   7.791 -0.8076  0.8318 -0.3779
 6644TIP3    H244128   2.945   3.045   7.935  0.7362 -0.6230  0.2872
 6645TIP3   OH244129   2.685   1.912   8.490 -0.0514 -0.1387  0.1805
 6645TIP3    H144130   2.733   1.931   8.409 -0.5258 -1.6692 -0.5149
 6645TIP3    H244131   2.668   1.997   8.529 -2.2054  0.9422 -2.7436
 6646TIP3   OH244132   6.809   6.021   8.844 -0.3271 -0.3188 -0.1584
 6646TIP3    H144133   6.890   6.062   8.811  0.5205 -0.7508  1.3310
 6646TIP3    H244134   6.795   5.947   8.785  0.3324 -0.2172 -0.4632
 6647TIP3   OH244135   4.282   7.692   9.249  0.3848  0.8452 -0.1968
 6647TIP3    H144136   4.263   7.745   9.172 -0.8295  1.1249  0.2662
 6647TIP3    H244137   4.256   7.603   9.225 -0.5691  1.0376  0.0697
 6648TIP3   OH244138   5.078   1.002   8.419 -0.0809 -0.0956  0.0299
 6648TIP3    H144139   5.139   0.977   8.488 -0.1733 -0.6270 -0.0768
 6648TIP3    H244140   5.118   0.968   8.338 -0.8027 -0.9798  0.0276
 6649TIP3   OH244141   7.849   4.589   9.583 -0.3237 -0.1327  0.6626
 6649TIP3    H144142   7.813   4.520   9.638  0.2669  0.9040  2.4060
 6649TIP3    H244143   7.943   4.576   9.586 -0.2180  0.6553  0.8698
 6650TIP3   OH244144   1.875   8.021   9.646 -0.3965 -0.1011 -0.3010
 6650TIP3    H144145   1.899   7.961   9.576 -0.8917 -0.0772 -0.4979
 6650TIP3    H244146   1.841   8.099   9.600  0.1166  0.2751 -0.0493
 6651TIP3   OH244147   8.051   0.512   9.951 -0.3558  0.2078  0.2329
 6651TIP3    H144148   7.989   0.584   9.940  0.1637  0.9227  1.7458
 6651TIP3    H244149   8.105   0.537  10.026  0.4024 -1.3652  0.2670
 6652TIP3   OH244150   5.385   4.156   7.599 -0.2163  0.3108  0.6284
 6652TIP3    H144151   5.379   4.128   7.508  0.4262  0.1158  0.6425
 6652TIP3    H244152   5.312   4.217   7.610  0.0257  0.7582 -0.1685
 6653TIP3   OH244153   1.416   0.315   9.616  0.5849  0.1080  0.1394
 6653TIP3    H144154   1.414   0.386   9.680  1.1485  0.7632 -0.5524
 6653TIP3    H244155   1.500   0.272   9.631  1.8819  1.7890 -1.7235
 6654TIP3   OH244156   2.668   5.643   8.390  0.6447 -0.4152 -0.3871
 6654TIP3    H144157   2.624   5.704   8.449  0.6825 -1.9135  1.2922
 6654TIP3    H244158   2.636   5.665   8.303  1.1437  2.3777  0.0529
 6655TIP3   OH244159   5.983   5.573   9.830  0.4693  0.2751  0.1289
 6655TIP3    H144160   5.974   5.549   9.922  2.6732 -3.4742 -0.4223
 6655TIP3    H244161   6.062   5.627   9.826  1.2159 -0.7549  0.3703
 6656TIP3   OH244162   4.078   3.209   8.514  0.0689 -0.6028  0.8051
 6656TIP3    H144163   4.134   3.132   8.520 -2.1584 -2.4809 -0.5416
 6656TIP3    H244164   4.044   3.207   8.424 -1.0621  1.2433  1.1263
 6657TIP3   OH244165   4.472   2.833   8.621  0.3177 -0.5757 -0.5961
 6657TIP3    H144166   4.437   2.750   8.588 -0.1594 -1.4850  1.9698
 6657TIP3    H244167   4.554   2.845   8.572 -1.4129 -0.5134 -3.7712
 6658TIP3   OH244168   1.386   0.559   8.507 -0.2099 -0.1322 -0.8004
 6658TIP3    H144169   1.398   0.547   8.413  0.2956 -0.9180 -0.6445
 6658TIP3    H244170   1.420   0.647   8.524 -0.1113 -0.0670 -1.3173
 6659TIP3   OH244171   1.044   1.387   9.369  0.6588 -0.0900 -0.7971
 6659TIP3    H144172   0.985   1.391   9.293  0.1645  1.2738 -0.3758
 6659TIP3    H244173   1.026   1.302   9.409 -0.4074 -0.0627 -1.1850
 6660TIP3   OH244174   4.388   5.736   9.698 -1.1099 -0.3061 -0.2944
 6660TIP3    H144175   4.472   5.690   9.706 -1.1811 -0.4362 -0.2910
 6660TIP3    H244176   4.369   5.765   9.787 -1.4626 -0.9750 -0.1472
 6661TIP3   OH244177   5.382   0.893  10.110  0.2190 -0.1467  0.8666
 6661TIP3    H144178   5.477   0.884  10.103  0.1662  0.0511 -0.2230
 6661TIP3    H244179   5.357   0.831  10.178  0.9939 -1.0931  0.3098
 6662TIP3   OH244180   2.929   6.295   8.379  0.8149  0.4434  0.8219
 6662TIP3    H144181   2.945   6.210   8.338 -1.2793  0.7587 -0.8476
 6662TIP3    H244182   2.956   6.359   8.313  0.4091  1.0297  1.2200
 6663TIP3   OH244183   1.562   8.305   9.464 -0.3308 -0.1618  1.0447
 6663TIP3    H144184   1.565   8.301   9.368 -0.4334  0.6469  1.0031
 6663TIP3    H244185   1.545   8.215   9.491  0.9905 -0.6567  0.3545
 6664TIP3   OH244186   2.416   4.019   7.489 -0.3850  0.1258 -0.4379
 6664TIP3    H144187   2.478   4.087   7.516 -1.5732  0.5349  1.4797
 6664TIP3    H244188   2.471   3.950   7.451  1.1374  0.9566  0.1638
 6665TIP3   OH244189   0.518   0.350   8.540 -0.3824 -0.1729 -0.2273
 6665TIP3    H144190   0.526   0.422   8.477 -0.9551 -0.1768 -0.3121
 6665TIP3    H244191   0.533   0.392   8.625  1.3551 -0.3456 -0.4157
 6666TIP3   OH244192   5.354   0.275   7.883  0.7904 -0.1975 -0.7594
 6666TIP3    H144193   5.380   0.348   7.827  0.9542  0.1084 -0.2842
 6666TIP3    H244194   5.265   0.297   7.911  1.9625  1.4766  2.0362
 6667TIP3   OH244195   6.908   1.582   8.354 -0.0642 -0.2447  0.0378
 6667TIP3    H144196   6.859   1.500   8.349  0.5439 -0.6267  0.2369
 6667TIP3    H244197   6.951   1.579   8.440 -0.7497  0.6922  0.4292
 6668TIP3   OH244198   4.264   2.884   7.777  0.7137 -0.5719  0.2465
 6668TIP3    H144199   4.186   2.931   7.747  0.9631 -0.3356 -0.0398
 6668TIP3    H244200   4.299   2.937   7.848  0.9454 -0.3608 -0.0189
 6669TIP3   OH244201   7.859   3.113   7.999  0.0449  0.3133 -0.9422
 6669TIP3    H144202   7.954   3.114   8.007 -0.0217  2.5152  0.4498
 6669TIP3    H244203   7.830   3.195   8.040 -2.5554 -0.9106 -0.0795
 6670TIP3   OH244204   7.431   8.196  10.417  0.4198 -0.2273  0.0543
 6670TIP3    H144205   7.415   8.227  10.506 -0.8429  0.5539 -0.4128
 6670TIP3    H244206   7.506   8.247  10.386  0.1864  0.2773  0.3096
 6671TIP3   OH244207   5.631   5.446   9.296  0.2078 -0.4559 -0.4842
 6671TIP3    H144208   5.607   5.394   9.373 -0.2560 -1.5175 -1.3180
 6671TIP3    H244209   5.669   5.383   9.235  2.0735  0.6310 -0.5401
 6672TIP3   OH244210   1.413   3.259   9.364  0.1860 -0.0006 -0.2172
 6672TIP3    H144211   1.367   3.179   9.390  1.2973 -0.5163  0.2293
 6672TIP3    H244212   1.410   3.315   9.442  1.7425 -0.7190  0.3933
 6673TIP3   OH244213   6.884   7.844   8.158  0.3381 -1.0733  0.2299
 6673TIP3    H144214   6.888   7.862   8.251  0.4404 -0.7677  0.1665
 6673TIP3    H244215   6.802   7.885   8.129  0.3101 -1.1614  0.1846
 6674TIP3   OH244216   6.938   6.737   9.406 -0.4897  0.0552  0.5505
 6674TIP3    H144217   6.998   6.769   9.339 -0.6249 -2.1073 -0.7335
 6674TIP3    H244218   6.851   6.764   9.375 -0.4285  0.4523  0.7225
 6675TIP3   OH244219   7.403   8.406   8.063  0.6026 -0.1185 -0.1518
 6675TIP3    H144220   7.366   8.386   7.977  0.9849  1.4624 -0.7221
 6675TIP3    H244221   7.375   8.333   8.119  2.0218 -2.2838 -2.0420
 6676TIP3   OH244222   4.770   0.062   8.565  0.4273 -0.3731  0.1641
 6676TIP3    H144223   4.808   0.144   8.533 -1.0122  0.1960 -0.1990
 6676TIP3    H244224   4.722   0.027   8.489 -0.3694 -0.6629  0.7897
 6677TIP3   OH244225   2.132   8.438   7.978  0.1401  0.3988  0.0292
 6677TIP3    H144226   2.155   8.367   8.038  2.8751  1.5975  0.5569
 6677TIP3    H244227   2.204   8.440   7.916 -0.9853  1.3499 -1.2961
 6678TIP3   OH244228   4.945   4.302  10.020  0.3499 -0.2402  0.1278
 6678TIP3    H144229   4.879   4.270   9.958  0.8189  0.8049 -0.9603
 6678TIP3    H244230   4.965   4.226  10.074 -1.4842 -0.6686  0.2702
 6679TIP3   OH244231   6.558   0.669   7.970 -0.1593 -0.3400 -0.2659
 6679TIP3    H144232   6.627   0.722   8.011  0.1977  0.0713 -1.3673
 6679TIP3    H244233   6.488   0.732   7.952  0.2788 -0.2071 -1.6088
 6680TIP3   OH244234   5.610   1.377   8.862  0.1567  0.0860 -0.4380
 6680TIP3    H144235   5.601   1.463   8.823 -0.4995  0.5056  0.5993
 6680TIP3    H244236   5.704   1.366   8.876  0.1910  0.8743 -0.0486
 6681TIP3   OH244237   6.779   3.126   8.814  1.3566 -0.1161 -0.6366
 6681TIP3    H144238   6.793   3.209   8.859  0.2404 -0.3012  0.0902
 6681TIP3    H244239   6.793   3.146   8.721  0.9386  0.9147 -0.4894
 6682TIP3   OH244240   0.797   0.552   8.128 -0.0737 -0.2929 -0.0228
 6682TIP3    H144241   0.777   0.646   8.131 -0.1757 -0.3180  0.1233
 6682TIP3    H244242   0.760   0.522   8.045 -1.6558 -0.5557  0.7408
 6683TIP3   OH244243   7.336   7.207   8.681 -0.3381 -0.1327  0.1995
 6683TIP3    H144244   7.264   7.161   8.723  1.4284 -1.2356  2.2654
 6683TIP3    H244245   7.350   7.285   8.735 -0.1456  0.2073 -0.3334
 6684TIP3   OH244246   8.099   0.370   8.406  0.0084 -0.3089 -0.0571
 6684TIP3    H144247   8.127   0.375   8.498  2.0181  1.0522 -0.6783
 6684TIP3    H244248   8.004   0.381   8.410  0.1939  1.2051  1.7889
 6685TIP3   OH244249   2.128   7.399   8.964 -0.3309  0.5705  0.1326
 6685TIP3    H144250   2.119   7.476   9.020  1.7397  0.5969  0.5213
 6685TIP3    H244251   2.155   7.434   8.879 -0.0549  0.3175  0.1148
 6686TIP3   OH244252   6.159   7.397   9.619 -0.0596 -0.0727 -0.4242
 6686TIP3    H144253   6.131   7.427   9.532 -2.3818  2.2071  0.9508
 6686TIP3    H244254   6.106   7.319   9.635 -1.5560  0.9501 -0.1356
 6687TIP3   OH244255   4.280   3.732   8.854 -0.0390  0.9237 -0.3694
 6687TIP3    H144256   4.300   3.783   8.933  1.9017 -2.3997  1.5600
 6687TIP3    H244257   4.362   3.729   8.806 -0.1381 -0.2026 -0.4953
 6688TIP3   OH244258   2.520   2.973   8.745  0.1715 -0.2034 -0.1902
 6688TIP3    H144259   2.542   3.060   8.712  2.5592 -1.2502 -1.6772
 6688TIP3    H244260   2.602   2.941   8.784 -0.5253 -1.9289 -0.0359
 6689TIP3   OH244261   1.205   1.276   7.732 -0.4035 -0.5072  0.3821
 6689TIP3    H144262   1.191   1.313   7.820  0.7334 -0.7357  0.6759
 6689TIP3    H244263   1.129   1.220   7.717 -1.5767  0.9854  0.4219
 6690TIP3   OH244264   1.412   5.640   7.753 -0.0445  0.1949  0.0838
 6690TIP3    H144265   1.324   5.673   7.736  0.9025  1.4931 -3.0460
 6690TIP3    H244266   1.402   5.545   7.755 -1.4239  0.2832 -1.0921
 6691TIP3   OH244267   1.745   4.517   7.027 -0.3812 -0.2662  1.2335
 6691TIP3    H144268   1.774   4.590   7.082  0.5173 -0.0122  0.4453
 6691TIP3    H244269   1.732   4.444   7.089  1.7811 -0.3476  1.6920
 6692TIP3   OH244270   8.258   3.252   8.256 -0.2018 -0.8872 -0.1230
 6692TIP3    H144271   8.331   3.311   8.238 -1.5858  0.4367 -1.6937
 6692TIP3    H244272   8.181   3.309   8.264 -1.1233 -2.2373  1.4576
 6693TIP3   OH244273   1.728   1.248  10.083  0.3922  0.0013 -0.0384
 6693TIP3    H144274   1.709   1.236   9.990  0.3479 -3.5438  0.2716
 6693TIP3    H244275   1.681   1.177  10.126  3.1036 -0.5619  2.3042
 6694TIP3   OH244276   6.427   6.603  10.676 -0.1228  0.3217  0.1815
 6694TIP3    H144277   6.500   6.664  10.664 -0.0591 -0.1116 -1.9778
 6694TIP3    H244278   6.456   6.522  10.634 -1.7951  0.1240 -0.6741
 6695TIP3   OH244279   0.121   0.500   8.870 -0.0447 -0.0614 -0.0931
 6695TIP3    H144280   0.162   0.414   8.882  0.7324 -0.0360 -2.1025
 6695TIP3    H244281   0.027   0.483   8.876  0.1196 -0.9639  0.0753
 6696TIP3   OH244282   7.648   4.648   7.952 -0.5595 -0.3113 -0.6796
 6696TIP3    H144283   7.582   4.656   7.884  0.5778 -0.2332 -1.7991
 6696TIP3    H244284   7.707   4.722   7.937 -0.0819 -0.5099  0.1607
 6697TIP3   OH244285   7.552   8.131   9.135  0.4957  0.3809  0.0193
 6697TIP3    H144286   7.624   8.090   9.182 -0.1296  0.1104  0.7582
 6697TIP3    H244287   7.574   8.225   9.134  1.3095  0.2018 -0.5898
 6698TIP3   OH244288   0.646   5.904   9.055 -0.1061  0.1439  0.4058
 6698TIP3    H144289   0.586   5.913   9.128 -1.2735  1.0650 -0.6278
 6698TIP3    H244290   0.597   5.853   8.990  0.8954 -0.6283  0.2259
 6699TIP3   OH244291   3.216   0.928   9.047  0.7397  0.2450 -0.0606
 6699TIP3    H144292   3.306   0.903   9.068  1.9389  1.8205 -2.7661
 6699TIP3    H244293   3.202   0.894   8.958 -1.0295  0.8173 -0.0403
 6700TIP3   OH244294   2.688   5.743   7.967  0.0078  0.2581 -0.6252
 6700TIP3    H144295   2.762   5.761   7.909  0.2346  1.4248 -0.0148
 6700TIP3    H244296   2.651   5.830   7.986 -0.8897 -0.2209 -0.1147
 6701TIP3   OH244297   6.649   3.030   7.385  0.0739  0.3857 -0.1840
 6701TIP3    H144298   6.624   3.122   7.386 -0.7218  0.1806 -0.2322
 6701TIP3    H244299   6.743   3.030   7.370 -0.1703  1.1475 -1.8717
 6702TIP3   OH244300   7.891   6.498   8.302 -0.0113 -0.4747 -0.0449
 6702TIP3    H144301   7.927   6.586   8.305 -2.5158  0.6097  0.6050
 6702TIP3    H244302   7.887   6.470   8.394  0.6011 -1.2307 -0.2310
 6703TIP3   OH244303   2.762   4.637   9.297  0.1774  0.5494 -0.6846
 6703TIP3    H144304   2.683   4.586   9.277  0.8849  0.0859 -2.5152
 6703TIP3    H244305   2.779   4.686   9.217  0.6272  2.1951  0.3895
 6704TIP3   OH244306   2.692   1.523   8.024 -0.0322  0.2703  0.7877
 6704TIP3    H144307   2.635   1.567   7.961  2.5524  1.4899 -0.8538
 6704TIP3    H244308   2.697   1.584   8.098  0.2553  0.8296  0.3161
 6705TIP3   OH244309   6.545   7.601  10.080 -0.1802  0.7246 -0.0453
 6705TIP3    H144310   6.526   7.511  10.055 -1.4534  1.0207 -0.2276
 6705TIP3    H244311   6.640   7.610  10.071 -0.1876 -0.2183 -1.2851
 6706TIP3   OH244312   1.397   8.020   8.007 -0.2518 -0.0469  0.0624
 6706TIP3    H144313   1.364   8.061   7.927 -0.2150 -0.1097  0.0142
 6706TIP3    H244314   1.407   7.928   7.984 -0.9375 -0.1981  0.3593
 6707TIP3   OH244315   5.085   0.772   9.601 -0.6952 -0.3735  0.0094
 6707TIP3    H144316   5.005   0.815   9.633 -0.8564 -1.1007  0.6157
 6707TIP3    H244317   5.154   0.802   9.661 -0.7521 -0.7226  0.2510
 6708TIP3   OH244318   4.411   1.176   8.426  0.1883 -0.4832 -0.7588
 6708TIP3    H144319   4.332   1.151   8.473 -0.0125 -0.0204 -0.8498
 6708TIP3    H244320   4.380   1.220   8.347  0.5352 -0.1596 -0.7203
 6709TIP3   OH244321   6.731   5.302   9.973 -0.2655  0.0622 -0.6542
 6709TIP3    H144322   6.668   5.289   9.902 -0.5765 -0.3004 -0.3216
 6709TIP3    H244323   6.685   5.358  10.036 -0.7250 -1.1393  0.1386
 6710TIP3   OH244324   2.073   7.955   8.222  0.2226 -0.2251 -0.1559
 6710TIP3    H144325   2.128   7.937   8.146  1.2528 -1.0768  0.7641
 6710TIP3    H244326   1.985   7.928   8.195  0.5800 -0.5331 -1.0321
 6711TIP3   OH244327   7.239   3.952   9.298 -0.4071  0.1120  0.1217
 6711TIP3    H144328   7.232   3.982   9.208  0.6248 -1.1775 -0.4209
 6711TIP3    H244329   7.305   4.010   9.337  1.8174 -1.5131 -1.0068
 6712TIP3   OH244330   8.328   0.043   8.188  0.1612 -0.0472  0.0190
 6712TIP3    H144331   8.353   0.023   8.278 -0.1293  0.6358  0.2586
 6712TIP3    H244332   8.380   0.120   8.166  0.9866 -0.7975 -0.7535
 6713TIP3   OH244333   5.804   6.773   7.947  0.0501 -0.5730 -0.2875
 6713TIP3    H144334   5.761   6.700   7.990 -0.3572 -0.3774 -0.3551
 6713TIP3    H244335   5.813   6.746   7.856  0.4211 -0.7681 -0.1952
 6714TIP3   OH244336   5.066   6.952   8.724 -0.1975 -0.1218  0.2154
 6714TIP3    H144337   5.073   7.039   8.685 -0.5883  0.0913  0.6084
 6714TIP3    H244338   5.021   6.900   8.658  1.2114 -0.3858 -0.5717
 6715TIP3   OH244339   6.718   8.355   9.140  0.3350  0.5133 -0.5176
 6715TIP3    H144340   6.676   8.324   9.220 -1.0717  0.4940 -1.2410
 6715TIP3    H244341   6.758   8.276   9.102 -1.1230  0.0239 -1.0885
 6716TIP3   OH244342   6.146   2.091   9.456 -0.2146  0.1544  0.0638
 6716TIP3    H144343   6.170   2.139   9.378  0.3658 -2.5352 -1.5304
 6716TIP3    H244344   6.072   2.036   9.429 -0.4265 -0.3727  1.5894
 6717TIP3   OH244345   7.977   2.969   7.759  0.0072  0.7291  0.6453
 6717TIP3    H144346   7.922   3.036   7.799  0.3572  0.6895  1.2095
 6717TIP3    H244347   7.982   2.900   7.825 -1.1389 -0.2992 -0.3032
 6718TIP3   OH244348   8.279   7.278   7.994 -0.1068 -0.1016 -0.1995
 6718TIP3    H144349   8.238   7.311   8.074 -0.8891  1.1528 -1.0773
 6718TIP3    H244350   8.270   7.183   7.999 -1.8914  0.0645  0.2966
 6719TIP3   OH244351   1.706   4.282   7.574 -0.0130 -0.7075 -0.1628
 6719TIP3    H144352   1.629   4.289   7.518 -1.3455 -1.3772  1.4914
 6719TIP3    H244353   1.780   4.279   7.513 -1.1940  0.8232 -1.7751
 6720TIP3   OH244354   4.995   3.439   7.566  0.6868  0.3968 -0.6825
 6720TIP3    H144355   4.914   3.396   7.595  0.3244  1.0323 -0.7377
 6720TIP3    H244356   4.970   3.487   7.487  0.7348  1.8690  0.1685
 6721TIP3   OH244357   5.394   8.203   8.991  0.7096 -0.0529 -0.3713
 6721TIP3    H144358   5.321   8.262   9.008  0.4795  0.1412 -1.8606
 6721TIP3    H244359   5.468   8.262   8.975 -0.0287  0.0751 -4.2763
 6722TIP3   OH244360   4.656   5.829   9.323  0.0643 -0.5385 -0.1717
 6722TIP3    H144361   4.623   5.893   9.385 -1.9136 -1.0660 -0.6256
 6722TIP3    H244362   4.667   5.748   9.373  2.2767 -0.0008  0.3322
 6723TIP3   OH244363   2.591   6.282   7.796 -0.2062  0.4330  0.6345
 6723TIP3    H144364   2.642   6.336   7.856 -0.8568  0.4237  1.2090
 6723TIP3    H244365   2.520   6.339   7.766 -0.1726  0.2842  0.2713
 6724TIP3   OH244366   1.354   5.346   7.790  0.4782  0.9048  0.5642
 6724TIP3    H144367   1.259   5.339   7.783  0.5337  0.7286 -0.0523
 6724TIP3    H244368   1.386   5.260   7.763  0.8729  1.3879 -0.5750
 6725TIP3   OH244369   2.289   3.055   8.545  0.0127  0.3638  0.0805
 6725TIP3    H144370   2.365   3.095   8.587 -0.2976 -0.4137  1.4293
 6725TIP3    H244371   2.320   3.029   8.458  1.7888 -1.3924  1.1583
 6726TIP3   OH244372   6.931   4.252   8.868  0.9170  0.0662  0.4476
 6726TIP3    H144373   6.946   4.321   8.804  4.1954  0.0726  1.0841
 6726TIP3    H244374   6.978   4.280   8.946 -0.0892 -1.5684  1.7175
 6727TIP3   OH244375   2.043   5.324   9.103 -0.3126 -0.0415 -0.0732
 6727TIP3    H144376   1.977   5.385   9.069 -0.4820 -0.5656 -0.7175
 6727TIP3    H244377   2.126   5.363   9.078 -0.4130  0.0523 -0.2623
 6728TIP3   OH244378   6.582   1.419   9.140 -0.2800  0.6430  0.1380
 6728TIP3    H144379   6.518   1.470   9.091 -1.4970  0.0573  1.0573
 6728TIP3    H244380   6.597   1.470   9.220 -3.3338 -1.3950  2.2270
 6729TIP3   OH244381   3.771   5.466   9.167  0.6191 -0.0498 -0.0571
 6729TIP3    H144382   3.793   5.481   9.259  1.0939  0.3952 -0.2374
 6729TIP3    H244383   3.815   5.384   9.145  1.9088  0.6853 -0.3352
 6730TIP3   OH244384   8.038   6.233   9.985 -0.6712 -0.2840 -0.3049
 6730TIP3    H144385   8.083   6.316   9.972  0.3474 -0.6478  0.7135
 6730TIP3    H244386   8.050   6.214  10.078 -3.2681 -0.2194  0.1225
 6731TIP3   OH244387   3.884   0.463   9.621 -0.0537 -0.3589 -0.2909
 6731TIP3    H144388   3.907   0.417   9.540 -0.2910 -0.2310 -0.4309
 6731TIP3    H244389   3.946   0.429   9.686 -0.7437 -1.4919 -0.1954
 6732TIP3   OH244390   6.471   0.101   9.348 -0.3939 -0.6318  0.3171
 6732TIP3    H144391   6.541   0.166   9.349  0.1423 -1.1942 -0.5941
 6732TIP3    H244392   6.505   0.027   9.399 -0.8432 -0.3911  0.9915
 6733TIP3   OH244393   4.011   4.947   8.991  0.5246 -0.2564 -0.1908
 6733TIP3    H144394   3.987   4.865   8.948 -2.1449 -0.5126  1.5837
 6733TIP3    H244395   4.034   4.921   9.080  0.9829  0.8145  0.0180
 6734TIP3   OH244396   0.871   8.041   9.237 -0.4735 -0.4217  0.0961
 6734TIP3    H144397   0.800   8.065   9.178  1.7532  0.5367 -2.4287
 6734TIP3    H244398   0.882   8.118   9.294 -0.6007 -0.0050 -0.4282
 6735TIP3   OH244399   2.251   0.876   7.730  0.0579 -0.1378 -0.1096
 6735TIP3    H144400   2.183   0.938   7.704  0.2364  1.1601  2.2341
 6735TIP3    H244401   2.205   0.811   7.784  0.6142  0.8072  1.5781
 6736TIP3   OH244402   4.590   6.439   9.285 -0.2220 -0.1072 -0.2248
 6736TIP3    H144403   4.669   6.446   9.339  0.0107 -1.5436 -0.3595
 6736TIP3    H244404   4.623   6.420   9.197 -0.5958  2.2425 -0.9457
 6737TIP3   OH244405   0.102   7.159   8.902  0.4021 -0.1883  0.2106
 6737TIP3    H144406   0.162   7.228   8.930 -1.1998  0.3750  2.6361
 6737TIP3    H244407   0.148   7.077   8.923  0.3292  0.2284  2.2135
 6738TIP3   OH244408   4.900   0.595   9.745  0.0057  0.6334  0.5581
 6738TIP3    H144409   4.996   0.592   9.736 -0.1248  1.2036 -1.7787
 6738TIP3    H244410   4.873   0.503   9.738  0.2944  0.6137 -0.4207
 6739TIP3   OH244411   2.916   4.841   7.537  0.4077  0.1943  0.6349
 6739TIP3    H144412   2.822   4.841   7.552  0.5676  0.9357  1.7198
 6739TIP3    H244413   2.935   4.752   7.507 -0.7332  0.2443 -0.3087
 6740TIP3   OH244414   3.120   6.073   9.757 -0.2358  0.1915 -0.1514
 6740TIP3    H144415   3.049   6.009   9.769 -0.2619  0.1117 -0.6976
 6740TIP3    H244416   3.157   6.084   9.844 -1.1323  0.4854  0.2047
 6741TIP3   OH244417   7.007   7.981   9.156 -0.6476 -0.3048 -0.3199
 6741TIP3    H144418   7.072   8.037   9.114 -1.1080 -1.4614 -2.7763
 6741TIP3    H244419   6.925   8.005   9.115 -1.0474 -1.8760 -0.4960
 6742TIP3   OH244420   6.334   3.872   9.725 -0.0735 -0.8909 -0.0250
 6742TIP3    H144421   6.370   3.843   9.641 -1.2809 -0.7790 -0.5979
 6742TIP3    H244422   6.411   3.897   9.776  0.6139  0.6624 -1.6956
 6743TIP3   OH244423   4.993   8.281  10.221  0.1888 -0.0367 -0.0542
 6743TIP3    H144424   5.028   8.367  10.244 -1.1711  1.4988 -3.1294
 6743TIP3    H244425   5.058   8.218  10.253  2.1471  2.2278  0.6517
 6744TIP3   OH244426   5.389   6.627   9.169  0.8751 -0.4055 -0.0820
 6744TIP3    H144427   5.426   6.705   9.128  0.5753  0.6119  1.4969
 6744TIP3    H244428   5.343   6.660   9.246  0.8799 -2.1594  0.7205
 6745TIP3   OH244429   4.549   0.934   8.184  0.6635 -0.4059 -0.0100
 6745TIP3    H144430   4.593   1.004   8.232  0.5430 -0.2417 -0.1369
 6745TIP3    H244431   4.591   0.854   8.214  0.9958 -0.2561 -0.0681
 6746TIP3   OH244432   6.083   6.237   9.705  0.8737 -0.3703 -0.2910
 6746TIP3    H144433   6.042   6.297   9.642  1.1937 -1.0589 -1.1907
 6746TIP3    H244434   6.023   6.234   9.779  0.2259  0.0588 -0.7917
 6747TIP3   OH244435   2.715   0.326   8.698  0.1026  0.1860  0.4130
 6747TIP3    H144436   2.648   0.351   8.635 -0.4484  0.0535  0.9435
 6747TIP3    H244437   2.714   0.230   8.699 -0.1577  0.1875  0.8927
 6748TIP3   OH244438   4.570   0.496   9.203  0.0548  0.2662 -0.1629
 6748TIP3    H144439   4.517   0.496   9.283 -1.2975 -0.1092 -1.0271
 6748TIP3    H244440   4.510   0.527   9.135  0.3150 -2.0653 -1.5644
 6749TIP3   OH244441   5.876   2.339   8.350 -0.8908 -0.0952 -0.1116
 6749TIP3    H144442   5.894   2.382   8.266  0.1716  0.0703  0.1776
 6749TIP3    H244443   5.885   2.409   8.415 -0.4838 -0.4635  0.2384
 6750TIP3   OH244444   6.925   1.427   9.406  0.3355 -0.1809 -0.4677
 6750TIP3    H144445   6.942   1.521   9.408  0.2876 -0.1730  1.5493
 6750TIP3    H244446   6.969   1.393   9.484 -1.1696 -1.5410 -0.1469
 6751TIP3   OH244447   5.182   5.758   8.390 -0.1333 -0.5710  0.2431
 6751TIP3    H144448   5.088   5.771   8.402 -0.1809  0.7073 -1.1449
 6751TIP3    H244449   5.217   5.846   8.377  1.0352 -1.1283 -0.6197
 6752TIP3   OH244450   3.450   8.024   8.476  0.6142 -0.0205  0.1790
 6752TIP3    H144451   3.543   8.041   8.460  1.3804 -2.9656  0.8812
 6752TIP3    H244452   3.428   8.079   8.551  2.1879 -0.2570  0.8530
 6753TIP3   OH244453   4.712   0.730   8.270 -0.3236  0.1003 -0.1927
 6753TIP3    H144454   4.723   0.703   8.361  1.0486  0.2247 -0.2899
 6753TIP3    H244455   4.800   0.757   8.243 -0.8130  0.5454 -1.4015
 6754TIP3   OH244456   7.883   3.091   8.450 -0.0017 -0.6661 -0.1940
 6754TIP3    H144457   7.849   3.155   8.388 -1.3570 -2.7026 -1.6581
 6754TIP3    H244458   7.910   3.016   8.397  0.9448 -1.5961  1.4880
 6755TIP3   OH244459   2.849   5.482   8.500 -0.2564  0.4490 -0.0274
 6755TIP3    H144460   2.787   5.541   8.458 -0.5777 -0.2421 -0.5519
 6755TIP3    H244461   2.935   5.511   8.470 -0.3719  1.0213  0.2000
 6756TIP3   OH244462   6.152   1.460   8.642  0.5720  0.3833  0.3092
 6756TIP3    H144463   6.123   1.529   8.701  0.0687 -1.4856  2.4161
 6756TIP3    H244464   6.077   1.400   8.636  1.8015 -1.2730  0.6548
 6757TIP3   OH244465   6.801   1.632   7.977 -0.0576 -0.2956  0.3426
 6757TIP3    H144466   6.718   1.647   7.932 -0.0550 -2.2946 -0.4280
 6757TIP3    H244467   6.832   1.547   7.945  3.1993  1.1317 -0.7814
 6758TIP3   OH244468   3.079   5.602   8.450  0.2430 -0.3392 -0.1867
 6758TIP3    H144469   3.152   5.645   8.495  0.5023 -1.3506  0.3763
 6758TIP3    H244470   3.055   5.663   8.380  2.2875 -0.4457 -1.0474
 6759TIP3   OH244471   8.026   7.166   9.082  0.1786  0.1739  0.1408
 6759TIP3    H144472   7.990   7.229   9.019 -0.2212 -1.3101 -1.1798
 6759TIP3    H244473   7.965   7.093   9.079  1.3495 -0.8417  0.6202
 6760TIP3   OH244474   2.011   4.567   9.745  0.2446 -0.1987  0.0900
 6760TIP3    H144475   1.942   4.535   9.687 -0.2444 -0.6985  0.9347
 6760TIP3    H244476   2.071   4.614   9.687 -0.7469  0.1601 -0.6685
 6761TIP3   OH244477   7.185   7.764   8.424 -0.1863 -0.3990  0.0839
 6761TIP3    H144478   7.094   7.792   8.419  0.0947  0.3998 -1.0113
 6761TIP3    H244479   7.231   7.820   8.360  1.1049 -0.6231  0.7790
 6762TIP3   OH244480   5.109   8.047   8.594  0.1005 -0.6335 -0.6697
 6762TIP3    H144481   5.177   8.038   8.660  0.1039 -0.2468 -0.6161
 6762TIP3    H244482   5.138   7.990   8.522 -1.3636 -3.3554  0.7898
 6763TIP3   OH244483   5.132   7.852   8.913 -0.6503 -0.1634  0.5388
 6763TIP3    H144484   5.185   7.927   8.888  0.3536 -0.3825  1.8698
 6763TIP3    H244485   5.049   7.889   8.943 -1.0363  0.2267 -0.9376
 6764TIP3   OH244486   5.136   8.359   9.246 -0.6295 -0.1544 -0.1828
 6764TIP3    H144487   5.158   8.415   9.172 -0.9087 -0.1473 -0.2643
 6764TIP3    H244488   5.076   8.412   9.298 -4.7502 -1.8850 -2.6179
 6765TIP3   OH244489   8.011   5.339   8.647  0.3187  0.1851  0.2433
 6765TIP3    H144490   7.971   5.310   8.729 -1.0610  1.0551 -0.0767
 6765TIP3    H244491   7.952   5.409   8.616  0.2683 -0.7641 -1.9594
 6766TIP3   OH244492   6.537   6.881   8.088 -0.5122 -0.3512  0.3176
 6766TIP3    H144493   6.462   6.855   8.035  1.2918 -0.4838 -2.3812
 6766TIP3    H244494   6.503   6.949   8.147 -2.6329 -0.1178 -1.0715
 6767TIP3   OH244495   4.434   0.631   9.719  0.3233  0.5197  0.2187
 6767TIP3    H144496   4.501   0.697   9.738 -1.1735  2.3215 -0.4929
 6767TIP3    H244497   4.446   0.565   9.788  2.3860  1.0799  0.4825
 6768TIP3   OH244498   2.186   3.923   9.530  0.8122  1.0364  0.5612
 6768TIP3    H144499   2.119   3.876   9.480  0.9213 -0.3362  1.6626
 6768TIP3    H244500   2.256   3.860   9.542  1.1198  1.5865  1.7800
 6769TIP3   OH244501   2.523   8.093   8.133 -0.1091  0.4418  0.7253
 6769TIP3    H144502   2.548   8.157   8.200 -0.4912  1.0889  0.2601
 6769TIP3    H244503   2.501   8.014   8.182 -0.2600  0.8710  1.3608
 6770TIP3   OH244504   8.236   1.242   8.143 -0.2174 -0.3197  0.2698
 6770TIP3    H144505   8.309   1.299   8.120 -1.5201  1.6200  0.6477
 6770TIP3    H244506   8.276   1.162   8.177  1.6922  0.2140 -0.6450
 6771TIP3   OH244507   1.817   5.128   8.074  0.0826 -0.1972 -0.2095
 6771TIP3    H144508   1.871   5.131   8.153 -0.5649  0.2286  0.2284
 6771TIP3    H244509   1.780   5.039   8.073 -0.7932  0.1441  0.5840
 6772TIP3   OH244510   2.814   3.011   8.059 -0.2119 -0.0649 -0.3884
 6772TIP3    H144511   2.732   3.059   8.072  0.2998  1.1278 -1.3485
 6772TIP3    H244512   2.817   2.949   8.132 -2.6417 -1.1445 -1.0847
 6773TIP3   OH244513   5.162   0.201   7.643 -0.6055  0.3398  1.1041
 6773TIP3    H144514   5.157   0.249   7.561 -0.2160 -1.5109 -0.0618
 6773TIP3    H244515   5.247   0.225   7.681 -0.4406  0.5940  0.5757
 6774TIP3   OH244516   3.025   3.153   8.399 -0.2558  0.4193  0.2188
 6774TIP3    H144517   2.950   3.137   8.456 -0.1129 -0.2555  0.2220
 6774TIP3    H244518   3.075   3.072   8.402 -0.3286  0.3210 -1.0014
 6775TIP3   OH244519   7.274   5.759   8.444  0.4334  0.5455  0.0803
 6775TIP3    H144520   7.228   5.829   8.489  0.8463  0.2022  1.0679
 6775TIP3    H244521   7.319   5.711   8.514 -1.0272 -1.6156 -0.3795
 6776TIP3   OH244522   0.656   6.555   9.241 -0.5022 -0.5117 -0.4875
 6776TIP3    H144523   0.619   6.481   9.290  0.2190 -1.0191 -0.6996
 6776TIP3    H244524   0.722   6.592   9.299  0.1121 -0.9000 -0.9325
 6777TIP3   OH244525   0.826   5.790   8.383 -0.3890  0.2194 -0.1914
 6777TIP3    H144526   0.822   5.886   8.375 -0.4727  0.2089 -0.2676
 6777TIP3    H244527   0.761   5.758   8.321 -0.6891  0.1278  0.1676
 6778TIP3   OH244528   8.438   5.095   8.177  0.1093  0.4733  0.0639
 6778TIP3    H144529   8.412   5.157   8.108 -3.3551 -1.4223 -0.5553
 6778TIP3    H244530   8.506   5.042   8.137 -0.7705  0.3948 -1.4283
 6779TIP3   OH244531   1.718   0.990   8.186 -0.3115 -0.4955 -0.0019
 6779TIP3    H144532   1.732   0.942   8.268 -2.0869  1.7716  1.7719
 6779TIP3    H244533   1.624   1.005   8.183 -0.2897 -0.4995 -2.5223
 6780TIP3   OH244534   2.018   2.405   9.316  0.0177 -0.1673 -0.7908
 6780TIP3    H144535   2.098   2.441   9.355 -0.6349  1.6425 -1.0380
 6780TIP3    H244536   1.989   2.338   9.379  0.8522  0.2646  0.0831
 6781TIP3   OH244537   5.068   5.934   8.726  0.6052 -0.2710  0.0140
 6781TIP3    H144538   4.987   5.960   8.770  1.1204  1.1703  0.1861
 6781TIP3    H244539   5.118   5.887   8.792  1.1567  1.4334  0.8592
 6782TIP3   OH244540   2.408   3.791   9.252 -0.2803 -0.4732  0.3699
 6782TIP3    H144541   2.374   3.881   9.250  1.3546  0.1922 -1.9953
 6782TIP3    H244542   2.424   3.774   9.345 -1.2155  1.4558  0.9334
 6783TIP3   OH244543   0.383   4.504   8.902  0.6039 -0.2960  0.1447
 6783TIP3    H144544   0.372   4.529   8.994  2.5483 -1.2576  0.7027
 6783TIP3    H244545   0.465   4.545   8.875 -0.4374  0.8104 -1.5201
 6784TIP3   OH244546   7.852   6.127   9.829 -0.5291 -0.0023  0.3131
 6784TIP3    H144547   7.934   6.142   9.876  0.2384  0.7066 -1.1569
 6784TIP3    H244548   7.831   6.035   9.845  1.3726 -0.6231 -0.4788
 6785TIP3   OH244549   4.737   4.503   9.286 -0.3206  0.7667  0.1700
 6785TIP3    H144550   4.716   4.595   9.268 -0.3948  0.6440 -0.3852
 6785TIP3    H244551   4.673   4.476   9.351 -1.7737  0.4497 -1.3462
 6786TIP3   OH244552   4.501   5.187   8.929 -0.1809 -0.3219 -0.0679
 6786TIP3    H144553   4.492   5.261   8.869 -1.8316 -0.4394 -0.0283
 6786TIP3    H244554   4.558   5.218   8.998  0.2587  0.4441 -0.7600
 6787TIP3   OH244555   6.131   3.896   8.079 -0.0415 -0.7242 -0.0757
 6787TIP3    H144556   6.164   3.969   8.132 -2.7081  0.0720  0.6533
 6787TIP3    H244557   6.056   3.932   8.032 -1.4435 -2.9575  0.2919
 6788TIP3   OH244558   3.535   0.137   9.044 -0.0509  0.4616 -0.0109
 6788TIP3    H144559   3.522   0.171   8.955 -1.5404 -1.5567 -0.6511
 6788TIP3    H244560   3.471   0.183   9.097 -1.8676 -1.0052 -0.8108
 6789TIP3   OH244561   4.755   7.378   9.036  0.2921  0.9869  0.6188
 6789TIP3    H144562   4.797   7.447   8.984 -2.0174  0.3924 -2.3280
 6789TIP3    H244563   4.668   7.414   9.057 -0.3763 -0.4279  0.3546
 6790TIP3   OH244564   8.186   4.460   9.409  0.0254 -0.5908 -0.2863
 6790TIP3    H144565   8.265   4.414   9.383  0.0945 -0.3537 -0.5033
 6790TIP3    H244566   8.188   4.460   9.505 -0.5803 -2.0766 -0.2536
 6791TIP3   OH244567   3.109   7.808   7.956 -0.2311 -0.7039  0.2981
 6791TIP3    H144568   3.077   7.800   8.046  0.1409 -1.5423  0.3624
 6791TIP3    H244569   3.203   7.794   7.962  0.1433  1.5095  0.0693
 6792TIP3   OH244570   2.453   0.440   8.509 -0.1077  0.4480  0.2310
 6792TIP3    H144571   2.442   0.346   8.497  2.9917 -0.2905  2.0978
 6792TIP3    H244572   2.497   0.470   8.430  0.3478 -0.0154  0.3052
 6793TIP3   OH244573   5.033   5.539   8.505  0.4825  0.3232 -0.6967
 6793TIP3    H144574   5.022   5.562   8.597 -1.2832 -1.7884 -0.2919
 6793TIP3    H244575   5.103   5.597   8.474  1.3178  0.9302  2.0173
 6794TIP3   OH244576   6.178   4.234   7.914 -0.9177  0.1106  0.3084
 6794TIP3    H144577   6.229   4.286   7.851 -0.5474  0.0051  0.5149
 6794TIP3    H244578   6.088   4.265   7.904 -0.8016  0.3504 -0.0140
 6795TIP3   OH244579   1.960   1.938   8.136 -0.3172  0.3964 -0.4058
 6795TIP3    H144580   2.053   1.933   8.116 -0.2248  0.8283 -0.1120
 6795TIP3    H244581   1.939   2.031   8.128 -0.6757  0.3288 -0.2794
 6796TIP3   OH244582   5.601   7.922   8.143 -0.5707  0.2506  0.2306
 6796TIP3    H144583   5.643   7.916   8.057  0.8146  1.2227  0.7977
 6796TIP3    H244584   5.524   7.977   8.129 -1.3716 -1.0704 -0.7189
 6797TIP3   OH244585   6.332   7.254   7.817  0.0262  0.2977  0.3425
 6797TIP3    H144586   6.313   7.160   7.819  0.4857  0.1976  0.0858
 6797TIP3    H244587   6.314   7.284   7.906 -0.8280  0.1105  0.2472
 6798TIP3   OH244588   6.989   4.523   8.750  0.0156 -0.7752 -0.1452
 6798TIP3    H144589   6.918   4.583   8.727  0.6641 -0.0106 -0.2084
 6798TIP3    H244590   7.009   4.477   8.668 -1.0837 -1.7507  0.1084
 6799TIP3   OH244591   6.086   0.747   9.070 -0.5728  0.2104 -0.3714
 6799TIP3    H144592   6.011   0.779   9.020 -1.0300 -2.7197 -1.7879
 6799TIP3    H244593   6.160   0.759   9.011 -0.9148 -2.0943 -1.3695
 6800TIP3   OH244594   6.497   6.507  10.112 -0.4083 -0.2358 -0.6083
 6800TIP3    H144595   6.471   6.472  10.197  1.9485 -0.1614  0.2273
 6800TIP3    H244596   6.480   6.436  10.050 -0.5947 -0.9086  0.2009
 6801TIP3   OH244597   8.353   2.583   8.915  0.4390  0.1475 -0.1124
 6801TIP3    H144598   8.378   2.545   8.831 -1.3630 -1.4306 -0.0009
 6801TIP3    H244599   8.264   2.614   8.902  0.6740  1.3047  0.8231
 6802TIP3   OH244600   1.113   7.499   8.435  0.0504  0.3322  0.8547
 6802TIP3    H144601   1.123   7.457   8.349  0.6857  0.9293  0.6212
 6802TIP3    H244602   1.184   7.463   8.487  0.8737  1.4040  0.5190
 6803TIP3   OH244603   6.188   6.563  10.569  0.2635  0.5929  0.0767
 6803TIP3    H144604   6.252   6.582  10.637  0.0005  1.2828  0.1346
 6803TIP3    H244605   6.200   6.632  10.503  0.2812  0.1330 -0.4153
 6804TIP3   OH244606   5.005   0.107   8.322 -0.0637  0.5429  0.2375
 6804TIP3    H144607   4.915   0.107   8.288  0.3159  1.7493 -0.8761
 6804TIP3    H244608   5.017   0.020   8.359 -1.8224  0.4872  0.7566
 6805TIP3   OH244609   3.010   3.298   8.935 -0.6503 -0.1715  0.5698
 6805TIP3    H144610   2.931   3.256   8.969 -1.3814  0.3276 -0.4537
 6805TIP3    H244611   3.031   3.249   8.856  1.0117 -1.3015  1.6423
 6806TIP3   OH244612   1.779   5.086   9.987 -0.1440 -0.0215  0.2819
 6806TIP3    H144613   1.845   5.020  10.005 -1.0135 -0.7250  1.0024
 6806TIP3    H244614   1.812   5.134   9.911  1.3741 -0.0781  0.8763
 6807TIP3   OH244615   4.358   3.454  10.149  0.5751 -0.2701 -0.1533
 6807TIP3    H144616   4.273   3.434  10.112 -0.4742  0.1622  1.8793
 6807TIP3    H244617   4.414   3.380  10.124 -0.5182 -0.7919 -1.1077
 6808TIP3   OH244618   1.411   2.894   9.285  0.3922 -0.0456  0.9109
 6808TIP3    H144619   1.460   2.976   9.286 -1.9301  1.4934 -0.5373
 6808TIP3    H244620   1.329   2.915   9.329 -0.5746 -1.3465 -0.1769
 6809TIP3   OH244621   1.707   7.021   8.277 -0.0624 -0.5216 -0.3218
 6809TIP3    H144622   1.661   7.057   8.201  1.1836  0.4703 -0.6436
 6809TIP3    H244623   1.799   7.047   8.264  0.1577 -0.1812  1.5941
 6810TIP3   OH244624   7.982   5.056   8.168  0.3909 -0.1764 -0.7916
 6810TIP3    H144625   8.000   5.093   8.255  2.7670 -2.7717 -0.0496
 6810TIP3    H244626   8.026   5.115   8.107  0.5089  0.5046 -0.0647
 6811TIP3   OH244627   2.349   4.970   9.561 -0.3133  0.2501  0.0856
 6811TIP3    H144628   2.430   5.021   9.554 -0.3711  0.1775 -1.3911
 6811TIP3    H244629   2.294   5.003   9.490 -1.3983 -0.0330  0.7821
 6812TIP3   OH244630   7.863   1.914   8.122  0.0849 -0.5377  0.1153
 6812TIP3    H144631   7.841   1.939   8.032  1.1622  0.2809  0.0601
 6812TIP3    H244632   7.909   1.831   8.114  0.4658 -0.3061 -0.1323
 6813TIP3   OH244633   4.839   6.441   9.407  0.0366 -0.0956 -0.0295
 6813TIP3    H144634   4.888   6.360   9.391  0.2274 -0.2623  1.2495
 6813TIP3    H244635   4.889   6.509   9.362  1.2696 -0.3231  0.9376
 6814TIP3   OH244636   3.289   0.933   9.849 -0.5266 -0.1895 -0.3810
 6814TIP3    H144637   3.306   0.922   9.756  0.4824  0.3872 -0.2701
 6814TIP3    H244638   3.314   0.849   9.888  1.7256  0.4600 -0.2890
 6815TIP3   OH244639   7.670   2.066   7.816  0.3840 -0.8798 -0.2069
 6815TIP3    H144640   7.756   2.070   7.858 -0.0074 -1.4460  0.6683
 6815TIP3    H244641   7.621   2.003   7.868 -0.4263 -0.8845 -0.9609
 6816TIP3   OH244642   2.641   5.893   9.735  0.7733  0.5561 -0.5490
 6816TIP3    H144643   2.596   5.974   9.759 -0.4451 -0.8448  2.4324
 6816TIP3    H244644   2.574   5.839   9.693  0.9204  0.1928 -0.3207
 6817TIP3   OH244645   2.990   6.202   9.426  0.1835 -0.1047 -0.1011
 6817TIP3    H144646   2.966   6.294   9.414  0.7091  0.2698  1.5031
 6817TIP3    H244647   2.916   6.164   9.473  0.7967  0.0003  0.9848
 6818TIP3   OH244648   1.890   3.065  10.002  0.2430 -0.4065  0.3031
 6818TIP3    H144649   1.923   3.090   9.916  0.6696  0.0843  0.6025
 6818TIP3    H244650   1.796   3.079   9.997  0.2876 -0.2267 -0.0316
 6819TIP3   OH244651   5.088   4.876  10.271  0.2150  0.1327 -0.2284
 6819TIP3    H144652   5.183   4.879  10.270  0.2261 -0.1594 -0.1832
 6819TIP3    H244653   5.062   4.930  10.196  0.4283 -0.1376 -0.5012
 6820TIP3   OH244654   4.441   3.152   8.724  0.3848  0.0242  0.1066
 6820TIP3    H144655   4.529   3.161   8.759  0.1935 -1.3770  1.0404
 6820TIP3    H244656   4.442   3.069   8.676 -0.5870 -0.4023  0.7655
 6821TIP3   OH244657   5.085   5.554   9.797  0.2228 -0.7319  0.2077
 6821TIP3    H144658   5.082   5.489   9.726 -1.3112 -1.0507  0.5214
 6821TIP3    H244659   5.141   5.514   9.863  0.1657 -1.2586 -0.0512
 6822TIP3   OH244660   3.640   4.723   8.806  0.1613 -0.2178  0.5318
 6822TIP3    H144661   3.606   4.646   8.853 -0.4800  0.4589  1.1950
 6822TIP3    H244662   3.645   4.694   8.714  0.3751 -1.1970  0.8433
 6823TIP3   OH244663   3.268   6.343   9.663  0.3588 -0.3922 -0.6586
 6823TIP3    H144664   3.204   6.280   9.695  0.2404  0.1717  0.2839
 6823TIP3    H244665   3.351   6.295   9.660  0.0677 -0.8766 -1.0044
 6824TIP3   OH244666   0.682   5.084  14.719 -0.3270  0.1211  0.1832
 6824TIP3    H144667   0.635   5.009  14.683 -0.1246 -0.4260  1.0217
 6824TIP3    H244668   0.624   5.158  14.706  0.6008  0.3933 -3.2403
 6825TIP3   OH244669   6.244   5.513   8.733  0.3712 -0.4470  0.1692
 6825TIP3    H144670   6.254   5.440   8.793 -3.1403 -0.7031  0.6966
 6825TIP3    H244671   6.213   5.473   8.651  1.3823  0.2210 -0.5608
 6826TIP3   OH244672   4.036   4.924   8.474  0.1743  0.2534  0.1026
 6826TIP3    H144673   3.986   4.850   8.440  1.9773 -0.7901 -0.3963
 6826TIP3    H244674   4.109   4.885   8.521  1.7087  1.6679 -0.9588
 6827TIP3   OH244675   0.854   2.960   7.656 -0.1171 -0.1885  0.7804
 6827TIP3    H144676   0.864   2.895   7.726 -1.3295 -1.7626 -0.4381
 6827TIP3    H244677   0.804   3.031   7.697 -4.1803 -2.6809  0.7733
 6828TIP3   OH244678   2.573   1.703   8.918 -0.5012 -0.0982 -0.2394
 6828TIP3    H144679   2.495   1.650   8.901 -1.6508  1.4036  0.1222
 6828TIP3    H244680   2.546   1.792   8.896  1.1591  0.4359 -0.1981
 6829TIP3   OH244681   7.281   2.438   7.912  0.1849 -0.0158 -0.0853
 6829TIP3    H144682   7.318   2.431   7.824 -0.2979  1.3122 -0.4161
 6829TIP3    H244683   7.279   2.348   7.945  1.3730 -0.4015 -1.0099
 6830TIP3   OH244684   8.325   5.167   9.568  0.0655  0.1718 -0.2884
 6830TIP3    H144685   8.373   5.091   9.602  0.8938  1.3864  1.4412
 6830TIP3    H244686   8.255   5.130   9.514  0.4991 -1.8018  0.4332
 6831TIP3   OH244687   5.079   6.427   9.047 -0.6873  0.5763  0.1973
 6831TIP3    H144688   5.104   6.376   9.124 -0.4815 -0.3048 -0.4424
 6831TIP3    H244689   5.081   6.364   8.975 -2.3518  1.0297 -0.2958
 6832TIP3   OH244690   3.279   7.099   8.861  0.1276 -0.1086 -0.0115
 6832TIP3    H144691   3.369   7.074   8.883 -0.2562 -1.5758  0.0325
 6832TIP3    H244692   3.281   7.114   8.767  0.2301 -1.1387 -0.1913
 6833TIP3   OH244693   2.314   6.992   7.863 -0.0031 -0.7405 -0.1675
 6833TIP3    H144694   2.238   6.934   7.860 -0.2652 -0.4416  0.6093
 6833TIP3    H244695   2.389   6.933   7.849 -0.3911 -0.9557 -1.5049
 6834TIP3   OH244696   7.235   3.758   8.454 -0.2294 -0.0816  0.6813
 6834TIP3    H144697   7.196   3.676   8.423  0.4036 -1.4486  3.2014
 6834TIP3    H244698   7.325   3.756   8.422 -0.4874  0.1250 -0.0751
 6835TIP3   OH244699   2.986   0.377   8.619  0.1683  0.0431 -0.0091
 6835TIP3    H144700   2.903   0.334   8.637 -0.8452  2.6506  2.0475
 6835TIP3    H244701   2.963   0.455   8.569  1.4681  0.4681  0.0208
 6836TIP3   OH244702   5.419   3.963   9.202 -0.2506 -0.2687  0.5818
 6836TIP3    H144703   5.356   4.021   9.244  1.5448  1.9515  0.3838
 6836TIP3    H244704   5.453   4.013   9.129  0.3897 -2.1336 -0.4677
 6837TIP3   OH244705   1.536   6.913   9.502 -0.6154 -0.3661 -0.0755
 6837TIP3    H144706   1.447   6.948   9.500 -0.3836  0.1879 -0.8430
 6837TIP3    H244707   1.579   6.960   9.574 -1.0629 -0.9765  0.6178
 6838TIP3   OH244708   7.228   1.960   9.049 -0.2413  0.3091 -0.3360
 6838TIP3    H144709   7.279   1.925   8.976 -0.9277 -0.1692 -0.5946
 6838TIP3    H244710   7.261   2.049   9.061  0.9605 -0.1310 -0.2013
 6839TIP3   OH244711   6.536   1.973   8.248  0.2207 -0.6572  0.7775
 6839TIP3    H144712   6.610   1.916   8.271  0.6028  0.2849  1.9739
 6839TIP3    H244713   6.498   1.998   8.332  1.0031  2.0522  0.4215
 6840TIP3   OH244714   4.055   1.718   8.910 -0.0782  0.0958  0.4469
 6840TIP3    H144715   4.001   1.685   8.982  0.8308  0.4212  1.3157
 6840TIP3    H244716   4.128   1.656   8.904 -1.2654 -1.1782 -1.7068
 6841TIP3   OH244717   2.543   0.583   9.791 -0.7612  0.2012  0.6400
 6841TIP3    H144718   2.627   0.577   9.746 -2.0450 -0.7396 -1.8075
 6841TIP3    H244719   2.531   0.496   9.830 -1.0043  0.0165  0.1646
 6842TIP3   OH244720   0.297   1.720   8.157  0.2183 -0.4033  0.5758
 6842TIP3    H144721   0.276   1.781   8.085 -1.0665 -0.8230  0.5760
 6842TIP3    H244722   0.309   1.636   8.114 -3.5676 -1.3538  1.0284
 6843TIP3   OH244723   1.443   6.760   9.044 -0.1454 -0.2986 -0.3365
 6843TIP3    H144724   1.458   6.781   8.952 -0.5908 -0.4514 -0.4436
 6843TIP3    H244725   1.493   6.680   9.059 -0.2426 -0.3876 -0.4959
 6844TIP3   OH244726   7.818   5.425   9.250  0.3028  0.4031  0.4618
 6844TIP3    H144727   7.906   5.462   9.248  1.4458 -2.1046  0.6599
 6844TIP3    H244728   7.813   5.379   9.334 -0.4280 -1.1656 -0.4063
 6845TIP3   OH244729   3.180   5.441   8.633  0.2277  0.5756 -0.3682
 6845TIP3    H144730   3.177   5.503   8.706 -0.5972 -1.1149  1.1005
 6845TIP3    H244731   3.135   5.486   8.562 -1.3515  1.2455  0.9924
 6846TIP3   OH244732   7.725   1.188   9.295  0.2794  0.2972  0.1192
 6846TIP3    H144733   7.704   1.214   9.385  0.7772 -2.3852  1.1090
 6846TIP3    H244734   7.641   1.165   9.257  0.2482 -0.3603  0.5612
 6847TIP3   OH244735   6.038   0.894   7.597 -0.0894  0.1457  0.5769
 6847TIP3    H144736   6.023   0.809   7.555  0.7451  0.0308  0.5056
 6847TIP3    H244737   5.950   0.923   7.623 -0.2580 -1.5355  2.1610
 6848TIP3   OH244738   3.956   5.716   9.169  0.5786  0.4402  0.3550
 6848TIP3    H144739   3.940   5.805   9.138  0.6056  0.1304 -0.5713
 6848TIP3    H244740   3.921   5.660   9.100  0.2689 -0.2728  1.0793
 6849TIP3   OH244741   0.778   1.506   8.430  0.4283  0.2274  0.0968
 6849TIP3    H144742   0.857   1.554   8.406 -0.5215  1.6247 -0.4154
 6849TIP3    H244743   0.784   1.495   8.525  0.2819  2.2255  0.3870
 6850TIP3   OH244744   4.490   3.766   7.548 -0.1131 -0.1399 -0.3401
 6850TIP3    H144745   4.491   3.765   7.644  1.5444 -2.6075 -0.3067
 6850TIP3    H244746   4.423   3.831   7.526  0.4993  1.6128  2.4479
 6851TIP3   OH244747   2.493   3.225   8.592  0.6277  0.4423 -0.3007
 6851TIP3    H144748   2.434   3.275   8.648 -0.8089 -1.3882 -0.0601
 6851TIP3    H244749   2.477   3.260   8.504 -0.2075  0.5566 -0.1153
 6852TIP3   OH244750   6.233   7.075   8.927  0.4760 -0.0658  0.6695
 6852TIP3    H144751   6.180   7.098   9.004 -2.7851 -1.9468 -0.7793
 6852TIP3    H244752   6.184   7.004   8.886  2.7122  0.0540 -2.5164
 6853TIP3   OH244753   6.065   5.214   9.356  0.4343  0.0274  0.0593
 6853TIP3    H144754   6.114   5.295   9.366 -2.7101  1.9239  1.7137
 6853TIP3    H244755   6.038   5.213   9.264  1.1345  0.4501 -0.1575
 6854TIP3   OH244756   3.137   6.611   7.976  0.1463 -0.3407 -0.1090
 6854TIP3    H144757   3.078   6.680   7.947 -1.0176 -1.0392  0.4778
 6854TIP3    H244758   3.216   6.656   8.006 -0.5299  0.7168  0.1231
 6855TIP3   OH244759   0.189   0.708   9.968  0.3284 -0.0069  0.2262
 6855TIP3    H144760   0.095   0.703   9.980  0.4927 -1.0634  1.2696
 6855TIP3    H244761   0.205   0.660   9.887  0.0960 -1.0747  0.7991
 6856TIP3   OH244762   2.028   7.167   8.851  0.2936 -0.3601 -0.2422
 6856TIP3    H144763   2.075   7.248   8.873 -1.6336  1.3054 -1.9237
 6856TIP3    H244764   2.013   7.172   8.757 -0.9742 -2.0933 -0.1831
 6857TIP3   OH244765   6.679   6.765   9.361 -0.0768 -0.4537  0.1629
 6857TIP3    H144766   6.628   6.840   9.331  0.0563 -1.1951 -2.1215
 6857TIP3    H244767   6.614   6.697   9.377 -0.0813 -0.2859  0.9024
 6858TIP3   OH244768   7.931   3.807   7.890  0.6372  0.1686 -0.1253
 6858TIP3    H144769   7.977   3.882   7.853 -0.6718  0.2001 -1.8634
 6858TIP3    H244770   8.000   3.746   7.916  1.6706  0.8881 -1.1102
 6859TIP3   OH244771   6.266   2.619   7.966  0.5295  0.0788 -0.0506
 6859TIP3    H144772   6.352   2.579   7.981  0.4121 -0.3917 -0.5951
 6859TIP3    H244773   6.220   2.606   8.049  0.5847 -0.7021 -0.1339
 6860TIP3   OH244774   1.529   2.644   9.913  0.4731 -0.2613 -0.0740
 6860TIP3    H144775   1.537   2.607   9.825 -0.4695  0.0333 -0.2962
 6860TIP3    H244776   1.591   2.593   9.966  0.5424 -0.9095 -0.7600
 6861TIP3   OH244777   7.053   1.989   9.526 -0.5714  0.3854 -0.1445
 6861TIP3    H144778   7.109   2.050   9.477 -0.7232 -0.0904 -0.9253
 6861TIP3    H244779   6.975   1.980   9.473 -0.9011  0.1400  0.3723
 6862TIP3   OH244780   6.866   5.687   9.896 -0.6771 -0.5560 -0.1584
 6862TIP3    H144781   6.806   5.639   9.839  1.6943 -1.8149 -1.7416
 6862TIP3    H244782   6.946   5.635   9.897  2.6058  3.7239 -2.9909
 6863TIP3   OH244783   7.840   1.070   9.911 -0.1968 -0.4018 -0.1719
 6863TIP3    H144784   7.811   1.043   9.824 -1.0414 -0.7158  0.2017
 6863TIP3    H244785   7.832   1.165   9.910  0.5717 -0.3287 -0.7002
 6864TIP3   OH244786   8.215   2.748   9.688  0.0161  0.3864  0.8117
 6864TIP3    H144787   8.294   2.802   9.700 -1.0737  2.0197  1.0549
 6864TIP3    H244788   8.217   2.723   9.596 -0.8612  3.3378 -0.1235
 6865TIP3   OH244789   2.218   1.375   9.225 -0.2313  0.1776 -0.1582
 6865TIP3    H144790   2.130   1.375   9.188 -0.8574 -3.6099  0.9584
 6865TIP3    H244791   2.205   1.399   9.317  0.3267  2.1923 -0.5647
 6866TIP3   OH244792   0.593   7.178   8.038  0.3689  0.1541  0.0893
 6866TIP3    H144793   0.511   7.169   8.087  0.5041  0.1333  0.3137
 6866TIP3    H244794   0.605   7.273   8.030 -0.1589  0.1599 -0.7636
 6867TIP3   OH244795   1.160   8.402   8.662 -0.6165 -0.4134  0.4806
 6867TIP3    H144796   1.066   8.416   8.668 -0.9073 -1.9875  0.0885
 6867TIP3    H244797   1.170   8.307   8.660  1.0656 -0.3120  1.6588
 6868TIP3   OH244798   0.780   5.410   9.492 -0.2880  0.2792 -0.0778
 6868TIP3    H144799   0.841   5.339   9.513 -0.1881  0.6128  0.8112
 6868TIP3    H244800   0.831   5.490   9.508 -0.6732  0.5498 -0.2102
 6869TIP3   OH244801   5.872   8.435   9.437 -0.3353  0.4609  0.3145
 6869TIP3    H144802   5.830   8.349   9.436  1.2803 -0.4045  1.7436
 6869TIP3    H244803   5.892   8.453   9.345  0.4069 -1.2703  0.0915
 6870TIP3   OH244804   6.704   6.309   9.012 -0.0523  0.1435 -0.3346
 6870TIP3    H144805   6.660   6.357   8.942 -0.6333  1.0264  0.6168
 6870TIP3    H244806   6.796   6.309   8.986 -0.0171  1.8668 -0.3274
 6871TIP3   OH244807   4.681   2.036   7.753 -0.2676  0.2988 -0.4035
 6871TIP3    H144808   4.673   1.940   7.754 -0.1447  0.2848 -0.6947
 6871TIP3    H244809   4.773   2.052   7.776 -0.6355  0.3995  1.1114
 6872TIP3   OH244810   6.605   1.181   8.868 -0.0655 -0.0324  0.3098
 6872TIP3    H144811   6.612   1.096   8.824  1.1390  0.1517  0.1026
 6872TIP3    H244812   6.511   1.198   8.873 -0.2718 -0.5954 -1.1529
 6873TIP3   OH244813   2.713   4.841   8.282  0.0217 -0.4355 -0.2181
 6873TIP3    H144814   2.777   4.911   8.265 -1.3801  0.6217 -1.4012
 6873TIP3    H244815   2.742   4.768   8.227 -0.2820  0.3677 -1.4760
 6874TIP3   OH244816   8.010   1.025   8.064 -0.0155 -0.0979 -0.2038
 6874TIP3    H144817   8.018   1.087   8.136 -0.9018 -1.5109  1.1911
 6874TIP3    H244818   7.923   1.041   8.027 -0.0613 -0.1837 -0.1359
 6875TIP3   OH244819   4.884   2.440   8.942  0.5192  0.1547  0.2367
 6875TIP3    H144820   4.842   2.452   9.028  0.0798 -0.4845  0.1207
 6875TIP3    H244821   4.932   2.522   8.927 -2.4073  1.9068 -0.5713
 6876TIP3   OH244822   2.840   2.014   8.286  0.0392  0.2120  0.2621
 6876TIP3    H144823   2.762   2.033   8.233 -0.2691 -0.7345  0.3575
 6876TIP3    H244824   2.908   1.996   8.222 -0.4621 -1.4447  0.1599
 6877TIP3   OH244825   2.812   0.487   9.723  0.2417  0.0134 -0.9923
 6877TIP3    H144826   2.831   0.437   9.803 -0.2036  1.7916  0.3019
 6877TIP3    H244827   2.857   0.571   9.737  0.5550  0.1841 -2.8573
 6878TIP3   OH244828   1.401   2.024   9.545 -1.1479 -0.1829  0.0615
 6878TIP3    H144829   1.310   2.005   9.565 -1.2713  0.7067  0.3753
 6878TIP3    H244830   1.443   1.938   9.543 -1.5969 -0.4972  1.9062
 6879TIP3   OH244831   7.627   6.775   9.723 -0.1301  0.3488  0.2019
 6879TIP3    H144832   7.711   6.779   9.678  0.4736 -0.0298  1.2630
 6879TIP3    H244833   7.562   6.768   9.653  0.8623 -1.7015 -0.5650
 6880TIP3   OH244834   2.203   6.921   9.379 -0.0586  0.6164  0.4720
 6880TIP3    H144835   2.287   6.959   9.356 -1.1047  1.4439 -2.4636
 6880TIP3    H244836   2.195   6.843   9.324 -1.1246  0.4707  0.8054
 6881TIP3   OH244837   1.373   6.448   7.806 -0.1596  0.0778 -0.1877
 6881TIP3    H144838   1.389   6.456   7.900  0.8211  2.0953 -0.4714
 6881TIP3    H244839   1.435   6.509   7.765 -1.6793  0.4830 -2.0424
 6882TIP3   OH244840   8.157   6.446   9.887  0.1852  0.0806  0.2050
 6882TIP3    H144841   8.085   6.502   9.857  0.1039  0.1877  0.5966
 6882TIP3    H244842   8.210   6.431   9.809  1.1535  2.0813  0.4093
 6883TIP3   OH244843   5.339   4.371   8.484  0.1917  0.0069  0.1372
 6883TIP3    H144844   5.306   4.294   8.532 -2.2488  1.7209  1.4234
 6883TIP3    H244845   5.269   4.391   8.421  1.6981  0.0324 -1.5959
 6884TIP3   OH244846   1.623   5.852   9.863  0.2013  0.1272 -0.1054
 6884TIP3    H144847   1.551   5.793   9.888 -0.3824  0.2931 -1.3246
 6884TIP3    H244848   1.588   5.940   9.878 -0.4801  0.2645 -2.1943
 6885TIP3   OH244849   3.506   2.583   8.957 -0.1148  0.1244  0.0592
 6885TIP3    H144850   3.483   2.675   8.951 -1.4233 -0.1942 -0.0429
 6885TIP3    H244851   3.422   2.537   8.958  0.4227 -0.9532  2.1379
 6886TIP3   OH244852   2.403   5.556   8.893  0.1502 -0.2782  0.0468
 6886TIP3    H144853   2.405   5.463   8.868  0.3793 -0.2974  0.1424
 6886TIP3    H244854   2.362   5.556   8.979 -1.0763 -0.1723 -0.5027
 6887TIP3   OH244855   7.936   1.842  10.106  0.5031  0.3292 -0.3743
 6887TIP3    H144856   7.922   1.936  10.107  0.3407  0.3004  0.7646
 6887TIP3    H244857   8.020   1.830  10.149  0.1082 -0.1114  0.2801
 6888TIP3   OH244858   0.890   1.951   8.513  0.0627  0.2314  0.3829
 6888TIP3    H144859   0.806   1.921   8.547 -0.4447  1.5947  0.3929
 6888TIP3    H244860   0.875   2.043   8.490  1.7441  0.7270  1.0965
 6889TIP3   OH244861   0.034   0.882   7.769  0.8378  0.1128  0.2407
 6889TIP3    H144862   0.013   0.812   7.832  0.4451 -0.2626 -0.2936
 6889TIP3    H244863  -0.045   0.890   7.716 -0.4276  3.2356  2.3104
 6890TIP3   OH244864   7.318   7.947   8.272  0.0081 -0.2783 -0.4520
 6890TIP3    H144865   7.325   7.902   8.188  0.3221 -2.7563  0.8007
 6890TIP3    H244866   7.408   7.962   8.300  0.0274 -2.4087  0.8366
 6891TIP3   OH244867   5.934   0.581   9.559  0.9390  0.5263 -0.8195
 6891TIP3    H144868   5.979   0.657   9.597  0.8260  1.0007 -1.6270
 6891TIP3    H244869   5.930   0.599   9.465 -2.2429  1.2385 -0.6804
 6892TIP3   OH244870   0.155   4.944   8.927 -0.0899  0.2783 -0.3595
 6892TIP3    H144871   0.245   4.951   8.895 -0.7180  2.7909 -1.9219
 6892TIP3    H244872   0.101   4.973   8.853 -2.1535 -0.4547  0.7647
 6893TIP3   OH244873   6.917   7.714   7.812  0.1569  0.1809 -0.5059
 6893TIP3    H144874   6.947   7.623   7.813 -1.0149 -0.2324 -1.1014
 6893TIP3    H244875   6.825   7.709   7.838  0.9305  1.5820  2.9575
 6894TIP3   OH244876   4.107   8.445   9.852  0.0638 -0.3935 -0.4616
 6894TIP3    H144877   4.199   8.461   9.871 -0.2643  1.1999 -0.0187
 6894TIP3    H244878   4.101   8.351   9.834  1.4457 -0.8860  1.4020
 6895TIP3   OH244879   1.591   1.103   8.834 -0.7406 -0.0575  0.0826
 6895TIP3    H144880   1.572   1.178   8.891 -0.9148 -0.4524  0.5483
 6895TIP3    H244881   1.553   1.128   8.749 -0.3331  0.6055  0.0858
 6896TIP3   OH244882   4.052   1.072   8.280 -0.3169 -0.7197 -0.0509
 6896TIP3    H144883   4.117   1.004   8.292 -0.3698 -0.8174 -0.3255
 6896TIP3    H244884   4.022   1.062   8.190  1.0519  0.8860 -0.7256
 6897TIP3   OH244885   2.606   5.745   8.922 -0.2025  0.2021  0.4838
 6897TIP3    H144886   2.543   5.678   8.947  0.4200  0.0228  1.6435
 6897TIP3    H244887   2.662   5.703   8.857 -0.0018 -0.3092  0.9819
 6898TIP3   OH244888   4.831   7.442   8.388 -0.3000 -0.5229  0.3644
 6898TIP3    H144889   4.855   7.482   8.471 -0.0517  1.0247 -0.3989
 6898TIP3    H244890   4.766   7.502   8.351  1.2865  0.1208 -1.5668
 6899TIP3   OH244891   0.970   5.947   8.765  0.3105  0.0693 -0.2160
 6899TIP3    H144892   0.909   6.002   8.815  1.0727  1.3006 -0.5992
 6899TIP3    H244893   1.016   5.896   8.832  1.2467  1.6257  0.3654
 6900TIP3   OH244894   5.595   4.589   9.157  0.0263 -0.6855 -0.1821
 6900TIP3    H144895   5.654   4.596   9.232  1.5435  1.9276 -1.4711
 6900TIP3    H244896   5.528   4.526   9.184  1.7155 -1.4624  2.4976
 6901TIP3   OH244897   4.357   8.198   8.882  0.5554 -0.2472 -0.5697
 6901TIP3    H144898   4.385   8.121   8.931  1.7246  0.4137 -0.1537
 6901TIP3    H244899   4.265   8.182   8.861  0.5284 -1.3245  0.3227
 6902TIP3   OH244900   4.988   6.204   9.375 -0.2495  0.1059 -0.2062
 6902TIP3    H144901   5.066   6.218   9.321 -0.8747  0.5131 -1.0293
 6902TIP3    H244902   5.011   6.131   9.432  0.4054 -0.4119 -1.1032
 6903TIP3   OH244903   2.617   5.081   7.983  0.0226  0.4073  0.1196
 6903TIP3    H144904   2.627   5.176   7.978  0.2273  0.3981  0.3594
 6903TIP3    H244905   2.703   5.046   7.959  0.1458  0.2968  0.7177
 6904TIP3   OH244906   3.519   7.269  10.339 -0.3897  0.6160 -0.0499
 6904TIP3    H144907   3.498   7.243  10.249 -0.0061 -0.8710  0.2498
 6904TIP3    H244908   3.467   7.210  10.393  1.8963 -0.9014  0.6774
 6905TIP3   OH244909   5.223   4.725   9.026  0.0026 -0.0065 -0.1083
 6905TIP3    H144910   5.316   4.738   9.007 -0.3105  1.7623 -0.6235
 6905TIP3    H244911   5.214   4.631   9.041  1.7138 -0.3310 -0.9286
 6906TIP3   OH244912   1.030   0.817   8.722 -0.1028  0.4815  0.1317
 6906TIP3    H144913   1.012   0.809   8.629  0.0945 -3.2186  0.2918
 6906TIP3    H244914   1.109   0.872   8.726 -1.1410  2.2527 -1.6588
 6907TIP3   OH244915   6.393   0.758   8.651 -0.0295 -0.8444 -0.0398
 6907TIP3    H144916   6.355   0.713   8.575  1.6428 -1.3878 -0.5911
 6907TIP3    H244917   6.404   0.848   8.623 -2.8499 -0.1114  0.8708
 6908TIP3   OH244918   0.815   7.110   9.054  0.3672 -0.8125 -0.4563
 6908TIP3    H144919   0.828   7.183   9.114 -0.2855 -0.2609 -0.9631
 6908TIP3    H244920   0.897   7.104   9.006  0.6307 -0.7856 -0.0119
 6909TIP3   OH244921   3.386   6.082   9.646  0.0652 -0.2908 -0.3354
 6909TIP3    H144922   3.326   6.046   9.710  1.2403 -0.0201  0.9663
 6909TIP3    H244923   3.461   6.022   9.647  1.3708  1.2731  0.7332
 6910TIP3   OH244924   1.005   8.260   9.036  0.2954 -0.1234  0.5006
 6910TIP3    H144925   1.090   8.227   9.063  1.4636  0.8316 -1.7450
 6910TIP3    H244926   0.975   8.198   8.970 -0.8805 -0.5538  1.4016
 6911TIP3   OH244927   4.352   1.850   7.876 -0.1186 -0.0684  0.4380
 6911TIP3    H144928   4.316   1.926   7.831 -1.9815 -1.1960 -0.0728
 6911TIP3    H244929   4.438   1.837   7.835 -0.4553  0.7755 -0.6020
 6912TIP3   OH244930   5.888   8.306   9.824 -0.2221 -0.4021 -0.1495
 6912TIP3    H144931   5.861   8.220   9.857 -0.8719 -0.6391 -1.2557
 6912TIP3    H244932   5.807   8.355   9.814  0.1578  0.3897  0.5773
 6913TIP3   OH244933   5.266   7.025   9.487 -0.0041  0.2766  0.1364
 6913TIP3    H144934   5.214   7.060   9.560  1.1892  2.1369  0.1790
 6913TIP3    H244935   5.243   7.081   9.412 -2.6085 -2.7213 -1.5544
 6914TIP3   OH244936   4.535   0.317   8.653  0.6276  0.3115  0.6322
 6914TIP3    H144937   4.465   0.373   8.619 -0.0312 -0.4091  0.7558
 6914TIP3    H244938   4.616   0.356   8.620  0.2595  1.8400  1.4554
 6915TIP3   OH244939   6.938   1.694   8.842 -0.1347 -0.1466 -0.0250
 6915TIP3    H144940   7.029   1.668   8.834  0.5481  2.3436 -1.2263
 6915TIP3    H244941   6.939   1.789   8.841 -2.6591 -0.0119  1.3365
 6916TIP3   OH244942   7.206   0.703   8.245  0.5329 -0.2783  0.3181
 6916TIP3    H144943   7.299   0.705   8.270  0.2556 -3.9184  2.3159
 6916TIP3    H244944   7.202   0.637   8.176 -0.8287 -2.3124  2.2290
 6917TIP3   OH244945   6.331   0.435   9.099 -0.1095 -0.0310 -0.2106
 6917TIP3    H144946   6.246   0.401   9.071 -0.7096  0.9489  0.3798
 6917TIP3    H244947   6.360   0.490   9.026 -0.0435 -0.2454 -0.3480
 6918TIP3   OH244948   5.921   7.366   8.699  0.1653  0.3328 -0.0587
 6918TIP3    H144949   5.993   7.377   8.637  1.8213 -1.3915  1.4152
 6918TIP3    H244950   5.951   7.412   8.778 -1.1560  1.0627  0.0514
 6919TIP3   OH244951   5.255   3.906   7.496  0.1399 -0.8841  0.0697
 6919TIP3    H144952   5.316   3.841   7.461  1.8560  0.2361  0.8355
 6919TIP3    H244953   5.307   3.956   7.559 -1.9678 -0.7998  1.8985
 6920TIP3   OH244954   6.659   0.967   9.538 -0.1333  0.1617  0.4073
 6920TIP3    H144955   6.721   0.895   9.550 -0.4255 -0.1705 -0.0380
 6920TIP3    H244956   6.650   1.006   9.625 -1.2901 -1.4162  1.0369
 6921TIP3   OH244957   2.186   2.819   9.400 -0.2374 -0.4955 -0.5268
 6921TIP3    H144958   2.209   2.870   9.478 -0.2412 -0.6375 -0.4339
 6921TIP3    H244959   2.121   2.873   9.355  1.6885  0.8758 -1.8405
 6922TIP3   OH244960   6.823   6.385   8.637  0.0200 -0.4964  0.2999
 6922TIP3    H144961   6.822   6.436   8.556  0.9981  0.1317  0.6724
 6922TIP3    H244962   6.750   6.324   8.627 -0.6119  0.3619 -0.5449
 6923TIP3   OH244963   7.250   3.733   9.687  0.0728 -0.1537  0.4384
 6923TIP3    H144964   7.335   3.763   9.654  0.0789 -1.1585 -0.5435
 6923TIP3    H244965   7.268   3.645   9.719 -0.4085  0.0011  1.1421
 6924TIP3   OH244966   5.299   1.884   8.608 -0.2524  0.3720 -0.0009
 6924TIP3    H144967   5.275   1.825   8.537  2.0597  0.2135 -0.7110
 6924TIP3    H244968   5.307   1.970   8.567  0.5667  0.3800  0.1630
 6925TIP3   OH244969   4.757   0.429   8.499  0.2492 -0.0826  0.2273
 6925TIP3    H144970   4.744   0.375   8.421  0.0215  1.2174 -0.6701
 6925TIP3    H244971   4.839   0.397   8.537  1.2546  0.3577 -1.4903
 6926TIP3   OH244972   2.538   5.217   9.308 -0.6321  0.2354  0.3369
 6926TIP3    H144973   2.587   5.208   9.390  0.3743 -0.9881 -0.3584
 6926TIP3    H244974   2.452   5.249   9.335 -0.1998  0.2054  1.8313
 6927TIP3   OH244975   2.051   3.947   8.883 -0.5953  0.1705  0.0795
 6927TIP3    H144976   2.070   3.908   8.969  2.2738  0.5196 -0.3046
 6927TIP3    H244977   1.967   3.909   8.858 -0.5167 -1.5507  2.1137
 6928TIP3   OH244978   8.352   1.970   8.051 -0.2140  0.0203  0.1960
 6928TIP3    H144979   8.289   1.927   7.994 -0.6915  0.3734  0.4594
 6928TIP3    H244980   8.304   2.042   8.091  0.6330  0.9363 -0.3896
 6929TIP3   OH244981   3.671   2.267   7.838 -0.4700 -0.2550  0.1122
 6929TIP3    H144982   3.736   2.295   7.903  0.5118  0.3242 -1.0848
 6929TIP3    H244983   3.707   2.186   7.801 -2.0137 -1.7575  1.6730
 6930TIP3   OH244984   3.413   5.225   9.505 -0.2166 -0.4597  0.3880
 6930TIP3    H144985   3.342   5.285   9.485 -0.5859 -0.9165  0.3070
 6930TIP3    H244986   3.489   5.260   9.458 -0.4332 -0.0781  0.3197
 6931TIP3   OH244987   2.765   0.057   8.978 -0.1921 -0.4016  0.0941
 6931TIP3    H144988   2.673   0.068   8.953 -0.1725 -0.8339 -0.1996
 6931TIP3    H244989   2.762   0.005   9.058 -0.2094 -0.2683  0.1798
 6932TIP3   OH244990   0.126   7.284   9.562 -0.5823 -0.3699 -0.1037
 6932TIP3    H144991   0.109   7.196   9.595 -0.3832 -0.3482  0.0656
 6932TIP3    H244992   0.222   7.291   9.562 -0.6132  0.1471  0.7013
 6933TIP3   OH244993   4.752   2.796   8.627 -0.6772  0.4195 -0.4766
 6933TIP3    H144994   4.845   2.777   8.610 -1.0760 -0.1157 -2.3055
 6933TIP3    H244995   4.749   2.821   8.719  1.1247 -0.5840 -0.0976
 6934TIP3   OH244996   3.386   3.084   8.727  0.1974 -0.0775  0.0029
 6934TIP3    H144997   3.475   3.107   8.752  0.0513  0.4800  0.0178
 6934TIP3    H244998   3.395   3.042   8.641  0.7764 -2.5846  1.1862
 6935TIP3   OH244999   7.483   0.455   8.022 -0.5487  0.0116 -0.5134
 6935TIP3    H145000   7.476   0.366   8.056 -1.1668 -0.1769 -1.1097
 6935TIP3    H245001   7.577   0.475   8.026 -0.5588 -0.1522  0.8781
 6936TIP3   OH245002   5.628   8.358   9.687 -0.2969  0.0297 -0.3899
 6936TIP3    H145003   5.615   8.350   9.782 -0.8126  0.0950 -0.4551
 6936TIP3    H245004   5.559   8.304   9.648  0.1235 -0.2711 -0.7254
 6937TIP3   OH245005   3.382   7.389   9.461 -0.2676  0.1957  0.1144
 6937TIP3    H145006   3.301   7.345   9.436 -1.0126  1.2503  0.6078
 6937TIP3    H245007   3.387   7.378   9.556  0.5998 -0.5466  0.0037
 6938TIP3   OH245008   0.471   5.971   8.793  0.1520 -0.0740 -0.1806
 6938TIP3    H145009   0.523   6.051   8.782  0.0520  0.1663  1.0116
 6938TIP3    H245010   0.456   5.941   8.703  0.8794  0.7940 -0.6184
 6939TIP3   OH245011   4.608   2.745   9.564  0.3268 -0.3130 -0.9423
 6939TIP3    H145012   4.531   2.789   9.600 -0.1230  0.6634 -2.9345
 6939TIP3    H245013   4.682   2.793   9.602 -0.0590 -0.5786  0.1698
 6940TIP3   OH245014   6.501   6.173   9.491 -0.2320 -0.4272 -0.2649
 6940TIP3    H145015   6.575   6.127   9.529 -0.1678  0.1053  0.2602
 6940TIP3    H245016   6.538   6.219   9.415  0.2939  0.9987  0.8196
 6941TIP3   OH245017   7.043   0.166   7.524 -0.3122  0.0391 -0.4497
 6941TIP3    H145018   7.075   0.222   7.596  0.6424 -1.8399  0.6624
 6941TIP3    H245019   7.123   0.136   7.480 -0.8578  0.4548 -1.7791
 6942TIP3   OH245020   0.584   5.474   8.393 -0.2138 -0.0843 -0.0124
 6942TIP3    H145021   0.613   5.428   8.472  3.1298  0.6412 -0.6663
 6942TIP3    H245022   0.548   5.556   8.425 -0.8059 -0.6689  0.8581
 6943TIP3   OH245023   5.664   6.840   9.349 -0.1897  0.0469 -0.0139
 6943TIP3    H145024   5.583   6.798   9.320  0.2436 -1.2711  0.6261
 6943TIP3    H245025   5.635   6.900   9.418 -0.8003  0.7617 -0.8652
 6944TIP3   OH245026   7.221   7.005   8.994 -0.2600  0.1732 -0.2888
 6944TIP3    H145027   7.265   6.923   8.969 -0.1585  0.1387 -0.0001
 6944TIP3    H245028   7.292   7.060   9.028 -0.1852  0.7030 -1.2753
 6945TIP3   OH245029   2.205   4.730   8.405 -0.1953  0.2803 -0.2267
 6945TIP3    H145030   2.301   4.728   8.400  0.0872  4.3436 -0.5694
 6945TIP3    H245031   2.186   4.761   8.493 -0.9744  1.6913 -0.8407
 6946TIP3   OH245032   4.115   2.145   8.574  0.0279 -0.1449 -0.4642
 6946TIP3    H145033   4.075   2.060   8.555 -0.5439  0.3642 -1.6334
 6946TIP3    H245034   4.051   2.188   8.631 -0.7930  0.3847 -1.7464
 6947TIP3   OH245035   6.723   0.631   8.468 -0.6721  0.2910  0.2386
 6947TIP3    H145036   6.695   0.588   8.549 -1.4974 -0.3435 -0.3661
 6947TIP3    H245037   6.810   0.666   8.488 -1.9643  2.6723  2.3341
 6948TIP3   OH245038   6.130   8.403   8.817 -0.4122  0.1177  0.8471
 6948TIP3    H145039   6.090   8.477   8.771  0.7759  0.0404 -0.3803
 6948TIP3    H245040   6.061   8.371   8.875 -1.6387  0.8853 -0.1248
 6949TIP3   OH245041   6.501   1.536   8.321 -0.1770  0.1744  0.3467
 6949TIP3    H145042   6.413   1.523   8.357 -1.2692  1.8647 -1.4922
 6949TIP3    H245043   6.514   1.461   8.263 -0.0232 -0.5419  1.2958
 6950TIP3   OH245044   0.924   4.382   9.320 -0.0260  0.2505  0.8403
 6950TIP3    H145045   0.840   4.348   9.288  0.6748 -0.8042  0.0512
 6950TIP3    H245046   0.901   4.460   9.371 -1.5089 -0.2336  0.9441
 6951TIP3   OH245047   2.916   0.594   8.455 -0.1659 -0.4849 -0.5302
 6951TIP3    H145048   2.971   0.592   8.376  0.7587 -0.8133  0.1090
 6951TIP3    H245049   2.843   0.650   8.431 -0.3503 -1.2721 -1.9172
 6952TIP3   OH245050   0.914   3.904   9.014  0.6002 -0.1387 -0.2764
 6952TIP3    H145051   0.930   3.951   9.096  0.9241 -0.7818  0.0434
 6952TIP3    H245052   0.923   3.812   9.038 -0.5939 -0.4024 -0.7583
 6953TIP3   OH245053   1.009   4.670   7.772  0.1923  0.5364  0.2373
 6953TIP3    H145054   1.072   4.658   7.843  0.2468 -3.4049 -0.2502
 6953TIP3    H245055   0.924   4.662   7.815  0.2022 -0.4054  0.1084
 6954TIP3   OH245056   0.654   3.485   9.374  0.2932 -0.1916  0.2767
 6954TIP3    H145057   0.569   3.481   9.417  0.4968  0.4669  0.7642
 6954TIP3    H245058   0.699   3.405   9.401 -0.1619 -0.5304  0.0316
 6955TIP3   OH245059   3.623   6.765   8.882 -0.4191 -0.2286 -0.9298
 6955TIP3    H145060   3.566   6.755   8.806 -2.2998 -0.9848  0.5379
 6955TIP3    H245061   3.633   6.677   8.918 -0.2604  0.2298  0.1990
 6956TIP3   OH245062   7.610   5.705   9.675 -0.0987  0.6006  0.2115
 6956TIP3    H145063   7.610   5.652   9.596  0.7399 -1.2269  1.3656
 6956TIP3    H245064   7.564   5.785   9.650 -0.1154 -0.0343 -2.0152
 6957TIP3   OH245065   7.857   5.763   9.225  0.3532 -0.1508 -0.0163
 6957TIP3    H145066   7.802   5.689   9.199 -1.3545  1.1729 -0.3852
 6957TIP3    H245067   7.899   5.735   9.306  0.7530 -1.9662 -0.7941
 6958TIP3   OH245068   1.064   6.386   8.722  0.2659 -0.1807  0.1408
 6958TIP3    H145069   1.028   6.458   8.670  0.3460  0.3191  0.7695
 6958TIP3    H245070   1.122   6.340   8.661 -0.2524 -0.0836 -0.4406
 6959TIP3   OH245071   2.655   6.766   8.721  0.3717  0.2038 -0.6025
 6959TIP3    H145072   2.741   6.799   8.745 -0.7027  2.4129  0.4523
 6959TIP3    H245073   2.611   6.840   8.679 -2.0217  0.1500  1.5291
 6960TIP3   OH245074   1.161   3.011   7.725 -0.4011 -0.1482  0.1572
 6960TIP3    H145075   1.160   2.919   7.701 -0.1058 -0.3096  0.7524
 6960TIP3    H245076   1.115   3.055   7.653 -1.4740 -0.8713  0.3837
 6961TIP3   OH245077   1.578   1.053   8.523 -0.0697  0.0351  0.2750
 6961TIP3    H145078   1.618   1.033   8.438 -0.3435  1.9942 -0.3721
 6961TIP3    H245079   1.587   1.148   8.531 -0.1588 -0.0933  2.4054
 6962TIP3   OH245080   2.498   2.893   7.908  0.0155 -0.0620 -0.0586
 6962TIP3    H145081   2.560   2.836   7.863  0.2359 -0.0424  0.2186
 6962TIP3    H245082   2.541   2.979   7.909 -0.4057  0.1620 -0.6639
 6963TIP3   OH245083   3.473   5.210   8.901  0.5798 -0.2369 -0.3765
 6963TIP3    H145084   3.464   5.146   8.830  1.0620 -1.0994  0.3066
 6963TIP3    H245085   3.541   5.173   8.957 -0.2030  0.1297  0.8492
 6964TIP3   OH245086   1.942   7.830   9.458  0.1965  0.8218  0.2045
 6964TIP3    H145087   2.033   7.849   9.436 -0.0066  2.7715  0.8371
 6964TIP3    H245088   1.941   7.736   9.474  0.8810 -0.4174 -5.2655
 6965TIP3   OH245089   1.838   4.545   8.262 -0.2132  0.4877  0.3497
 6965TIP3    H145090   1.905   4.601   8.222  0.6075 -0.6883  0.0406
 6965TIP3    H245091   1.800   4.497   8.188 -1.1535  0.8643  0.5689
 6966TIP3   OH245092   0.040   6.635   8.981  0.5198 -0.2049 -0.1846
 6966TIP3    H145093   0.037   6.589   9.065  2.0758  1.4805  0.8571
 6966TIP3    H245094   0.132   6.629   8.954  0.4184  0.8935 -0.8172
 6967TIP3   OH245095   3.830   8.357   8.893  0.0789  0.1907 -0.0329
 6967TIP3    H145096   3.816   8.286   8.956 -1.2332 -0.7509 -1.3181
 6967TIP3    H245097   3.896   8.322   8.833  0.9552  0.8895  0.5015
 6968TIP3   OH245098   0.229   3.978   8.243  0.1176 -0.0265  0.5157
 6968TIP3    H145099   0.145   3.992   8.286 -1.5391 -0.3536 -2.3441
 6968TIP3    H245100   0.237   4.051   8.181  0.8667 -1.1765 -0.7947
 6969TIP3   OH245101   7.023   2.365   8.416  0.1602  0.4916  0.2523
 6969TIP3    H145102   6.990   2.405   8.496  0.2357 -0.7176  0.9094
 6969TIP3    H245103   7.109   2.331   8.440  1.1394  2.0008 -0.9490
 6970TIP3   OH245104   5.082   0.101   9.875  0.1822  0.6497  0.8029
 6970TIP3    H145105   5.105   0.010   9.861  0.1350  1.0701 -3.6384
 6970TIP3    H245106   5.165   0.146   9.887  0.4571  0.3322  0.1284
 6971TIP3   OH245107   0.577   6.991   9.143 -0.6229  0.3881  0.0418
 6971TIP3    H145108   0.660   7.020   9.105  0.2337  0.3861  1.8130
 6971TIP3    H245109   0.510   7.030   9.086  0.5287 -0.6761 -2.2083
 6972TIP3   OH245110   0.376   1.382   9.869  0.5541  0.2101  0.0431
 6972TIP3    H145111   0.318   1.368   9.944  0.0708  0.1464 -0.3387
 6972TIP3    H245112   0.450   1.323   9.885  1.1879  1.2775  1.2160
 6973TIP3   OH245113   7.607   6.855   8.975  0.4213 -0.3718 -0.3580
 6973TIP3    H145114   7.685   6.848   8.921  0.4419  2.5349 -0.8813
 6973TIP3    H245115   7.544   6.794   8.935  1.5998 -0.9190 -1.4348
 6974TIP3   OH245116   2.762   7.324   8.829  0.4269 -0.0776  0.9347
 6974TIP3    H145117   2.821   7.332   8.754  0.4852 -1.3982  0.8293
 6974TIP3    H245118   2.810   7.364   8.902  0.7458  0.3770  0.4804
 6975TIP3   OH245119   4.313   5.805   9.215 -0.9213  0.0935 -0.2206
 6975TIP3    H145120   4.318   5.856   9.134 -1.4555 -0.3650 -0.5461
 6975TIP3    H245121   4.302   5.871   9.284  0.9783  0.5959 -0.3368
 6976TIP3   OH245122   1.864   2.194   8.383  0.0242  0.1797  0.0252
 6976TIP3    H145123   1.801   2.265   8.392 -0.8092 -0.3390 -1.4348
 6976TIP3    H245124   1.933   2.229   8.327 -0.2995 -0.0914 -0.5522
 6977TIP3   OH245125   7.605   1.354   8.885  0.6208 -0.4393  0.4960
 6977TIP3    H145126   7.607   1.450   8.874  0.8640 -0.4427  0.5248
 6977TIP3    H245127   7.596   1.341   8.979 -2.7101 -0.3814  0.3382
 6978TIP3   OH245128   7.174   7.806   8.702  0.5118 -0.0480  0.0099
 6978TIP3    H145129   7.105   7.861   8.740 -0.6563 -1.8729  0.7259
 6978TIP3    H245130   7.173   7.827   8.609 -4.0313 -2.7789 -0.8763
 6979TIP3   OH245131   0.500   1.797   8.952 -0.4107 -0.2760 -0.2814
 6979TIP3    H145132   0.501   1.861   8.881 -1.7187 -0.7957 -0.7924
 6979TIP3    H245133   0.507   1.712   8.908 -0.2106 -0.5547  0.2817
 6980TIP3   OH245134   4.150   5.575   7.851  0.1603 -0.0239 -0.5461
 6980TIP3    H145135   4.244   5.587   7.837  0.4675 -0.4544  1.0105
 6980TIP3    H245136   4.127   5.635   7.922 -0.4602 -0.8864  0.0031
 6981TIP3   OH245137   4.863   3.865   7.895  0.1065  0.1429  0.4220
 6981TIP3    H145138   4.890   3.955   7.876 -0.9179  0.8630  2.1411
 6981TIP3    H245139   4.900   3.814   7.824  0.1030  2.0175 -1.0171
 6982TIP3   OH245140   2.224   6.161   8.916 -0.6652 -0.7631  0.5581
 6982TIP3    H145141   2.215   6.170   9.011 -0.5078 -1.3486  0.6289
 6982TIP3    H245142   2.298   6.102   8.904 -0.0170  0.1133  0.0500
 6983TIP3   OH245143   2.425   0.842   9.002 -0.3071 -0.5133 -0.0728
 6983TIP3    H145144   2.361   0.776   8.975  0.2691 -0.9691 -0.3447
 6983TIP3    H245145   2.378   0.925   8.994 -1.3409 -0.9362  1.1454
 6984TIP3   OH245146   0.673   1.156   7.566  0.0314  0.0012  0.4432
 6984TIP3    H145147   0.640   1.093   7.502  1.8734 -0.0607 -0.5000
 6984TIP3    H245148   0.601   1.166   7.629 -1.2186 -1.1547 -0.7372
 6985TIP3   OH245149   6.861   7.543   8.290 -0.4153 -0.7089 -0.1414
 6985TIP3    H145150   6.944   7.586   8.309 -1.6864  1.2941  1.0840
 6985TIP3    H245151   6.798   7.614   8.282 -1.8123 -2.0763 -2.4857
 6986TIP3   OH245152   7.824   4.690   8.232 -0.1017  0.2538  0.5267
 6986TIP3    H145153   7.842   4.756   8.165 -0.3349  0.4510  0.6563
 6986TIP3    H245154   7.874   4.719   8.308  0.4920 -0.1945  0.3080
 6987TIP3   OH245155   3.196   5.375   9.249 -0.0634  0.1080  0.4170
 6987TIP3    H145156   3.230   5.432   9.317 -0.1436  0.2555  0.3336
 6987TIP3    H245157   3.122   5.424   9.211 -0.6659 -0.3960  0.9076
 6988TIP3   OH245158   5.657   6.948   8.093 -0.3915 -0.4116 -0.2201
 6988TIP3    H145159   5.724   6.896   8.048  0.3359  0.3744 -0.0848
 6988TIP3    H245160   5.588   6.959   8.028  0.3914  0.2193 -0.9810
 6989TIP3   OH245161   4.489   7.294   9.211 -0.0408  0.0933 -0.0326
 6989TIP3    H145162   4.529   7.266   9.293 -0.4358 -0.1278  0.0884
 6989TIP3    H245163   4.488   7.215   9.157 -0.0452  0.1700 -0.1460
 6990TIP3   OH245164   3.632   4.921   9.112 -0.4619 -0.3369  0.0080
 6990TIP3    H145165   3.591   4.843   9.074  1.8812 -1.6764  0.0268
 6990TIP3    H245166   3.668   4.891   9.195  0.4440  0.7781  0.0394
 6991TIP3   OH245167   2.178   1.863   9.458  0.3344 -0.2382 -0.0253
 6991TIP3    H145168   2.133   1.802   9.516  0.0831  0.4898  0.5729
 6991TIP3    H245169   2.202   1.811   9.381 -0.1506 -1.0017  0.3274
 6992TIP3   OH245170   3.988   4.244   8.865 -0.2249 -0.0729 -0.0960
 6992TIP3    H145171   3.901   4.225   8.829 -0.9789 -0.2056  1.6930
 6992TIP3    H245172   3.975   4.323   8.918  0.8608  0.1678 -0.1661
 6993TIP3   OH245173   3.483   8.235   9.434 -0.1645  0.1242  0.3138
 6993TIP3    H145174   3.511   8.250   9.344  0.3000  0.8557  0.5691
 6993TIP3    H245175   3.417   8.302   9.450 -0.1930  0.0431  0.5416
 6994TIP3   OH245176   2.376   5.177   8.962  0.5407 -0.7060 -0.0236
 6994TIP3    H145177   2.427   5.168   8.882  0.3127 -1.0541 -0.1333
 6994TIP3    H245178   2.418   5.119   9.025  0.0248 -1.3267 -0.2458
 6995TIP3   OH245179   3.510   4.440   8.820  0.2552  0.7554 -0.2377
 6995TIP3    H145180   3.461   4.383   8.761  0.9341 -0.2685  0.1737
 6995TIP3    H245181   3.539   4.383   8.890  0.5233  1.7126  0.4533
 6996TIP3   OH245182   1.727   4.023   7.901 -0.1604  0.0819  0.0248
 6996TIP3    H145183   1.639   4.030   7.938 -0.2095  0.8894 -0.2243
 6996TIP3    H245184   1.771   3.957   7.955 -0.4438  0.7466  1.1097
 6997TIP3   OH245185   4.944   2.036   7.873  0.0928 -0.6683  0.5986
 6997TIP3    H145186   5.021   2.093   7.881  0.7063 -1.4336  0.2746
 6997TIP3    H245187   4.884   2.068   7.940  0.9680 -0.4760  1.3109
 6998TIP3   OH245188   0.545   3.146   9.209  0.0739  0.0540  0.3663
 6998TIP3    H145189   0.602   3.071   9.226  2.3007  1.0555 -1.9339
 6998TIP3    H245190   0.595   3.222   9.240 -1.3991  0.7702  1.1023
 6999TIP3   OH245191   7.435   6.771   9.517 -0.1731  0.7442 -0.0718
 6999TIP3    H145192   7.410   6.679   9.527  0.5776  0.6627  1.4115
 6999TIP3    H245193   7.451   6.781   9.423 -0.2864 -0.6346 -0.2678
 7000TIP3   OH245194   4.178   5.580   9.292  0.0227 -0.0139 -0.3462
 7000TIP3    H145195   4.091   5.594   9.253  0.1021  1.8149  0.0724
 7000TIP3    H245196   4.228   5.658   9.269  0.7733  0.0874  1.5149
 7001TIP3   OH245197   1.566   4.458   8.777  0.6361  0.0873  0.7446
 7001TIP3    H145198   1.492   4.514   8.754  0.1739 -0.5773  0.5632
 7001TIP3    H245199   1.583   4.476   8.869  0.9051  0.9835  0.5231
 7002TIP3   OH245200   6.497   7.339  10.555 -0.4636 -0.4617  0.3274
 7002TIP3    H145201   6.425   7.370  10.610 -0.1431  2.7215 -0.8115
 7002TIP3    H245202   6.454   7.291  10.484 -1.2969 -0.2557  0.6846
 7003TIP3   OH245203   7.716   5.314   8.182  0.0813 -0.7340 -0.2144
 7003TIP3    H145204   7.789   5.297   8.122  0.2188  0.0889 -0.2929
 7003TIP3    H245205   7.650   5.249   8.159  0.6315 -1.2287 -0.4175
 7004TIP3   OH245206   6.604   5.799   9.795  0.5478 -0.5231  0.2074
 7004TIP3    H145207   6.547   5.730   9.828 -1.7558  0.9030 -0.6018
 7004TIP3    H245208   6.643   5.837   9.874  0.1820 -1.3464  0.8056
 7005TIP3   OH245209   7.077   1.332   9.190  0.2807 -0.2331 -0.6029
 7005TIP3    H145210   7.037   1.293   9.112  0.4521 -0.7191 -0.4515
 7005TIP3    H245211   7.002   1.359   9.243  0.0562 -2.6318  0.4403
 7006TIP3   OH245212   6.897   8.101   9.853  0.4339 -0.5502  0.3634
 7006TIP3    H145213   6.926   8.061   9.935  0.6590 -0.4813  0.3169
 7006TIP3    H245214   6.807   8.070   9.843  0.1886 -0.0445  0.9617
 7007TIP3   OH245215   3.464   7.647   9.422 -0.1312 -0.1512  0.3976
 7007TIP3    H145216   3.452   7.552   9.425 -0.5467 -0.0911  0.6865
 7007TIP3    H245217   3.422   7.680   9.501 -0.4944  0.3278  0.0155
 7008TIP3   OH245218   1.162   0.430   9.778  0.4679 -0.5302 -0.5585
 7008TIP3    H145219   1.110   0.477   9.842  0.6832  0.1998 -0.8976
 7008TIP3    H245220   1.244   0.409   9.824 -0.4021 -2.4171  0.2372
 7009TIP3   OH245221   0.984   7.098   8.732  0.4348 -0.2485  0.1760
 7009TIP3    H145222   0.933   7.179   8.719  1.9654  1.0685  1.9002
 7009TIP3    H245223   1.074   7.123   8.709  1.0941 -1.1755  1.6469
 7010TIP3   OH245224   7.281   8.325   8.840  0.4265 -0.2780 -0.0220
 7010TIP3    H145225   7.277   8.310   8.746 -1.6405 -0.0454 -0.0085
 7010TIP3    H245226   7.212   8.389   8.857  0.3262 -0.8125  1.7434
 7011TIP3   OH245227   5.245   2.560   8.132 -0.0453  0.1778 -0.4423
 7011TIP3    H145228   5.246   2.655   8.116 -1.3231  0.0470 -1.4851
 7011TIP3    H245229   5.310   2.525   8.071 -0.8902  0.2347 -1.4141
 7012TIP3   OH245230   5.622   1.766   8.096 -0.4208  0.0431 -0.1915
 7012TIP3    H145231   5.552   1.706   8.068  0.1476 -0.7347  0.0246
 7012TIP3    H245232   5.702   1.727   8.061 -0.2047  1.6046 -1.5415
 7013TIP3   OH245233   5.764   4.302   9.862  0.0969  0.2184  0.4629
 7013TIP3    H145234   5.850   4.337   9.838 -0.2258 -0.4893 -1.8986
 7013TIP3    H245235   5.703   4.373   9.845 -0.1219 -0.2511 -0.7699
 7014TIP3   OH245236   4.750   5.027   7.854 -0.4886 -0.0784  0.9500
 7014TIP3    H145237   4.754   5.120   7.875  1.8616  0.5327 -1.6799
 7014TIP3    H245238   4.841   4.997   7.859 -1.2031 -2.3602  1.9361
 7015TIP3   OH245239   5.154   2.196   7.968 -0.1730 -0.1215 -0.1503
 7015TIP3    H145240   5.211   2.270   7.947 -0.9253  0.1051 -1.5293
 7015TIP3    H245241   5.213   2.131   8.007  0.4495  1.2694  1.3456
 7016TIP3   OH245242   5.013   6.279   8.059  0.1797 -0.2985 -0.0450
 7016TIP3    H145243   4.928   6.268   8.016  0.5507 -0.4735 -0.7412
 7016TIP3    H245244   5.047   6.361   8.023  0.3069 -0.2262  0.2373
 7017TIP3   OH245245   5.789   3.692   9.571 -0.4703 -0.1254 -0.2475
 7017TIP3    H145246   5.696   3.669   9.570 -0.6144  0.4413 -0.5749
 7017TIP3    H245247   5.814   3.687   9.664 -1.0192  0.4291 -0.0592
 7018TIP3   OH245248   7.897   5.757   9.516  0.2289 -0.3559 -0.4384
 7018TIP3    H145249   7.821   5.703   9.535  0.5394 -0.9407 -0.8181
 7018TIP3    H245250   7.971   5.705   9.548  0.4074  0.6043  0.7665
 7019TIP3   OH245251   2.867   3.435   7.579  0.5910 -0.3003 -0.2729
 7019TIP3    H145252   2.958   3.446   7.605  0.9803  2.9106 -2.4659
 7019TIP3    H245253   2.816   3.459   7.656  1.4439 -3.3052  1.3818
 7020TIP3   OH245254   5.980   6.537   9.629  0.0794  0.1584  0.4219
 7020TIP3    H145255   5.918   6.591   9.678 -0.0791  0.0756  0.3112
 7020TIP3    H245256   5.986   6.579   9.543 -1.2840 -0.9112 -0.2299
 7021TIP3   OH245257   4.612   8.392   8.370 -0.7529  0.0806 -0.6901
 7021TIP3    H145258   4.580   8.323   8.427 -0.2326  0.3868 -0.0040
 7021TIP3    H245259   4.578   8.371   8.284  0.6680 -1.9061 -0.8347
 7022TIP3   OH245260   4.614   7.661   9.936 -0.3154  0.6366 -0.1207
 7022TIP3    H145261   4.657   7.664   9.850 -1.0095 -0.5566 -0.5355
 7022TIP3    H245262   4.530   7.619   9.919  0.4528 -1.7910  1.4955
 7023TIP3   OH245263   0.943   1.203   8.730  0.3846 -0.3294  0.2531
 7023TIP3    H145264   0.937   1.121   8.778 -0.6306 -0.8532 -0.7019
 7023TIP3    H245265   1.016   1.250   8.770 -1.2555 -0.1029  3.2312
 7024TIP3   OH245266   2.430   0.881   8.406 -0.7944  0.1427  0.0360
 7024TIP3    H145267   2.525   0.877   8.407 -0.5414  3.4254  0.1529
 7024TIP3    H245268   2.403   0.828   8.481  0.9917 -0.0587  0.5811
 7025TIP3   OH245269   0.570   2.927   8.412  0.7852  0.4465  0.3710
 7025TIP3    H145270   0.566   3.018   8.384  1.0908  1.0193  2.0386
 7025TIP3    H245271   0.519   2.924   8.493  2.1370 -0.4626  1.2502
 7026TIP3   OH245272   3.498   6.075   7.935 -0.4360 -0.2058  0.4976
 7026TIP3    H145273   3.410   6.070   7.973 -0.4266 -0.1575  0.5255
 7026TIP3    H245274   3.511   5.990   7.893 -0.7689  0.0277 -0.0923
 7027TIP3   OH245275   8.344   5.500   8.309  0.3405  0.3028  0.6078
 7027TIP3    H145276   8.280   5.570   8.320 -1.6514 -1.3167 -0.0080
 7027TIP3    H245277   8.421   5.529   8.359 -1.4167  1.6784  2.6938
 7028TIP3   OH245278   5.345   3.847   8.592  0.0881  1.0282  0.1390
 7028TIP3    H145279   5.354   3.791   8.515 -2.0436 -0.2207  0.7267
 7028TIP3    H245280   5.398   3.804   8.659 -1.4601 -0.3126  0.5599
 7029TIP3   OH245281   5.903   7.445   9.159 -0.3681 -0.2426 -0.4703
 7029TIP3    H145282   5.874   7.532   9.186 -0.6156 -0.3581 -0.3659
 7029TIP3    H245283   5.921   7.399   9.240 -2.2480 -0.9826 -0.4467
 7030TIP3   OH245284   4.426   4.644   9.407 -0.4955  0.3047 -0.6452
 7030TIP3    H145285   4.405   4.602   9.324  0.4984  0.5474 -1.0302
 7030TIP3    H245286   4.406   4.736   9.394 -0.5490  0.3084 -0.5395
 7031TIP3   OH245287   5.403   2.588   9.464 -0.2468 -0.0059  0.2908
 7031TIP3    H145288   5.312   2.589   9.495 -0.8745 -0.9623 -1.3309
 7031TIP3    H245289   5.400   2.531   9.386  1.7178  0.0788  0.1108
 7032TIP3   OH245290   6.378   6.331   8.440  0.4213 -0.3089 -0.0599
 7032TIP3    H145291   6.336   6.294   8.363 -1.2425  1.9189 -0.3175
 7032TIP3    H245292   6.319   6.307   8.513  1.4012 -1.4468  0.3945
 7033TIP3   OH245293   2.603   1.023   9.810  0.2474 -0.0111  0.0263
 7033TIP3    H145294   2.635   1.092   9.752  0.8955  1.5790  2.1250
 7033TIP3    H245295   2.544   0.971   9.756 -0.2313  2.1654 -1.6925
 7034TIP3   OH245296   7.285   1.742   7.993  0.1685  0.2136  0.0643
 7034TIP3    H145297   7.193   1.739   8.020  0.5219 -0.1183  1.2718
 7034TIP3    H245298   7.290   1.679   7.921 -0.7348  0.9217 -0.6493
 7035TIP3   OH245299   5.166   2.569   9.169 -0.6159  0.0267  0.2343
 7035TIP3    H145300   5.170   2.530   9.082  0.6806 -1.3559  0.8781
 7035TIP3    H245301   5.178   2.496   9.229  1.6640  1.3273  1.4933
 7036TIP3   OH245302   5.410   3.798   8.312  0.1529 -0.2565 -0.4607
 7036TIP3    H145303   5.426   3.875   8.258 -0.2829 -1.0035 -1.7121
 7036TIP3    H245304   5.496   3.763   8.332  0.3355  0.3124 -0.2615
 7037TIP3   OH245305   2.617   3.606   7.965 -0.1785  0.4780 -0.5850
 7037TIP3    H145306   2.689   3.609   7.901 -0.3306 -0.1185 -0.7894
 7037TIP3    H245307   2.661   3.602   8.050  0.0303  0.3621 -0.6977
 7038TIP3   OH245308   2.352   7.833  13.550  0.2255 -0.3969 -0.4843
 7038TIP3    H145309   2.389   7.795  13.630  0.4666  1.8628  0.5739
 7038TIP3    H245310   2.279   7.777  13.528 -1.3723  0.1764  2.7526
 7039TIP3   OH245311   0.647   3.421   8.553 -0.2018  0.0640  0.4678
 7039TIP3    H145312   0.651   3.507   8.596 -1.2102 -0.2997  1.3424
 7039TIP3    H245313   0.736   3.387   8.560  0.0352  0.7228  0.7953
 7040TIP3   OH245314   6.687   5.245   7.751  0.3218  0.1116 -0.0579
 7040TIP3    H145315   6.640   5.243   7.667  0.8759 -0.9381 -0.3738
 7040TIP3    H245316   6.630   5.198   7.812  0.1658  0.3887  0.0087
 7041TIP3   OH245317   8.005   0.308   8.019 -0.2373 -0.0941  0.5250
 7041TIP3    H145318   8.018   0.259   8.100 -0.1416  1.1855  1.3182
 7041TIP3    H245319   7.970   0.244   7.957  0.1842 -1.2176  1.4125
 7042TIP3   OH245320   1.834   7.639   7.635 -0.0090  0.4195 -0.1429
 7042TIP3    H145321   1.844   7.728   7.668 -1.7462  0.0180  1.6049
 7042TIP3    H245322   1.922   7.614   7.608  0.5630  2.5517 -0.4520
 7043TIP3   OH245323   6.079   5.888  10.384 -0.1893 -0.6030 -0.3820
 7043TIP3    H145324   6.065   5.796  10.361  0.3138 -0.7601 -0.0925
 7043TIP3    H245325   6.001   5.913  10.433 -1.8850  0.1136 -3.2355
 7044TIP3   OH245326   6.968   2.881   8.168  0.1633  0.7384 -0.0832
 7044TIP3    H145327   7.017   2.841   8.240 -0.5366  0.7335  0.4030
 7044TIP3    H245328   6.883   2.837   8.170  0.4012  0.1694 -1.4285
 7045TIP3   OH245329   6.216   4.660   8.260 -0.7974  0.0730  0.3920
 7045TIP3    H145330   6.233   4.597   8.190 -0.0810 -0.3298  0.9135
 7045TIP3    H245331   6.274   4.734   8.241 -2.4561  1.1296 -0.8651
 7046TIP3   OH245332   0.221   3.117   8.679  0.1154 -0.5985 -0.3889
 7046TIP3    H145333   0.182   3.145   8.762 -0.0719 -0.0724 -0.6487
 7046TIP3    H245334   0.281   3.187   8.655  1.8458 -1.7319  0.3793
 7047TIP3   OH245335   5.492   3.499   9.046 -0.1105  0.1654 -0.8754
 7047TIP3    H145336   5.490   3.543   9.131 -1.0701 -1.1941 -0.1647
 7047TIP3    H245337   5.487   3.570   8.982  0.6820  1.2168  0.1849
 7048TIP3   OH245338   0.535   7.490   8.485  0.4236  0.4183 -0.0744
 7048TIP3    H145339   0.586   7.461   8.561  0.2126  1.2212  0.3795
 7048TIP3    H245340   0.470   7.420   8.472 -0.7509  1.1358  1.6511
 7049TIP3   OH245341   4.393   5.379   8.165  0.0399 -0.0549 -0.0961
 7049TIP3    H145342   4.303   5.353   8.184  0.3835 -0.4175  1.1866
 7049TIP3    H245343   4.420   5.427   8.244  0.4690  1.4270 -1.1027
 7050TIP3   OH245344   7.531   0.647  10.445  0.2721 -0.1795 -0.2458
 7050TIP3    H145345   7.457   0.615  10.392  0.4375 -2.1400  0.6065
 7050TIP3    H245346   7.563   0.569  10.490  2.2500  0.8185  0.1759
 7051TIP3   OH245347   2.342   0.377   9.348  0.1645 -0.0326 -0.2960
 7051TIP3    H145348   2.267   0.323   9.325  0.8902 -2.1609  1.9246
 7051TIP3    H245349   2.414   0.343   9.295  0.4619 -0.8784  0.6074
 7052TIP3   OH245350   5.738   2.023   8.065 -0.5469 -0.4770  0.5444
 7052TIP3    H145351   5.669   1.959   8.045 -0.2625 -0.6437  0.0798
 7052TIP3    H245352   5.790   1.981   8.134  0.0494 -1.0610 -0.2342
 7053TIP3   OH245353   6.391   2.456   9.002  0.0430  0.0236 -0.1716
 7053TIP3    H145354   6.465   2.453   9.064  0.1389  0.5830 -0.2460
 7053TIP3    H245355   6.415   2.393   8.934  0.2711 -0.0847  0.0039
 7054TIP3   OH245356   8.165   2.162   8.115  0.5562  0.0747  0.4348
 7054TIP3    H145357   8.183   2.234   8.054  1.4302  0.1113  0.7220
 7054TIP3    H245358   8.070   2.163   8.126  0.5023  0.7998 -0.0345
 7055TIP3   OH245359   7.202   8.140   9.047  0.0850 -0.1494  0.1636
 7055TIP3    H145360   7.212   8.106   8.958 -0.6607  1.2094 -0.4665
 7055TIP3    H245361   7.222   8.234   9.040 -0.2506  0.0388  1.3737
 7056TIP3   OH245362   8.306   2.653   7.980  0.3113 -0.0025 -0.1139
 7056TIP3    H145363   8.317   2.661   8.075 -0.7427  1.0487 -0.0645
 7056TIP3    H245364   8.393   2.627   7.948  0.6240 -0.6025  1.1480
 7057TIP3   OH245365   7.772   3.582   9.955 -0.6431 -0.1133 -0.1913
 7057TIP3    H145366   7.799   3.593   9.864 -0.5794  1.4413 -0.0206
 7057TIP3    H245367   7.803   3.495   9.980  3.5734  1.1697 -0.2458
 7058TIP3   OH245368   2.452   3.256   7.537  0.3125  0.2286 -0.4603
 7058TIP3    H145369   2.519   3.322   7.555  0.0413  0.3015  0.3142
 7058TIP3    H245370   2.369   3.300   7.554  0.1505 -0.5317  0.8720
 7059TIP3   OH245371   5.004   0.546   8.340  0.3166  0.4386 -0.1390
 7059TIP3    H145372   4.942   0.563   8.411  0.8266 -0.5214  0.5525
 7059TIP3    H245373   4.952   0.505   8.271  0.0558  0.2303  0.1830
 7060TIP3   OH245374   4.694   4.344   8.022  0.2607  0.2617 -0.4863
 7060TIP3    H145375   4.787   4.360   8.036  0.1556  0.3970  0.0990
 7060TIP3    H245376   4.656   4.345   8.110  0.1288 -2.4319 -0.4381
 7061TIP3   OH245377   8.029   6.726   8.376  0.1401  0.0334 -0.1613
 7061TIP3    H145378   8.044   6.750   8.467  0.7305 -0.3954 -0.1396
 7061TIP3    H245379   8.024   6.809   8.329 -1.3586  0.3142  0.4256
 7062TIP3   OH245380   0.205   6.641   8.397 -0.0686  0.1083  0.6359
 7062TIP3    H145381   0.156   6.633   8.479 -1.2309  0.5597  0.0081
 7062TIP3    H245382   0.185   6.560   8.350 -1.1780  0.8009 -0.1161
 7063TIP3   OH245383   5.866   5.725   9.557 -0.2020 -0.2570 -0.2598
 7063TIP3    H145384   5.841   5.695   9.469  0.6893 -0.3197 -0.4984
 7063TIP3    H245385   5.835   5.655   9.615  0.8430 -1.1185 -0.7098
 7064TIP3   OH245386   7.737   4.793   9.232  0.3081  0.5329 -0.1797
 7064TIP3    H145387   7.817   4.804   9.284  0.6705  1.2651 -0.8787
 7064TIP3    H245388   7.669   4.835   9.284  0.5323  0.6137  0.0516
 7065TIP3   OH245389   8.380   8.007   8.027  0.0439  0.2505  0.2611
 7065TIP3    H145390   8.430   7.972   7.953 -2.1346  0.2055 -1.2771
 7065TIP3    H245391   8.358   8.097   8.001 -0.1152  0.5005  1.2007
 7066TIP3   OH245392   0.001   5.879   9.760  0.1174  0.3709  0.0626
 7066TIP3    H145393   0.024   5.918   9.844  1.0385 -1.4599  0.7203
 7066TIP3    H245394  -0.085   5.838   9.776  0.6795 -0.7177  0.4116
 7067TIP3   OH245395   5.378   3.206   7.940 -0.0394  0.6544  0.2450
 7067TIP3    H145396   5.391   3.187   8.033  0.4232  0.2254  0.0986
 7067TIP3    H245397   5.381   3.301   7.934 -0.9502  0.7262  0.7927
 7068TIP3   OH245398   2.215   3.640   9.724  0.6171  0.1741  0.1544
 7068TIP3    H145399   2.130   3.684   9.734 -0.0882 -1.3333  1.3263
 7068TIP3    H245400   2.230   3.599   9.810  3.0618  1.2655  0.3071
 7069TIP3   OH245401   0.310   6.699   8.965 -0.1563  0.0015 -0.0984
 7069TIP3    H145402   0.323   6.701   9.060 -3.4244 -0.8236  0.4750
 7069TIP3    H245403   0.353   6.618   8.937  1.8611  0.8328  0.4178
 7070TIP3   OH245404   5.527   0.807   8.806 -0.1770 -0.0766 -0.3415
 7070TIP3    H145405   5.468   0.856   8.864 -0.0159 -0.1939 -0.0798
 7070TIP3    H245406   5.477   0.729   8.782  0.0968 -0.4677  0.3563
 7071TIP3   OH245407   1.717   2.384   8.972  0.3748 -0.0973  0.1147
 7071TIP3    H145408   1.749   2.300   8.938  1.4779 -0.4768  1.9323
 7071TIP3    H245409   1.701   2.367   9.065  2.0609  2.0317  0.8880
 7072TIP3   OH245410   5.369   7.368   8.867 -0.1002 -0.3216 -0.1369
 7072TIP3    H145411   5.419   7.427   8.812 -0.1906  0.4964  0.6426
 7072TIP3    H245412   5.426   7.351   8.942 -1.8684  2.7212  2.1114
 7073TIP3   OH245413   5.956   2.459   8.112  0.4429  0.7373  0.2912
 7073TIP3    H145414   5.957   2.470   8.017  1.7698  0.7530  0.3017
 7073TIP3    H245415   6.031   2.508   8.144 -0.4132  1.3600  1.4423
 7074TIP3   OH245416   4.693   4.396   8.801  0.4746 -0.0527  0.1646
 7074TIP3    H145417   4.787   4.379   8.796  0.1209 -1.7172 -3.0987
 7074TIP3    H245418   4.681   4.479   8.755  0.2548 -0.2599 -0.1513
 7075TIP3   OH245419   5.889   2.059   9.107 -0.0687  0.1713 -0.0682
 7075TIP3    H145420   5.952   2.020   9.047 -1.3887  0.4047 -1.6784
 7075TIP3    H245421   5.915   2.151   9.112  1.8407 -0.3801  2.1699
 7076TIP3   OH245422   5.141   5.450   7.847  0.4655  0.4211  0.2847
 7076TIP3    H145423   5.192   5.377   7.882 -1.1988 -0.3553  1.2473
 7076TIP3    H245424   5.151   5.520   7.912  1.8482  1.0168 -0.5105
 7077TIP3   OH245425   4.874   3.879   8.251  0.0245 -0.1599 -0.0277
 7077TIP3    H145426   4.836   3.915   8.331 -0.0716 -1.4389  0.5253
 7077TIP3    H245427   4.964   3.856   8.274  0.0324 -0.4337 -0.3190
 7078TIP3   OH245428   7.000   2.293   8.859  0.4224  0.6587 -0.6638
 7078TIP3    H145429   7.078   2.255   8.819  1.2022  2.6298 -1.1243
 7078TIP3    H245430   7.034   2.359   8.920 -0.8610  2.3040 -1.6421
 7079TIP3   OH245431   1.466   5.144   9.102  0.0268 -0.3593 -0.1662
 7079TIP3    H145432   1.459   5.239   9.094 -1.4158 -0.5191 -1.2241
 7079TIP3    H245433   1.546   5.121   9.056 -0.4683  0.2035 -1.3375
 7080TIP3   OH245434   4.758   2.077   8.065 -0.1381  0.4666  0.3490
 7080TIP3    H145435   4.702   2.079   8.143 -0.9167 -0.1375 -0.1860
 7080TIP3    H245436   4.758   1.985   8.038  0.9581  0.4872  0.2134
 7081TIP3   OH245437   4.665   6.294   9.759  0.8491 -0.0251 -0.1203
 7081TIP3    H145438   4.594   6.230   9.747  1.0374 -0.0971 -0.9396
 7081TIP3    H245439   4.635   6.371   9.712  0.2046  0.8518  1.6439
 7082TIP3   OH245440   0.728   4.686   8.145 -0.7629 -0.4473  0.4254
 7082TIP3    H145441   0.752   4.779   8.138 -1.4170 -0.3443 -0.7536
 7082TIP3    H245442   0.633   4.687   8.161 -1.4503 -0.8724 -2.8161
 7083TIP3   OH245443   7.569   6.077   9.705 -0.0638  0.1436  0.7025
 7083TIP3    H145444   7.563   6.107   9.795  0.2662 -0.0864  0.8046
 7083TIP3    H245445   7.633   6.135   9.664 -0.0396  0.1019  0.6803
 7084TIP3   OH245446   3.815   6.462   8.678 -0.1102 -0.5450 -0.4967
 7084TIP3    H145447   3.747   6.476   8.744  0.6783  0.6238  0.0999
 7084TIP3    H245448   3.819   6.367   8.668 -2.4722 -0.6329 -1.2503
 7085TIP3   OH245449   0.408   4.222   8.028 -0.1586 -0.9257 -0.2681
 7085TIP3    H145450   0.456   4.139   8.025  1.4335 -0.2294  2.1654
 7085TIP3    H245451   0.411   4.247   8.120 -0.4742  1.8874 -0.9392
 7086TIP3   OH245452   7.426   3.117   8.179 -0.1258  0.0681  0.1526
 7086TIP3    H145453   7.376   3.047   8.137 -1.1537  0.4484  0.6932
 7086TIP3    H245454   7.444   3.180   8.109 -0.5944  0.0229 -0.0127
 7087TIP3   OH245455   6.847   6.590   9.153  0.4369  0.2594 -0.2818
 7087TIP3    H145456   6.780   6.522   9.154  1.1357 -0.4594 -0.8230
 7087TIP3    H245457   6.887   6.585   9.240  0.1612  0.3096 -0.1509
 7088TIP3   OH245458   5.052   0.707   8.741 -0.2893  0.4300  0.3952
 7088TIP3    H145459   5.056   0.617   8.773  0.5639  0.4176  0.2672
 7088TIP3    H245460   5.044   0.760   8.820  0.4360  0.3092  0.5602
 7089TIP3   OH245461   0.932   1.129   9.100  0.0910 -0.0246  0.2531
 7089TIP3    H145462   1.027   1.127   9.098  0.1231  0.2411  1.0198
 7089TIP3    H245463   0.911   1.213   9.142 -0.4082 -1.1053  2.3293
 7090TIP3   OH245464   7.906   7.249   8.137 -0.8544  0.3587  0.5697
 7090TIP3    H145465   7.927   7.342   8.125 -1.3876  0.8672  3.0617
 7090TIP3    H245466   7.811   7.247   8.146 -0.7810 -0.2882  1.3407
 7091TIP3   OH245467   0.292   1.023   8.866 -0.1264 -0.3028  0.7781
 7091TIP3    H145468   0.284   1.038   8.772  1.1081  1.0304  0.8391
 7091TIP3    H245469   0.268   0.932   8.879 -1.9590 -0.0539 -0.5896
 7092TIP3   OH245470   8.048   0.216   9.705 -0.2048  0.1318 -0.1801
 7092TIP3    H145471   7.968   0.166   9.723 -0.2601  0.8282  1.7951
 7092TIP3    H245472   8.090   0.170   9.632 -0.5100 -2.5289  1.1946
 7093TIP3   OH245473   7.032   1.987   8.372 -0.3942  0.1198  0.2171
 7093TIP3    H145474   7.041   2.038   8.291 -1.5322 -0.6436 -0.4098
 7093TIP3    H245475   7.003   1.901   8.344  0.4285 -0.5662  1.3573
 7094TIP3   OH245476   5.896   5.071   8.864 -0.0114  0.4256  0.1578
 7094TIP3    H145477   5.986   5.039   8.874 -0.3139  0.0479  2.0641
 7094TIP3    H245478   5.843   4.991   8.860 -0.5680  0.5738  2.7731
 7095TIP3   OH245479   6.572   2.904   8.042  0.0329  0.1959 -0.5022
 7095TIP3    H145480   6.625   2.962   8.097 -0.6808  0.4125 -0.0392
 7095TIP3    H245481   6.634   2.870   7.977  1.0560 -0.6575  0.8812
 7096TIP3   OH245482   5.026   4.053   9.827 -0.6517 -0.4103 -0.1230
 7096TIP3    H145483   4.938   4.091   9.825 -0.9519 -0.9857  1.0117
 7096TIP3    H245484   5.085   4.127   9.809 -1.2945  0.3358  0.7109
 7097TIP3   OH245485   3.932   4.879   8.144 -0.0351  0.2864 -0.7278
 7097TIP3    H145486   3.892   4.948   8.198  1.1527  0.9652 -0.6951
 7097TIP3    H245487   3.943   4.919   8.058  1.8062  0.5878 -0.3840
 7098TIP3   OH245488   1.204   6.792   8.245 -0.3287  0.0615  0.3256
 7098TIP3    H145489   1.212   6.707   8.289  1.1394 -0.3526 -0.6466
 7098TIP3    H245490   1.134   6.837   8.292 -1.5780 -1.9173  0.5029
 7099TIP3   OH245491   5.776   3.141   8.812  0.2005 -0.4413 -0.5253
 7099TIP3    H145492   5.709   3.182   8.757 -0.4113 -1.3575 -0.4866
 7099TIP3    H245493   5.841   3.107   8.750  1.7359  2.2181 -0.4977
 7100TIP3   OH245494   2.994   7.682   9.151  0.1835  0.0583  0.0776
 7100TIP3    H145495   3.033   7.734   9.082  3.3288 -1.6320  0.3720
 7100TIP3    H245496   3.057   7.611   9.167 -1.9393 -1.5262  2.4077
 7101TIP3   OH245497   4.708   5.288  10.311  0.4222 -0.3554 -0.5362
 7101TIP3    H145498   4.800   5.270  10.293  1.0768  1.1765  1.0375
 7101TIP3    H245499   4.702   5.383  10.318 -1.5033 -0.3330 -1.5537
 7102TIP3   OH245500   1.635   6.144   8.060  0.0222 -0.2536 -0.1669
 7102TIP3    H145501   1.571   6.156   8.130 -0.3642  0.0689 -0.5662
 7102TIP3    H245502   1.656   6.233   8.031  0.0744 -0.3883 -0.5480
 7103TIP3   OH245503   4.843   1.773   8.733 -0.4164 -0.4287  0.3166
 7103TIP3    H145504   4.923   1.825   8.728 -1.4926  1.2046 -1.2558
 7103TIP3    H245505   4.787   1.821   8.793 -1.3508  0.2012 -1.0051
 7104TIP3   OH245506   7.888   0.070   8.403 -0.3312 -0.0267  0.0730
 7104TIP3    H145507   7.966   0.104   8.358  0.1925  1.3890  1.8831
 7104TIP3    H245508   7.923   0.020   8.477 -1.1072  0.3081  0.6887
 7105TIP3   OH245509   5.337   5.353   9.635  0.3423  0.8473  0.5230
 7105TIP3    H145510   5.246   5.351   9.667  0.5512 -1.0068  1.1462
 7105TIP3    H245511   5.332   5.313   9.549  0.5589  0.8117  0.5282
 7106TIP3   OH245512   0.010   0.502   9.693 -0.5092 -0.0511 -0.1507
 7106TIP3    H145513   0.053   0.469   9.772 -0.7775  0.6660  0.3053
 7106TIP3    H245514   0.041   0.444   9.623 -0.5348 -0.9165  0.5257
 7107TIP3   OH245515   0.447   2.621   8.171 -0.0076  0.5352  0.5527
 7107TIP3    H145516   0.498   2.702   8.175  1.1249 -0.2092  2.0358
 7107TIP3    H245517   0.445   2.599   8.078  2.7628  0.4111  0.4372
 7108TIP3   OH245518   5.849   0.462   8.396 -0.0052 -0.3431  0.0976
 7108TIP3    H145519   5.834   0.533   8.333 -1.9728 -0.1522  0.7061
 7108TIP3    H245520   5.798   0.389   8.361  1.6766 -1.3575 -0.3030
 7109TIP3   OH245521   7.069   8.372   9.854  0.1023  0.1544  0.2078
 7109TIP3    H145522   7.012   8.380   9.931 -1.9653  1.6150 -1.3554
 7109TIP3    H245523   7.051   8.284   9.821  0.4194 -0.1919  0.9196
 7110TIP3   OH245524   0.543   1.875   8.292  0.1429  0.1181  0.0752
 7110TIP3    H145525   0.583   1.878   8.378  1.9675 -0.9584 -0.6923
 7110TIP3    H245526   0.519   1.966   8.273 -0.4632  0.3461  1.7445
 7111TIP3   OH245527   0.640   0.440   9.217 -0.1243  0.5944  0.2580
 7111TIP3    H145528   0.705   0.435   9.147  0.0217  1.2879  0.3414
 7111TIP3    H245529   0.577   0.504   9.187 -0.7194  0.0055  0.2294
 7112TIP3   OH245530   1.976   6.103   7.958  0.0554  0.1939 -0.3266
 7112TIP3    H145531   1.931   6.054   8.027  1.7248 -1.3720 -0.2635
 7112TIP3    H245532   1.918   6.177   7.939 -1.4091 -0.4606  1.3088
 7113TIP3   OH245533   0.875   2.825   9.161  0.6391  0.1121  0.2303
 7113TIP3    H145534   0.873   2.853   9.252 -1.2272  0.9569 -0.0201
 7113TIP3    H245535   0.889   2.906   9.111  0.3111 -0.1372 -0.2759
 7114TIP3   OH245536   7.628   8.172  10.021 -0.1565 -0.4310 -0.5278
 7114TIP3    H145537   7.571   8.184   9.944 -1.0523 -0.5998  0.0995
 7114TIP3    H245538   7.615   8.252  10.072  0.0390 -0.5518 -0.2911
 7115TIP3   OH245539   4.512   3.222   9.241 -0.0933  0.1100  0.3362
 7115TIP3    H145540   4.454   3.172   9.299  0.0237  0.8027  1.0686
 7115TIP3    H245541   4.470   3.217   9.155 -1.5749  1.0636  0.9549
 7116TIP3   OH245542   2.505   2.731   8.594  0.6130  0.5291 -0.3435
 7116TIP3    H145543   2.507   2.822   8.624 -2.6953  0.5136  0.2657
 7116TIP3    H245544   2.514   2.679   8.675 -2.8000  0.4595  0.1284
 7117TIP3   OH245545   6.827   3.650   8.251  0.3121 -0.5612  0.4574
 7117TIP3    H145546   6.889   3.723   8.259 -1.7438  1.1134  2.0647
 7117TIP3    H245547   6.764   3.664   8.321 -2.0557 -2.0403 -1.2329
 7118TIP3   OH245548   4.342   8.023   9.544  0.1498 -0.3039  0.1317
 7118TIP3    H145549   4.252   8.029   9.578 -1.2084 -0.8035 -3.0510
 7118TIP3    H245550   4.359   7.929   9.541  1.2864 -0.1926  1.7188
 7119TIP3   OH245551   1.833   2.159   8.876  0.0069  0.3197  0.1546
 7119TIP3    H145552   1.880   2.169   8.793  0.1513 -3.5042 -0.4229
 7119TIP3    H245553   1.891   2.105   8.930 -0.8522  1.2459  2.1208
 7120TIP3   OH245554   5.179   4.626   7.672 -0.4551  0.3046  0.0572
 7120TIP3    H145555   5.131   4.704   7.643 -0.4959  1.4659  2.8545
 7120TIP3    H245556   5.141   4.607   7.758 -0.2893 -2.7361 -0.4620
 7121TIP3   OH245557   4.807   0.679   8.955 -0.1423  0.0808 -0.2841
 7121TIP3    H145558   4.807   0.726   9.039 -0.7684 -1.8813  0.8784
 7121TIP3    H245559   4.749   0.731   8.899 -1.3028  0.4010  1.1494
 7122TIP3   OH245560   4.644   7.227   9.412  0.0740 -0.6106 -0.1270
 7122TIP3    H145561   4.727   7.181   9.404 -1.2185 -3.1055 -0.2841
 7122TIP3    H245562   4.644   7.262   9.501  2.5115  2.1886 -1.0874
 7123TIP3   OH245563   0.955   2.441   8.826  0.1374 -0.3809  0.2696
 7123TIP3    H145564   0.953   2.363   8.770  0.9380  0.3196 -0.7833
 7123TIP3    H245565   0.973   2.407   8.913 -1.0694 -1.4981  0.1127
 7124TIP3   OH245566   7.240   5.105   9.188 -0.5237 -0.6056 -0.4652
 7124TIP3    H145567   7.230   5.107   9.092  0.6203 -1.5265 -0.6245
 7124TIP3    H245568   7.281   5.189   9.209 -2.1884  0.2678 -0.5806
 7125TIP3   OH245569   4.171   5.813   8.932  0.1655 -0.1812 -0.4027
 7125TIP3    H145570   4.097   5.781   8.984 -0.2604  0.3838 -0.6604
 7125TIP3    H245571   4.131   5.854   8.855  0.7879 -1.1019 -1.2503
 7126TIP3   OH245572   1.339   3.510   8.357  0.5798 -0.4182 -0.3090
 7126TIP3    H145573   1.407   3.531   8.421 -1.0455 -0.1359  1.3909
 7126TIP3    H245574   1.346   3.415   8.345  1.4864 -0.3442 -0.4401
 7127TIP3   OH245575   6.403   4.564   9.829  0.0455 -0.2175  0.2139
 7127TIP3    H145576   6.427   4.473   9.844 -2.2207 -0.7188  1.2140
 7127TIP3    H245577   6.367   4.593   9.913  0.9841  1.7164  0.0011
 7128TIP3   OH245578   5.960   0.301   9.609  0.1441  0.4631 -0.0811
 7128TIP3    H145579   6.002   0.318   9.694  0.4048 -2.1834  0.4190
 7128TIP3    H245580   5.962   0.385   9.564  0.4893  1.8442  2.3123
 7129TIP3   OH245581   4.377   2.529   9.335  0.0423 -0.6325  0.3914
 7129TIP3    H145582   4.292   2.557   9.369 -0.2571 -0.2794 -0.6251
 7129TIP3    H245583   4.407   2.603   9.283  0.0531 -1.5184 -0.9006
 7130TIP3   OH245584   5.261   3.432   9.522 -0.3339  0.5613 -0.4871
 7130TIP3    H145585   5.273   3.470   9.435 -1.5066 -1.9090 -1.8016
 7130TIP3    H245586   5.331   3.368   9.530 -0.7156  0.2036  0.0567
 7131TIP3   OH245587   0.408   0.749   9.315 -0.1318  0.1790  0.0810
 7131TIP3    H145588   0.372   0.680   9.371 -1.5178  1.7047  1.1920
 7131TIP3    H245589   0.479   0.787   9.367  0.6997 -0.4539 -0.5727
 7132TIP3   OH245590   2.679   2.613   8.389  0.3164  0.1777  0.0631
 7132TIP3    H145591   2.670   2.526   8.351 -1.9286  0.3887 -0.0229
 7132TIP3    H245592   2.603   2.622   8.447  0.9613  1.7519  0.7188
 7133TIP3   OH245593   4.908   7.574   8.894  0.0916 -0.2515 -0.1402
 7133TIP3    H145594   4.999   7.584   8.921  0.4951 -1.7956 -0.8383
 7133TIP3    H245595   4.886   7.658   8.853  1.9053 -0.5784 -1.8965
 7134TIP3   OH245596   5.464   3.142   8.193  0.4077  0.0420  0.0571
 7134TIP3    H145597   5.540   3.083   8.192 -0.0644 -0.5840  0.4073
 7134TIP3    H245598   5.433   3.140   8.283  1.0125  1.6769  0.3354
 7135TIP3   OH245599   3.429   0.055   9.989  0.5405 -0.3123  0.0369
 7135TIP3    H145600   3.472  -0.025  10.018  0.7347  0.6546  2.7131
 7135TIP3    H245601   3.335   0.036   9.995  0.5790 -0.6611 -0.4101
 7136TIP3   OH245602   3.255   2.477   8.918  0.3471  0.5305  0.0709
 7136TIP3    H145603   3.228   2.562   8.952  0.2521  0.8769 -0.8379
 7136TIP3    H245604   3.204   2.414   8.969  0.6702  0.9945  0.9864
 7137TIP3   OH245605   6.418   3.134   8.845  0.6449 -0.1524  0.7634
 7137TIP3    H145606   6.356   3.070   8.881 -0.5371  0.3832 -0.2634
 7137TIP3    H245607   6.499   3.118   8.894  0.5442 -2.7330  0.2535
 7138TIP3   OH245608   4.141   6.145   8.451  0.3307 -0.3483  0.2466
 7138TIP3    H145609   4.206   6.079   8.475 -1.0283 -1.2264  1.7468
 7138TIP3    H245610   4.073   6.097   8.404 -0.2631  0.1151  0.5986
 7139TIP3   OH245611   4.370   2.557   8.535 -0.7418 -0.5201  0.1895
 7139TIP3    H145612   4.324   2.473   8.526 -1.5611 -0.0045 -0.5843
 7139TIP3    H245613   4.369   2.595   8.447 -1.7051  0.9663  0.7974
 7140TIP3   OH245614   3.813   6.917   8.760 -0.1427 -0.1088 -0.0222
 7140TIP3    H145615   3.832   6.872   8.677 -0.9055 -1.4390  0.4902
 7140TIP3    H245616   3.771   6.850   8.814  2.1989  0.0661  2.2356
 7141TIP3   OH245617   5.848   8.042   9.946  0.3613  0.3808  0.0638
 7141TIP3    H145618   5.790   8.025  10.021  0.7825 -0.8377  0.1333
 7141TIP3    H245619   5.930   7.999   9.969  0.5553  0.1402 -1.0141
 7142TIP3   OH245620   3.174   4.303   8.604  0.4300  0.0048  0.3638
 7142TIP3    H145621   3.136   4.388   8.581 -0.7251 -0.4528  0.5311
 7142TIP3    H245622   3.141   4.243   8.537 -0.3855 -0.7012  1.3672
 7143TIP3   OH245623   5.202   7.905   8.352 -0.2363  0.2221 -0.3489
 7143TIP3    H145624   5.280   7.851   8.370  0.4945  2.0564  2.6438
 7143TIP3    H245625   5.231   7.968   8.286  0.3606 -0.0578 -0.3607
 7144TIP3   OH245626   0.907   8.059   8.853  0.1759 -0.1395  0.2733
 7144TIP3    H145627   0.855   8.084   8.776  1.1729  1.1661 -0.0029
 7144TIP3    H245628   0.997   8.057   8.821  0.6293  0.6212  1.4545
 7145TIP3   OH245629   4.514   6.310   7.753  0.2393 -0.1571  0.0834
 7145TIP3    H145630   4.489   6.325   7.662  1.2389  1.8536  0.0713
 7145TIP3    H245631   4.433   6.287   7.798 -0.0717 -2.4038 -1.5100
 7146TIP3   OH245632   4.332   3.398   9.736  0.0064  0.3537  0.1264
 7146TIP3    H145633   4.288   3.385   9.820 -1.3053  0.6498 -0.4888
 7146TIP3    H245634   4.266   3.439   9.681  0.7492 -0.1169 -1.1470
 7147TIP3   OH245635   8.060   4.866   9.024 -0.6394  0.2472  0.5508
 7147TIP3    H145636   8.085   4.823   9.105 -1.4903  0.6485  1.0393
 7147TIP3    H245637   7.972   4.833   9.005  0.1313 -1.0371 -1.0598
 7148TIP3   OH245638   3.866   4.488   9.543  0.0623  0.4041 -0.4330
 7148TIP3    H145639   3.958   4.465   9.527  0.3821  1.4767 -0.2431
 7148TIP3    H245640   3.816   4.419   9.500  0.9504 -1.1511  0.9142
 7149TIP3   OH245641   7.286   6.012   8.284 -0.3631 -0.6302 -0.8163
 7149TIP3    H145642   7.327   5.937   8.328 -0.4291 -0.7471 -0.9520
 7149TIP3    H245643   7.327   6.014   8.198  1.3260  0.8682 -0.0482
 7150TIP3   OH245644   0.893   5.271   8.391  0.2300 -0.2903  0.3829
 7150TIP3    H145645   0.844   5.269   8.473 -1.0635  0.1123 -0.3575
 7150TIP3    H245646   0.883   5.361   8.360  1.2132 -0.2753  0.0518
 7151TIP3   OH245647   6.186   7.103   8.180  0.0726 -0.5227 -0.2905
 7151TIP3    H145648   6.226   7.138   8.259  0.7520  1.1203 -1.3090
 7151TIP3    H245649   6.231   7.020   8.164  0.8566 -0.2137  0.3125
 7152TIP3   OH245650   1.578   5.682   9.073  0.0548 -0.0031  0.4417
 7152TIP3    H145651   1.585   5.642   8.987 -1.4177  0.3967  0.1069
 7152TIP3    H245652   1.630   5.762   9.066 -0.9641  0.6064 -0.4641
 7153TIP3   OH245653   7.269   7.924   9.924 -0.1552 -0.4896 -0.0042
 7153TIP3    H145654   7.351   7.890   9.888 -0.8968 -0.9393 -1.3367
 7153TIP3    H245655   7.274   7.904  10.018  0.8542 -1.3444 -0.2205
 7154TIP3   OH245656   5.561   1.600   8.707 -0.3406 -0.4426 -0.4961
 7154TIP3    H145657   5.589   1.677   8.758  0.3469 -1.0724  0.1146
 7154TIP3    H245658   5.509   1.636   8.636  0.7576  0.6757 -0.7747
 7155TIP3   OH245659   5.648   5.790  10.017 -0.1132 -0.3172 -0.0424
 7155TIP3    H145660   5.696   5.725  10.068 -1.1963 -0.4723  0.8295
 7155TIP3    H245661   5.703   5.868  10.021  1.9830 -1.5334 -2.4383
 7156TIP3   OH245662   7.988   2.031   7.900  0.3744  0.3486  0.0632
 7156TIP3    H145663   8.039   1.956   7.869 -0.7740 -0.5998  0.3727
 7156TIP3    H245664   8.024   2.106   7.852  1.5239 -0.3959 -0.2857
 7157TIP3   OH245665   5.403   3.164   9.251  0.0272 -0.7839 -0.3225
 7157TIP3    H145666   5.349   3.208   9.186  0.2661 -1.3766 -0.9299
 7157TIP3    H245667   5.404   3.072   9.224  0.6483 -0.9275  0.1556
 7158TIP3   OH245668   5.386   5.855  10.215 -0.1012  0.6850 -0.1155
 7158TIP3    H145669   5.413   5.908  10.141  0.5501  0.4551 -0.0498
 7158TIP3    H245670   5.358   5.772  10.176 -0.3223  0.7759 -0.1515
 7159TIP3   OH245671   7.899   4.868   7.984  0.0446  0.2033 -0.3870
 7159TIP3    H145672   7.979   4.824   7.956  0.1756 -0.0286  0.3223
 7159TIP3    H245673   7.930   4.935   8.046 -0.2834  0.3029 -0.3318
 7160TIP3   OH245674   6.347   1.880   9.446 -0.0626  0.1160 -0.2302
 7160TIP3    H145675   6.372   1.893   9.537 -0.9733  0.6917 -0.0405
 7160TIP3    H245676   6.270   1.936   9.434  0.1029  0.1417 -1.3830
 7161TIP3   OH245677   7.515   4.326   8.456 -0.5266  0.0471  0.2458
 7161TIP3    H145678   7.555   4.390   8.397 -0.1071  1.7398  2.2637
 7161TIP3    H245679   7.455   4.277   8.400  1.9934 -0.5032 -2.2470
 7162TIP3   OH245680   0.114   1.488   9.753 -0.1414  0.6386  0.5513
 7162TIP3    H145681   0.030   1.473   9.796  0.6610 -0.9405  1.7129
 7162TIP3    H245682   0.178   1.451   9.815  1.1738 -0.7661 -1.5170
 7163TIP3   OH245683   4.958   7.672   9.763 -0.2199  0.5325 -0.1193
 7163TIP3    H145684   4.929   7.760   9.783 -2.6561 -0.8788  3.5043
 7163TIP3    H245685   4.998   7.640   9.843 -1.5005 -2.3422 -0.4690
 7164TIP3   OH245686   7.878   4.512   8.007 -0.6392 -0.1364  0.1757
 7164TIP3    H145687   7.907   4.561   7.930 -0.1060 -1.2210 -0.3440
 7164TIP3    H245688   7.786   4.534   8.016 -0.2886  1.3741  0.2918
 7165TIP3   OH245689   0.359   1.142   9.416 -0.3086  0.2117  1.2639
 7165TIP3    H145690   0.387   1.058   9.379  1.5392  0.9656  0.7993
 7165TIP3    H245691   0.321   1.189   9.342 -0.6624  0.0581  1.3493
 7166TIP3   OH245692   4.782   5.040  10.365 -0.4841  0.3489  0.1344
 7166TIP3    H145693   4.733   5.122  10.357  0.2946  0.9713  1.3978
 7166TIP3    H245694   4.846   5.044  10.294  0.8116  1.7885  1.3119
 7167TIP3   OH245695   2.618   5.386   9.094  0.1524  0.0175  0.2746
 7167TIP3    H145696   2.584   5.327   9.161  1.9471 -1.9814 -0.4575
 7167TIP3    H245697   2.591   5.474   9.123 -0.6946 -0.9305  2.5972
 7168TIP3   OH245698   3.903   4.682   7.653 -0.1193  0.1432 -0.0765
 7168TIP3    H145699   3.814   4.668   7.621  0.4441 -0.4610 -1.4231
 7168TIP3    H245700   3.918   4.610   7.715 -0.9205  0.8592  0.9928
 7169TIP3   OH245701   1.833   2.836   8.841 -0.0408 -0.5088  0.1467
 7169TIP3    H145702   1.881   2.754   8.823  0.2139 -0.2815 -0.2170
 7169TIP3    H245703   1.862   2.896   8.772  0.0012 -0.0146  0.5898
 7170TIP3   OH245704   1.400   6.900   7.828 -0.3232 -0.6362  0.6966
 7170TIP3    H145705   1.336   6.844   7.873  0.5219 -1.7607  0.5378
 7170TIP3    H245706   1.469   6.840   7.802 -1.3682 -0.3292 -3.3726
 7171TIP3   OH245707   4.897   5.062   9.141 -0.0797  0.1820  0.2837
 7171TIP3    H145708   4.880   5.153   9.119 -1.9622 -0.3046 -0.5171
 7171TIP3    H245709   4.904   5.061   9.236  2.6988  1.5142  0.1778
 7172TIP3   OH245710   7.935   5.003   7.428 -0.1471 -0.0204 -0.6049
 7172TIP3    H145711   7.979   5.015   7.512  0.4422 -0.7985 -0.7934
 7172TIP3    H245712   7.998   5.034   7.363  0.2430 -1.3835 -0.8969
 7173TIP3   OH245713   1.193   0.518   9.085  0.4100  0.4008  0.2691
 7173TIP3    H145714   1.132   0.587   9.059  1.6815  1.9386  1.1428
 7173TIP3    H245715   1.172   0.444   9.028 -2.9038  0.4870  1.2083
 7174TIP3   OH245716   2.950   8.081   8.483  0.2114 -0.0508  0.0599
 7174TIP3    H145717   2.984   8.165   8.452 -0.9375 -0.1796 -1.6357
 7174TIP3    H245718   3.026   8.022   8.481  0.3513  0.1502 -1.8051
 7175TIP3   OH245719   4.391   6.012   9.009  0.1786  0.2080  0.5312
 7175TIP3    H145720   4.316   6.072   9.004  0.1703  0.2944  1.6144
 7175TIP3    H245721   4.355   5.927   8.982 -0.6147 -0.0077  2.1268
 7176TIP3   OH245722   8.118   2.997   9.551  0.3366  0.2487  0.1776
 7176TIP3    H145723   8.164   2.923   9.511  0.6142  0.2565  0.4754
 7176TIP3    H245724   8.054   3.024   9.485 -0.1196 -0.5763  0.2582
 7177TIP3   OH245725   7.731   1.823   8.328  0.0765  0.4871 -0.1210
 7177TIP3    H145726   7.757   1.849   8.240 -1.0646  1.7307 -0.1050
 7177TIP3    H245727   7.713   1.905   8.373 -0.9556 -0.2076  0.7717
 7178TIP3   OH245728   4.997   0.039   9.606 -0.0507 -0.1863  0.0080
 7178TIP3    H145729   5.026   0.103   9.541 -0.5889 -0.4262 -0.4850
 7178TIP3    H245730   5.000   0.085   9.689 -1.1172  0.7086 -0.4270
 7179TIP3   OH245731   6.122   6.033   8.801  0.0127  0.1843 -0.5264
 7179TIP3    H145732   6.124   5.948   8.844  0.4544  0.3640 -0.1773
 7179TIP3    H245733   6.066   6.087   8.856  0.7309  0.4688 -0.0570
 7180TIP3   OH245734   5.411   5.600   7.808 -0.3808  0.3763 -0.7912
 7180TIP3    H145735   5.424   5.571   7.899  1.3463  1.2657 -0.7165
 7180TIP3    H245736   5.438   5.525   7.755  2.3337  1.1114 -0.5740
 7181TIP3   OH245737   7.583   4.482   8.688  0.1669  0.3087 -0.3768
 7181TIP3    H145738   7.620   4.401   8.653  0.0288 -0.1921  0.6116
 7181TIP3    H245739   7.627   4.494   8.772 -0.4795  0.7702 -0.0986
 7182TIP3   OH245740   0.653   3.971   9.726  0.2650 -0.1025 -0.2975
 7182TIP3    H145741   0.638   4.058   9.762  0.1935  0.4032 -1.5334
 7182TIP3    H245742   0.739   3.946   9.759 -0.1460 -0.0237  0.9204
 7183TIP3   OH245743   4.100   2.404   9.259 -0.1290  0.0130 -0.3437
 7183TIP3    H145744   4.192   2.386   9.243 -0.2663  0.5394 -1.9325
 7183TIP3    H245745   4.098   2.458   9.338  0.9789  0.6024 -0.7069
 7184TIP3   OH245746   1.034   0.601   9.937  0.5269 -0.3230 -0.2735
 7184TIP3    H145747   0.997   0.676   9.891 -3.1106 -1.9304 -0.2688
 7184TIP3    H245748   1.058   0.635  10.023 -0.0175  1.0469 -0.6407
 7185TIP3   OH245749   3.573   2.391   9.412 -0.0279 -0.2331  0.0377
 7185TIP3    H145750   3.526   2.447   9.350  0.1467  0.1544  0.2534
 7185TIP3    H245751   3.578   2.306   9.368  0.5903  0.1860 -0.7172
 7186TIP3   OH245752   6.591   1.721   7.839  0.2337 -0.0172  0.0826
 7186TIP3    H145753   6.501   1.750   7.853 -0.0412 -1.1028  0.7058
 7186TIP3    H245754   6.626   1.782   7.775 -0.9096  0.4945 -0.0849
 7187TIP3   OH245755   3.632   0.955   8.950 -0.4498  0.1863 -0.2072
 7187TIP3    H145756   3.591   0.954   8.864 -0.4849  2.9225 -0.3118
 7187TIP3    H245757   3.691   1.031   8.947 -1.0324  0.8213  2.4093
 7188TIP3   OH245758   0.991   7.111   9.422 -0.0925 -0.2072 -0.3513
 7188TIP3    H145759   0.999   7.018   9.439  1.1094  0.0389  0.6042
 7188TIP3    H245760   0.979   7.151   9.508  2.2462  0.7394 -0.3930
 7189TIP3   OH245761   0.171   7.759   9.843 -0.2056  0.3630 -0.0048
 7189TIP3    H145762   0.088   7.717   9.865  0.3657 -1.2096 -0.6935
 7189TIP3    H245763   0.207   7.705   9.773  2.7893 -0.8028  2.2352
 7190TIP3   OH245764   8.398   1.550   8.706  0.3357 -0.1329  0.1448
 7190TIP3    H145765   8.489   1.522   8.698  0.5692  0.4218  0.7463
 7190TIP3    H245766   8.401   1.645   8.690  0.0173  0.0510  1.1007
 7191TIP3   OH245767   2.098   5.790   8.870 -0.0011 -0.3129 -0.1898
 7191TIP3    H145768   2.189   5.815   8.889  0.1486  0.5538 -1.8809
 7191TIP3    H245769   2.104   5.742   8.787 -0.9012 -1.8337  0.5764
 7192TIP3   OH245770   6.755   0.452   8.257 -0.1541 -0.0925  0.4383
 7192TIP3    H145771   6.679   0.423   8.206  1.1433  0.2808 -1.8402
 7192TIP3    H245772   6.720   0.517   8.318 -1.8299 -0.8210  0.2997
 7193TIP3   OH245773   4.107   7.087   8.111 -0.3118  0.1083 -0.0721
 7193TIP3    H145774   4.176   7.089   8.045 -1.8963  0.1995 -1.8285
 7193TIP3    H245775   4.126   7.010   8.164  1.8962  0.9187  0.4248
 7194TIP3   OH245776   1.235   0.320   8.591  0.2644 -0.1746 -0.0698
 7194TIP3    H145777   1.258   0.411   8.571  0.9076 -0.2458  0.3172
 7194TIP3    H245778   1.174   0.326   8.664 -0.7739  0.0027 -0.9221
 7195TIP3   OH245779   2.339   1.859   8.855 -0.3748 -0.1831 -0.2753
 7195TIP3    H145780   2.312   1.887   8.768  0.6083  1.3629 -0.1122
 7195TIP3    H245781   2.295   1.918   8.915 -0.0851 -0.4491  0.2154
 7196TIP3   OH245782   0.467   3.208   9.845 -0.2785 -0.2249 -0.1064
 7196TIP3    H145783   0.434   3.230   9.758  0.2290 -0.8880 -0.4780
 7196TIP3    H245784   0.388   3.201   9.899 -0.5198  1.3021 -0.2319
 7197TIP3   OH245785   5.592   5.295   9.507  0.0831  0.2046  0.1344
 7197TIP3    H145786   5.653   5.222   9.520  0.3598  0.5344  0.7576
 7197TIP3    H245787   5.528   5.284   9.577 -0.0804  0.3585  0.0077
 7198TIP3   OH245788   3.223   7.996   8.910 -0.4005 -0.2299  0.0590
 7198TIP3    H145789   3.175   8.077   8.890 -0.7302 -0.2828  0.6225
 7198TIP3    H245790   3.314   8.024   8.918 -0.5049  0.0792  0.1949
 7199TIP3   OH245791   5.883   1.293   8.059 -0.6996 -0.0695  0.3376
 7199TIP3    H145792   5.855   1.293   8.150  0.9191 -1.9065  0.9089
 7199TIP3    H245793   5.977   1.313   8.062 -0.9580  1.5838 -1.1003
 7200TIP3   OH245794   7.827   5.360   8.973  0.1516 -0.1303  0.7637
 7200TIP3    H145795   7.877   5.398   9.045  1.1633 -0.4484  0.2631
 7200TIP3    H245796   7.736   5.364   9.001  0.3145  1.7679  1.1163
 7201TIP3   OH245797   1.616   2.843   9.548  0.0625 -0.4501 -0.4052
 7201TIP3    H145798   1.563   2.922   9.554 -0.1563 -0.6930  1.6359
 7201TIP3    H245799   1.660   2.838   9.633 -1.2029 -3.3847  0.1805
 7202TIP3   OH245800   4.497   3.047   9.559  0.2956  0.2815  0.0409
 7202TIP3    H145801   4.461   2.975   9.611  1.0867 -1.2676 -1.4629
 7202TIP3    H245802   4.429   3.065   9.493  0.4903  0.2891 -0.1573
 7203TIP3   OH245803   3.365   7.804   9.628  0.0782  0.3992 -0.6929
 7203TIP3    H145804   3.436   7.821   9.690  1.2254  3.9145 -2.6210
 7203TIP3    H245805   3.288   7.788   9.683  1.6458  0.0817  1.5486
 7204TIP3   OH245806   3.382   7.797   7.989  0.4516 -0.5608  0.2988
 7204TIP3    H145807   3.396   7.848   8.069  0.8024  0.9683 -0.6802
 7204TIP3    H245808   3.457   7.738   7.985  1.0292  0.1289  0.5529
 7205TIP3   OH245809   5.715   0.943   9.804  0.5228  0.7056  0.6682
 7205TIP3    H145810   5.690   1.009   9.739  0.8114  0.9708  0.8208
 7205TIP3    H245811   5.806   0.965   9.826  0.3696  0.7301  1.2908
 7206TIP3   OH245812   2.644   3.010   8.347 -0.4798  0.1469  0.0703
 7206TIP3    H145813   2.688   3.063   8.414 -0.9252  2.4847 -1.3665
 7206TIP3    H245814   2.710   2.947   8.318  0.9842  1.6632  0.0055
 7207TIP3   OH245815   4.840   3.606   7.417  0.3090  0.0517  0.3357
 7207TIP3    H145816   4.771   3.579   7.356 -1.1773 -0.0140  1.9473
 7207TIP3    H245817   4.816   3.695   7.442  1.1087  0.2167  0.5226
 7208TIP3   OH245818   0.997   7.323   8.179  0.1326  0.1445  0.0887
 7208TIP3    H145819   0.930   7.357   8.238 -0.3075 -0.9316  0.2192
 7208TIP3    H245820   0.950   7.302   8.098  0.7675  1.8182 -0.7626
 7209TIP3   OH245821   0.618   3.422   9.758 -0.6038  0.1878 -0.2862
 7209TIP3    H145822   0.591   3.339   9.796  0.0683  0.0152 -0.1631
 7209TIP3    H245823   0.544   3.480   9.770 -0.6434 -0.0594  0.6836
 7210TIP3   OH245824   6.341   0.786   8.927  0.2710  0.6708  0.1710
 7210TIP3    H145825   6.330   0.871   8.970 -2.2843  1.0248 -1.0157
 7210TIP3    H245826   6.351   0.808   8.834 -1.9488 -0.3320 -0.3494
 7211TIP3   OH245827   2.812   3.093   8.587  0.3026 -0.6434 -0.0278
 7211TIP3    H145828   2.816   3.058   8.676  0.8447 -1.8811 -0.5149
 7211TIP3    H245829   2.773   3.180   8.597  1.1747 -0.3854  1.5285
 7212TIP3   OH245830   0.031   3.103   8.058  0.0967  0.1968 -0.4684
 7212TIP3    H145831  -0.020   3.168   8.105 -2.1542 -1.9634  0.2729
 7212TIP3    H245832   0.034   3.027   8.116  1.2278 -0.9664 -1.9448
 7213TIP3   OH245833   3.811   5.543   9.447  0.3964 -0.7044 -0.8945
 7213TIP3    H145834   3.820   5.637   9.430 -0.5981 -0.4931 -0.3532
 7213TIP3    H245835   3.726   5.535   9.490  0.6817 -1.8038 -0.5063
 7214TIP3   OH245836   0.177   1.356   9.518  0.6200  0.6998 -0.0554
 7214TIP3    H145837   0.272   1.359   9.515  0.7314 -1.0881  0.0794
 7214TIP3    H245838   0.156   1.349   9.611  0.6992 -3.1254 -0.1295
 7215TIP3   OH245839   6.360   3.620  10.017  0.0249  0.1366  0.1400
 7215TIP3    H145840   6.296   3.651   9.952  1.2430  0.7124 -0.8328
 7215TIP3    H245841   6.431   3.684  10.012 -0.2110  0.7022  2.7126
 7216TIP3   OH245842   0.089   4.629   9.291 -0.3639 -0.3062  0.6052
 7216TIP3    H145843   0.054   4.547   9.325  0.5873 -0.5348  1.0836
 7216TIP3    H245844   0.169   4.604   9.246 -1.0126  0.1461 -0.8461
 7217TIP3   OH245845   5.743   3.238   9.677  0.4012 -0.2991  0.6997
 7217TIP3    H145846   5.652   3.240   9.649  0.7844 -0.3405 -0.5861
 7217TIP3    H245847   5.747   3.164   9.737 -0.5772  0.2036  1.4263
 7218TIP3   OH245848   6.184   6.492   8.642 -0.2262  0.1009 -0.2092
 7218TIP3    H145849   6.257   6.553   8.639 -1.3171  1.4855  0.3237
 7218TIP3    H245850   6.122   6.524   8.576 -2.1057  1.3811  2.0042
 7219TIP3   OH245851   7.506   1.058   9.132 -0.1585 -0.1855 -0.5060
 7219TIP3    H145852   7.552   0.997   9.073  0.0918  0.3255 -0.8433
 7219TIP3    H245853   7.459   1.001   9.192 -0.7501 -0.7233 -1.4552
 7220TIP3   OH245854   5.119   0.314   8.453 -0.7535  0.2518  0.6037
 7220TIP3    H145855   5.084   0.395   8.417  0.4512  0.1745 -0.8140
 7220TIP3    H245856   5.081   0.245   8.399 -1.1491 -0.0953  1.3020
 7221TIP3   OH245857   0.902   5.915   9.512  0.1810 -0.6719  0.0182
 7221TIP3    H145858   0.917   5.825   9.483 -2.3636 -1.2082  0.1542
 7221TIP3    H245859   0.808   5.928   9.504  0.5385  2.2350 -0.6203
 7222TIP3   OH245860   8.268   3.575   8.196 -0.6521 -0.2246 -0.0939
 7222TIP3    H145861   8.359   3.561   8.224 -0.1968 -0.9400 -1.7956
 7222TIP3    H245862   8.275   3.635   8.122 -1.4020 -1.4163 -1.1781
 7223TIP3   OH245863   0.270   2.152   9.845  0.0099 -0.2653  0.3269
 7223TIP3    H145864   0.241   2.183   9.759 -1.3098 -0.3710  0.7130
 7223TIP3    H245865   0.356   2.191   9.856 -0.2552  0.6343 -0.5950
 7224TIP3   OH245866   0.991   8.088   9.693 -0.2228 -0.3197  0.1658
 7224TIP3    H145867   0.992   8.175   9.733  1.0638 -0.9713  1.6544
 7224TIP3    H245868   0.933   8.036   9.748  1.2220 -1.1098  1.0289
 7225TIP3   OH245869   2.202   7.888   9.366 -0.2091  0.7090 -0.5154
 7225TIP3    H145870   2.268   7.819   9.361 -0.8936  0.0161 -0.1287
 7225TIP3    H245871   2.230   7.941   9.441 -1.0750 -0.6589  0.8277
 7226TIP3   OH245872   7.116   3.140   8.441 -0.2199 -0.0664  0.4165
 7226TIP3    H145873   7.158   3.054   8.449  0.8270  0.3582 -0.2971
 7226TIP3    H245874   7.100   3.151   8.348 -0.6883  0.3682  0.5422
 7227TIP3   OH245875   2.562   7.808   7.870 -0.4052  0.0181  0.2756
 7227TIP3    H145876   2.621   7.743   7.909 -0.0836 -0.8312 -1.5358
 7227TIP3    H245877   2.615   7.886   7.860  0.5317 -0.7875 -1.4809
 7228TIP3   OH245878   7.648   5.224   9.404 -0.1915 -0.0674  0.2701
 7228TIP3    H145879   7.723   5.173   9.433  0.4221  0.5573 -0.1738
 7228TIP3    H245880   7.575   5.193   9.457  0.4412 -0.4862  0.9063
 7229TIP3   OH245881   7.749   2.540   9.528  0.1396 -0.2241 -0.2232
 7229TIP3    H145882   7.673   2.501   9.485  0.7015 -0.3294 -1.1460
 7229TIP3    H245883   7.777   2.610   9.468  1.2919 -0.7531 -0.3223
 7230TIP3   OH245884   7.196   4.817   9.213 -0.0589 -0.2670  0.6648
 7230TIP3    H145885   7.231   4.811   9.302 -0.5893 -1.5802  0.8128
 7230TIP3    H245886   7.198   4.911   9.192  2.9151 -0.2102  0.8745
 7231TIP3   OH245887   2.532   4.268   7.507  0.7419 -0.9169  0.5075
 7231TIP3    H145888   2.539   4.321   7.428  1.7786  0.2799  1.3562
 7231TIP3    H245889   2.443   4.282   7.538 -0.1633 -2.5128 -1.1483
 7232TIP3   OH245890   5.396   1.563   8.057 -0.0178 -0.0507  0.1576
 7232TIP3    H145891   5.310   1.527   8.077  0.0266  0.5358  1.4775
 7232TIP3    H245892   5.457   1.492   8.077 -0.1762 -0.4880 -0.8397
 7233TIP3   OH245893   6.771   2.484   9.382 -0.2011  0.0033 -0.2375
 7233TIP3    H145894   6.856   2.469   9.340  0.2125  1.3935  0.0494
 7233TIP3    H245895   6.762   2.579   9.384 -0.7456 -0.0473  1.7075
 7234TIP3   OH245896   0.994   4.483   7.588  0.6151 -0.0054 -0.1013
 7234TIP3    H145897   0.909   4.513   7.556  1.0596  1.2658 -0.1366
 7234TIP3    H245898   1.012   4.538   7.664  2.1607  0.9461 -1.1020
 7235TIP3   OH245899   2.654   3.182   9.283  0.3433  0.2677  0.1985
 7235TIP3    H145900   2.594   3.220   9.347 -0.7386 -1.0150 -0.0230
 7235TIP3    H245901   2.598   3.144   9.216  1.4306  0.1113 -0.6610
 7236TIP3   OH245902   3.977   7.771   9.106  0.4719 -0.1462  0.1165
 7236TIP3    H145903   4.057   7.787   9.055  0.7966  1.4494  1.0601
 7236TIP3    H245904   4.000   7.796   9.195 -1.5437  1.9606  0.1288
 7237TIP3   OH245905   4.203   3.869   8.048 -0.3241  0.1630  0.1542
 7237TIP3    H145906   4.131   3.808   8.060  0.1857 -0.3092  0.8845
 7237TIP3    H245907   4.274   3.834   8.102  0.7548  0.1509 -1.2163
 7238TIP3   OH245908   7.617   3.383   8.592 -0.6318 -0.2554  0.4343
 7238TIP3    H145909   7.558   3.427   8.654 -1.2938 -0.8934  0.2742
 7238TIP3    H245910   7.568   3.382   8.509 -0.1942 -0.3576  0.1751
 7239TIP3   OH245911   0.690   8.131   7.833 -0.3664  0.1601  0.0962
 7239TIP3    H145912   0.609   8.182   7.835  0.1001  0.9346 -0.4313
 7239TIP3    H245913   0.710   8.121   7.741  0.6576  0.8335  0.2285
 7240TIP3   OH245914   3.108   3.755   9.557 -0.5442 -0.3731 -0.2259
 7240TIP3    H145915   3.055   3.719   9.629  1.9211 -0.0798  1.8769
 7240TIP3    H245916   3.101   3.849   9.568  0.3085 -0.3316  0.0291
 7241TIP3   OH245917   5.181   1.156   9.096  0.7572  0.0171 -0.1553
 7241TIP3    H145918   5.232   1.122   9.170  0.9380  0.6737  0.0359
 7241TIP3    H245919   5.228   1.235   9.070 -0.5765  1.0744  0.5177
 7242TIP3   OH245920   8.075   0.508   9.023 -0.4350  0.1881  0.4481
 7242TIP3    H145921   8.041   0.441   9.082  0.5699 -0.1130  0.7167
 7242TIP3    H245922   8.153   0.469   8.984 -0.6697  0.6606 -0.5353
 7243TIP3   OH245923   1.679   3.012   8.632  0.4456 -0.2066  0.1980
 7243TIP3    H145924   1.694   3.067   8.709  1.4515 -1.4844  0.9551
 7243TIP3    H245925   1.661   2.925   8.668  0.4055 -0.7125 -0.9981
 7244TIP3   OH245926   6.260   2.496   9.279  0.4811 -0.1547 -0.6052
 7244TIP3    H145927   6.270   2.431   9.349 -0.4808 -0.0808 -0.3816
 7244TIP3    H245928   6.232   2.445   9.203 -0.6261  0.0248 -0.3337
 7245TIP3   OH245929   4.926   3.891   9.441  0.2442  0.1338 -0.4716
 7245TIP3    H145930   4.938   3.864   9.350 -0.4240  1.3610 -0.9532
 7245TIP3    H245931   4.875   3.972   9.435  0.5820  0.4792  0.9759
 7246TIP3   OH245932   3.500   7.530   8.606  0.5388 -0.2324 -0.0838
 7246TIP3    H145933   3.461   7.461   8.553  0.6236 -1.5159  1.4517
 7246TIP3    H245934   3.476   7.508   8.696  2.7689  0.2496  0.7039
 7247TIP3   OH245935   6.537   1.134   9.188  0.4783 -0.0302 -0.2412
 7247TIP3    H145936   6.530   1.225   9.158  1.0359 -0.3808 -1.5061
 7247TIP3    H245937   6.627   1.109   9.168  1.0623 -0.1637  2.2501
 7248TIP3   OH245938   5.982   4.971   8.434  0.2842 -0.9341  0.5230
 7248TIP3    H145939   5.945   4.923   8.508 -0.4280  0.2497  0.9576
 7248TIP3    H245940   6.065   5.006   8.467 -0.5368  0.5075  1.1554
 7249TIP3   OH245941   4.761   3.635   8.774  0.0699  0.1914 -0.4263
 7249TIP3    H145942   4.780   3.625   8.681 -0.7257 -1.6728 -0.4386
 7249TIP3    H245943   4.847   3.646   8.816  0.3702  2.0380 -1.4446
 7250TIP3   OH245944   4.375   2.121   9.415  0.6388 -0.0579  0.8383
 7250TIP3    H145945   4.382   2.166   9.498  0.2634  0.0107  0.8368
 7250TIP3    H245946   4.349   2.031   9.438  0.1755  0.0560  0.7826
 7251TIP3   OH245947   0.442   8.146   8.609  0.4720 -0.7482 -0.3521
 7251TIP3    H145948   0.432   8.051   8.619  0.0428 -0.5684  1.2826
 7251TIP3    H245949   0.352   8.179   8.605  0.5957 -0.5532 -3.0877
 7252TIP3   OH245950   1.787   2.980   9.069 -0.4697  0.2750 -0.2759
 7252TIP3    H145951   1.696   3.008   9.079 -1.0226 -1.4275 -0.3177
 7252TIP3    H245952   1.783   2.905   9.009  0.9215 -0.0770  0.0322
 7253TIP3   OH245953   4.860   5.111   9.838  0.5305 -0.2435 -0.4029
 7253TIP3    H145954   4.875   5.177   9.771  0.6018 -0.9048 -1.0442
 7253TIP3    H245955   4.805   5.045   9.796 -0.3430 -0.1257  0.5208
 7254TIP3   OH245956   1.185   4.260   9.498 -0.2126  0.3631 -0.1333
 7254TIP3    H145957   1.198   4.320   9.572 -1.5615  1.1058 -0.4637
 7254TIP3    H245958   1.126   4.193   9.531 -0.3928  0.3959 -0.3888
 7255TIP3   OH245959   7.966   6.613   9.750  0.3178 -0.1073  0.3472
 7255TIP3    H145960   8.012   6.561   9.684  0.0724 -1.0459  0.9000
 7255TIP3    H245961   7.994   6.703   9.733  3.4951 -0.7508  1.5309
 7256TIP3   OH245962   3.194   4.635   7.461 -0.0208  1.0233 -0.0521
 7256TIP3    H145963   3.231   4.652   7.375  0.6552  1.1341  0.2470
 7256TIP3    H245964   3.203   4.719   7.508  0.6045  0.6751  0.4692
 7257TIP3   OH245965   7.809   8.145  10.241 -0.1582  0.1112  0.1636
 7257TIP3    H145966   7.861   8.226  10.237  0.5438 -0.3571 -0.5523
 7257TIP3    H245967   7.745   8.155  10.170 -2.4185  1.5444  2.2268
 7258TIP3   OH245968   6.466   6.937   8.948  0.3650  0.7389 -0.4024
 7258TIP3    H145969   6.372   6.947   8.935 -0.0184  0.2267  1.5862
 7258TIP3    H245970   6.503   7.023   8.932 -0.5603  1.1450 -0.3780
 7259TIP3   OH245971   4.660   5.672   7.955 -0.7695  0.3097 -0.1629
 7259TIP3    H145972   4.652   5.577   7.945 -0.8986  0.2027  0.8172
 7259TIP3    H245973   4.708   5.701   7.878 -1.0721 -0.5055 -0.6620
 7260TIP3   OH245974   0.266   4.499   7.578  0.3022  0.6741  0.3282
 7260TIP3    H145975   0.175   4.520   7.554 -0.0466  0.6875  1.5769
 7260TIP3    H245976   0.258   4.426   7.639  1.1773  0.2716 -0.0341
 7261TIP3   OH245977   0.961   6.910   7.889 -0.1448  0.2715  0.5885
 7261TIP3    H145978   0.905   6.944   7.958  0.7722  0.2772  1.3549
 7261TIP3    H245979   0.907   6.846   7.843 -0.5031 -0.3618  1.8499
 7262TIP3   OH245980   1.916   1.076   8.647  0.1771  0.7452 -0.6556
 7262TIP3    H145981   1.878   1.079   8.559  0.5170 -1.7433 -0.9434
 7262TIP3    H245982   1.868   1.006   8.692  0.5633  1.4277  0.8897
 7263TIP3   OH245983   7.066   4.288   7.682  0.0949 -0.7579  0.2482
 7263TIP3    H145984   7.000   4.321   7.743 -0.5973 -0.2643 -0.7449
 7263TIP3    H245985   7.079   4.197   7.710  0.0082 -0.4646  1.3044
 7264TIP3   OH245986   0.422   8.427   7.632  0.5513 -0.9251 -0.0380
 7264TIP3    H145987   0.517   8.436   7.637  0.5032 -0.8606  0.9889
 7264TIP3    H245988   0.401   8.355   7.691 -0.0531 -0.7927 -0.0828
 7265TIP3   OH245989   7.195   0.176  13.659 -0.2787  0.2244 -0.2663
 7265TIP3    H145990   7.267   0.176  13.722  1.3921  0.0981 -2.1064
 7265TIP3    H245991   7.179   0.084  13.641 -2.3212  0.1242  1.5781
 7266TIP3   OH245992   0.864   1.776   8.013 -0.2370  0.6683 -0.1640
 7266TIP3    H145993   0.815   1.745   8.090  2.1398  0.5833  1.4011
 7266TIP3    H245994   0.874   1.698   7.958 -0.6931  0.3929  0.1382
 7267TIP3   OH245995   8.355   6.794   8.484  0.2766 -0.4286  0.3259
 7267TIP3    H145996   8.382   6.717   8.534 -1.0885 -1.3714 -0.3176
 7267TIP3    H245997   8.287   6.834   8.537 -1.9982 -2.0739 -1.1648
 7268TIP3   OH245998   3.951   7.719   8.115  0.4850 -0.3510 -0.2361
 7268TIP3    H145999   3.912   7.806   8.124 -1.1956 -1.0924  0.2243
 7268TIP3    H246000   4.026   7.731   8.057 -0.2876  1.2504 -0.9578
 7269TIP3   OH246001   4.898   1.252   8.458  0.2086 -0.3179 -0.1500
 7269TIP3    H146002   4.868   1.304   8.532  1.7376 -0.4362  0.5842
 7269TIP3    H246003   4.910   1.164   8.493 -1.6779 -1.0571 -1.2212
 7270TIP3   OH246004   0.653   5.245   9.317  0.1874 -0.2502  0.2355
 7270TIP3    H146005   0.694   5.306   9.379 -0.7949  1.0911 -0.3817
 7270TIP3    H246006   0.563   5.238   9.347 -0.1561 -0.0185 -0.7255
 7271TIP3   OH246007   6.703   3.843   8.415  0.4973 -0.0809 -0.8509
 7271TIP3    H146008   6.789   3.867   8.451  0.3529 -0.5948 -0.1341
 7271TIP3    H246009   6.696   3.894   8.334  0.8688  1.0478 -0.1936
 7272TIP3   OH246010   1.881   4.369   8.681 -0.0197 -0.4545 -0.7523
 7272TIP3    H146011   1.810   4.333   8.734 -1.1114 -0.6415 -2.2949
 7272TIP3    H246012   1.950   4.302   8.685 -0.3788 -0.7952 -0.1728
 7273TIP3   OH246013   1.649   3.324   7.479  0.2307 -0.3305 -0.2781
 7273TIP3    H146014   1.622   3.232   7.475  0.3154 -0.3396 -0.6652
 7273TIP3    H246015   1.589   3.364   7.542 -0.5452 -0.3986 -0.9605
 7274TIP3   OH246016   4.269   0.758   9.522  0.6544 -0.4500  0.3475
 7274TIP3    H146017   4.332   0.730   9.588  2.4196  0.3921 -0.9078
 7274TIP3    H246018   4.278   0.854   9.519 -0.2986 -0.3602 -0.2295
 7275TIP3   OH246019   3.231   4.910   8.768  0.0999 -0.4366 -0.5781
 7275TIP3    H146020   3.308   4.961   8.742 -0.2452 -0.5860 -1.9801
 7275TIP3    H246021   3.163   4.936   8.706 -0.7117 -1.0020  0.0538
 7276TIP3   OH246022   3.607   2.895   9.107 -0.4914 -0.4638  0.1265
 7276TIP3    H146023   3.516   2.907   9.135 -0.4846 -0.0637 -0.0201
 7276TIP3    H246024   3.644   2.835   9.171 -0.5199  0.3133  0.8777
 7277TIP3   OH246025   0.117   0.421   9.927 -0.8709  0.3059  0.0616
 7277TIP3    H146026   0.108   0.468  10.009  0.2146  0.1818  0.2554
 7277TIP3    H246027   0.100   0.330   9.949 -1.6963  0.4129 -0.0774
 7278TIP3   OH246028   0.266   1.854   9.396  0.2399 -0.1669  0.2838
 7278TIP3    H146029   0.327   1.921   9.427 -0.3952  0.3317  0.5004
 7278TIP3    H246030   0.239   1.807   9.475  0.5322 -0.5456  0.1579
 7279TIP3   OH246031   6.988   3.848   8.382 -0.2679 -0.0327 -0.8436
 7279TIP3    H146032   7.056   3.834   8.449 -0.6646 -1.7997 -0.7754
 7279TIP3    H246033   7.009   3.934   8.345 -0.0573  1.0428  1.5668
 7280TIP3   OH246034   6.904   3.745   9.213 -0.0459 -0.1202 -0.4216
 7280TIP3    H146035   6.999   3.753   9.213 -0.0246 -0.2077  0.4301
 7280TIP3    H246036   6.872   3.833   9.232 -0.2152  0.2998 -2.4482
 7281TIP3   OH246037   7.832   8.111   8.974  0.5189  0.0837  0.2668
 7281TIP3    H146038   7.849   8.106   9.068 -1.7291  3.9015  1.1011
 7281TIP3    H246039   7.740   8.084   8.965  0.5844  0.1606 -0.7906
 7282TIP3   OH246040   1.358   1.531   8.507  0.1594 -0.5499 -0.3042
 7282TIP3    H146041   1.395   1.618   8.493 -0.5493 -0.1881  0.0041
 7282TIP3    H246042   1.330   1.502   8.421 -1.1517  0.2583 -0.1829
 7283TIP3   OH246043   6.743   3.013   8.271  0.0497  0.1586 -0.5473
 7283TIP3    H146044   6.664   2.994   8.321 -0.7345  0.0196 -1.8071
 7283TIP3    H246045   6.814   3.008   8.336 -0.8637 -0.5594  0.4310
 7284TIP3   OH246046   0.547   5.988   7.657 -0.1325  0.0309  0.1646
 7284TIP3    H146047   0.505   6.074   7.657 -0.6647 -0.2050  1.4950
 7284TIP3    H246048   0.640   6.007   7.663 -0.0668  0.5424 -1.8621
 7285TIP3   OH246049   5.536   1.006   9.503  0.3329  0.0256  0.0200
 7285TIP3    H146050   5.625   0.973   9.495  0.4484  0.3041  0.1633
 7285TIP3    H246051   5.491   0.941   9.557  0.4158 -0.1778 -0.1541
 7286TIP3   OH246052   7.541   5.112   7.717 -0.3841 -0.1102  0.0480
 7286TIP3    H146053   7.598   5.106   7.794 -0.0913 -1.2402 -0.2322
 7286TIP3    H246054   7.514   5.203   7.714  0.3886  0.1642  0.9288
 7287TIP3   OH246055   1.361   1.578   7.756  0.1123  0.0086  0.1945
 7287TIP3    H146056   1.307   1.583   7.678 -1.5702 -0.2644  1.3028
 7287TIP3    H246057   1.393   1.488   7.758  1.8968  0.5531 -1.2489
 7288TIP3   OH246058   1.295   1.855   9.796 -0.4133 -0.1800 -0.1359
 7288TIP3    H146059   1.262   1.768   9.817  0.6764 -0.9274 -1.3867
 7288TIP3    H246060   1.236   1.888   9.729  0.4881 -0.9279 -1.3322
 7289TIP3   OH246061   0.417   4.834   8.477  0.1288 -0.1987  0.1940
 7289TIP3    H146062   0.503   4.875   8.485  0.0675 -0.4004  3.0608
 7289TIP3    H246063   0.359   4.904   8.448  0.5395  1.1378  2.3466
 7290TIP3   OH246064   4.650   6.050   8.148 -0.4275  0.4876 -0.2331
 7290TIP3    H146065   4.618   5.963   8.123 -2.3537  0.7749  1.0050
 7290TIP3    H246066   4.581   6.086   8.203  1.6837  1.5707  1.8998
 7291TIP3   OH246067   3.504   2.037   8.143 -0.1684  0.2187 -0.0603
 7291TIP3    H146068   3.502   2.089   8.062 -2.5302  0.9597  0.3968
 7291TIP3    H246069   3.423   1.986   8.141  0.3016 -0.6430  1.2950
 7292TIP3   OH246070   0.166   1.135   8.600 -0.2670  0.0836 -0.2012
 7292TIP3    H146071   0.203   1.163   8.516  0.2020 -0.6211 -0.2424
 7292TIP3    H246072   0.073   1.157   8.594 -0.0974  0.7212 -0.6095
 7293TIP3   OH246073   7.398   5.703   9.302  0.3000  0.4197 -0.4828
 7293TIP3    H146074   7.413   5.775   9.363  1.5293 -1.6640  1.8195
 7293TIP3    H246075   7.315   5.664   9.330  0.1844  0.2632 -1.0209
 7294TIP3   OH246076   7.602   5.531   9.119  0.2528 -0.6839  0.4855
 7294TIP3    H146077   7.570   5.455   9.071  1.7097 -0.9401 -0.1230
 7294TIP3    H246078   7.672   5.497   9.174  1.3094  0.2925 -0.2103
 7295TIP3   OH246079   5.726   3.053   8.528  0.1812 -0.1168 -0.1498
 7295TIP3    H146080   5.739   3.129   8.471  0.2584 -0.0895 -0.0963
 7295TIP3    H246081   5.815   3.021   8.545  0.1208 -0.4980 -0.5470
 7296TIP3   OH246082   2.876   3.595   7.820 -0.2730  0.1306  0.7378
 7296TIP3    H146083   2.903   3.675   7.864  0.7490 -0.0295  0.4254
 7296TIP3    H246084   2.901   3.525   7.880 -0.1035 -0.0125  0.5046
 7297TIP3   OH246085   2.061   8.422   8.669 -0.5877 -0.2006 -1.0353
 7297TIP3    H146086   2.120   8.349   8.653 -1.2707 -0.4740 -2.4779
 7297TIP3    H246087   2.050   8.424   8.764  2.2479  0.3046 -0.6349
 7298TIP3   OH246088   3.682   7.347   9.020 -1.0611 -0.3029 -0.1475
 7298TIP3    H146089   3.734   7.282   9.067 -1.4197  1.5564  3.1140
 7298TIP3    H246090   3.746   7.409   8.986 -0.9104 -0.5067 -0.2368
 7299TIP3   OH246091   2.392   6.963   8.817 -0.2431  0.0637  0.6058
 7299TIP3    H146092   2.457   6.902   8.782  0.1382  0.3764  0.7598
 7299TIP3    H246093   2.357   6.918   8.894 -1.6687 -0.9823 -0.5903
 7300TIP3   OH246094   2.134   7.632   9.090 -0.0860  0.0363  0.2900
 7300TIP3    H146095   2.089   7.679   9.160  1.4686  1.9839  0.0490
 7300TIP3    H246096   2.210   7.686   9.069 -0.2127 -0.7231 -2.5624
 7301TIP3   OH246097   7.427   0.677   8.721  0.7529 -0.2865 -0.7254
 7301TIP3    H146098   7.402   0.713   8.806  2.3939  0.4018 -0.5051
 7301TIP3    H246099   7.492   0.610   8.742  0.3296 -0.9284 -1.3845
 7302TIP3   OH246100   3.602   3.688   9.347  0.3538  0.6173  0.1257
 7302TIP3    H146101   3.574   3.742   9.272 -0.9866 -2.0713 -1.4710
 7302TIP3    H246102   3.527   3.687   9.405 -0.1929 -0.6146 -0.5604
 7303TIP3   OH246103   3.166   3.011   9.051  0.0852 -0.7911  0.6240
 7303TIP3    H146104   3.117   3.024   9.132 -0.7671  1.4440 -0.1684
 7303TIP3    H246105   3.236   3.077   9.055  0.4437 -1.1102 -0.1484
 7304TIP3   OH246106   3.728   3.826   8.101  0.1700 -0.2059 -0.1944
 7304TIP3    H146107   3.741   3.912   8.140  2.2482  0.0361 -1.2735
 7304TIP3    H246108   3.657   3.838   8.037  0.6588  0.7860 -0.5645
 7305TIP3   OH246109   7.209   8.387   8.551  0.2213  0.5374 -0.4167
 7305TIP3    H146110   7.300   8.414   8.535  0.1303  1.9298  1.1874
 7305TIP3    H246111   7.161   8.419   8.475  0.9013  0.7242 -0.7759
 7306TIP3   OH246112   2.545   2.338   9.180  0.2443  0.4414  0.2035
 7306TIP3    H146113   2.619   2.396   9.195  1.3607 -0.7544 -0.4545
 7306TIP3    H246114   2.497   2.377   9.107  1.7559 -0.1353 -1.1430
 7307TIP3   OH246115   4.462   7.105   8.754 -0.3505 -0.5844  0.0592
 7307TIP3    H146116   4.541   7.127   8.703 -0.3296  0.5810  0.5603
 7307TIP3    H246117   4.479   7.018   8.788  0.8527 -0.2446  0.3819
 7308TIP3   OH246118   6.556   5.964   9.283 -0.9535 -0.1127  0.1984
 7308TIP3    H146119   6.620   5.935   9.218 -3.0056 -2.7680 -0.7922
 7308TIP3    H246120   6.541   6.056   9.262 -0.6845 -0.5852 -2.3946
 7309TIP3   OH246121   2.092   6.919   8.971  1.0929  0.0482  0.0452
 7309TIP3    H146122   2.025   6.868   9.017  2.6093 -0.2044  2.1390
 7309TIP3    H246123   2.044   6.991   8.931 -0.3850  0.2157  1.9859
 7310TIP3   OH246124   8.290   7.969   9.698 -0.2804  0.0886 -0.4423
 7310TIP3    H146125   8.197   7.991   9.698 -0.2022  0.5486 -2.2202
 7310TIP3    H246126   8.334   8.051   9.677  0.4555 -0.3323 -0.5856
 7311TIP3   OH246127   5.337   5.475   9.915  0.0354  0.0982  0.0777
 7311TIP3    H146128   5.379   5.390   9.925  1.0585  0.5748 -0.0050
 7311TIP3    H246129   5.392   5.522   9.852 -0.7826  0.6468 -0.2441
 7312TIP3   OH246130   6.942   3.678  10.080 -0.0071  0.2018 -0.3028
 7312TIP3    H146131   6.901   3.742  10.021  0.3215 -0.2288 -1.0083
 7312TIP3    H246132   6.872   3.615  10.099  0.2392 -0.4055 -1.3231
 7313TIP3   OH246133   4.340   2.388   7.807 -0.3965 -0.1845 -0.3538
 7313TIP3    H146134   4.370   2.447   7.738  0.4894 -0.1344  0.0617
 7313TIP3    H246135   4.244   2.396   7.804 -0.4404 -0.8384 -2.1341
 7314TIP3   OH246136   6.285   6.093  10.180 -0.4230  0.5697 -0.3873
 7314TIP3    H146137   6.377   6.072  10.169 -0.3474  0.9255 -0.4193
 7314TIP3    H246138   6.277   6.117  10.273 -0.4466  0.7261 -0.4295
 7315TIP3   OH246139   6.130   3.516   9.605 -0.6804  0.6521  0.5152
 7315TIP3    H146140   6.042   3.503   9.641 -0.4547 -1.5215  0.4282
 7315TIP3    H246141   6.117   3.517   9.510 -0.6663  0.8802  0.5153
 7316TIP3   OH246142   5.708   4.592   8.147  0.0235 -0.5863 -0.7321
 7316TIP3    H146143   5.641   4.576   8.213  0.4236 -2.0335 -0.6484
 7316TIP3    H246144   5.769   4.653   8.189 -1.1012  0.6004 -0.7434
 7317TIP3   OH246145   4.375   4.730   8.667  0.3730  0.2506 -0.2339
 7317TIP3    H146146   4.325   4.811   8.674  0.4456  0.2785 -0.0331
 7317TIP3    H246147   4.457   4.756   8.625  0.7168  0.4206  0.5359
 7318TIP3   OH246148   1.321   3.038   9.808 -0.3006 -0.5322  0.5162
 7318TIP3    H146149   1.321   2.943   9.820 -1.4088 -0.6184 -0.0388
 7318TIP3    H246150   1.228   3.061   9.798  0.0931  0.1306 -2.8308
 7319TIP3   OH246151   4.834   6.578   8.964  0.0968 -0.7073  0.3830
 7319TIP3    H146152   4.768   6.522   9.003  0.8775  0.3796  3.5347
 7319TIP3    H246153   4.917   6.542   8.995  0.6732  1.2497  1.2641
 7320TIP3   OH246154   5.573   1.363   8.085  0.3095 -0.6248  0.6530
 7320TIP3    H146155   5.593   1.282   8.132 -0.0977 -0.3208  1.3725
 7320TIP3    H246156   5.658   1.394   8.053  0.2853 -2.2281 -1.1663
 7321TIP3   OH246157   0.283   5.286   7.967 -0.3351 -0.8260  0.2979
 7321TIP3    H146158   0.375   5.280   7.994 -0.9599 -2.1661  2.2897
 7321TIP3    H246159   0.241   5.336   8.037 -1.1589 -0.2190 -0.6060
 7322TIP3   OH246160   4.293   3.443   8.010  0.2224 -0.1274  0.2857
 7322TIP3    H146161   4.289   3.350   8.034  1.1156 -0.0397  0.8234
 7322TIP3    H246162   4.260   3.489   8.087  0.4477  0.0290  0.2903
 7323TIP3   OH246163   0.312   5.830   8.594 -0.5713  0.7475 -0.4896
 7323TIP3    H146164   0.264   5.913   8.592 -1.8117  0.0434 -1.1396
 7323TIP3    H246165   0.252   5.767   8.554 -0.2154 -0.7645  1.2645
 7324TIP3   OH246166   0.116   4.894   8.451  0.0487 -0.1863  0.1028
 7324TIP3    H146167   0.169   4.973   8.453  1.1380 -0.8838 -0.0444
 7324TIP3    H246168   0.107   4.873   8.358 -1.0211  0.2441  0.0856
 7325TIP3   OH246169   8.428   8.396   7.702 -0.5533  0.2532 -0.5600
 7325TIP3    H146170   8.344   8.430   7.670 -0.3913  2.3432  1.0103
 7325TIP3    H246171   8.412   8.372   7.793  0.3936  0.1181 -0.4126
 7326TIP3   OH246172   5.524   8.140   9.586  0.4144  0.4195  0.4720
 7326TIP3    H146173   5.610   8.115   9.620  0.7867  0.7125 -0.2273
 7326TIP3    H246174   5.525   8.110   9.495 -0.0289  0.8829  0.3104
 7327TIP3   OH246175   7.558   7.786   8.467 -0.2225  0.8015  0.0618
 7327TIP3    H146176   7.628   7.785   8.401 -0.0288  0.0003  0.2808
 7327TIP3    H246177   7.543   7.879   8.483  1.2150  0.9977  0.4567
 7328TIP3   OH246178   6.791   3.371   8.962 -0.1462 -0.0067  0.6936
 7328TIP3    H146179   6.852   3.393   9.033 -0.7524 -0.2776  1.3088
 7328TIP3    H246180   6.771   3.455   8.921  2.1733 -0.0981 -0.8265
 7329TIP3   OH246181   3.441   4.254   8.612 -0.5573 -0.0647  0.1863
 7329TIP3    H146182   3.471   4.296   8.531 -0.6202  1.0739  0.7345
 7329TIP3    H246183   3.351   4.284   8.623 -0.8485 -0.9229  0.2308
 7330TIP3   OH246184   1.892   8.160   8.331 -0.4274 -0.2928 -0.2785
 7330TIP3    H146185   1.935   8.076   8.320 -0.7407 -0.4718 -0.1258
 7330TIP3    H246186   1.802   8.139   8.353 -0.1571  0.0610  1.3022
 7331TIP3   OH246187   0.787   6.045   8.297  0.4165 -0.2216 -0.3053
 7331TIP3    H146188   0.840   6.074   8.371  0.3101 -1.3853  0.2381
 7331TIP3    H246189   0.718   6.112   8.290  1.6604  1.0710 -0.7588
 7332TIP3   OH246190   2.231   2.094   9.900 -0.3105  0.4518 -0.0702
 7332TIP3    H146191   2.282   2.066   9.825  1.6454 -0.2273  1.4362
 7332TIP3    H246192   2.148   2.045   9.892  0.5041 -0.8449 -0.9222
 7333TIP3   OH246193   5.747   7.700   8.196  0.2272  0.2527  0.1971
 7333TIP3    H146194   5.693   7.778   8.192  0.2512  0.6434  3.7446
 7333TIP3    H246195   5.835   7.729   8.171  0.0181  1.1073  0.4428
 7334TIP3   OH246196   1.942   0.338   8.619 -0.1631  0.0637 -0.1653
 7334TIP3    H146197   1.986   0.336   8.534 -1.5071  0.1441 -0.8845
 7334TIP3    H246198   2.004   0.382   8.678  0.9276 -0.3130 -1.0064
 7335TIP3   OH246199   1.831   3.343   8.332 -0.1487 -0.4472  0.1379
 7335TIP3    H146200   1.843   3.282   8.404 -0.2706 -0.5648  0.0604
 7335TIP3    H246201   1.743   3.324   8.300 -0.0476 -0.4825 -0.1217
 7336TIP3   OH246202   4.791   4.892   9.453 -0.5841  0.4159 -0.1899
 7336TIP3    H146203   4.885   4.878   9.446 -0.4347  2.1460 -3.4396
 7336TIP3    H246204   4.754   4.845   9.379 -2.2854  0.0815  0.8098
 7337TIP3   OH246205   3.033   0.579   8.214  0.3395 -0.0460 -0.9171
 7337TIP3    H146206   3.118   0.587   8.171  0.9696 -2.3234 -0.2584
 7337TIP3    H246207   2.970   0.569   8.142  0.7357  0.8227 -1.3901
 7338TIP3   OH246208   0.129   4.380   9.695 -0.0696  0.2434 -0.1100
 7338TIP3    H146209   0.197   4.313   9.702 -0.0827  0.3832  2.1706
 7338TIP3    H246210   0.176   4.462   9.680  0.2896  0.3202  1.3211
 7339TIP3   OH246211   7.142   7.546   8.730 -0.1587  0.0047 -0.4187
 7339TIP3    H146212   7.222   7.533   8.782 -1.4007  0.8577  1.8408
 7339TIP3    H246213   7.136   7.641   8.719 -1.6768  0.0887  0.8708
 7340TIP3   OH246214   5.243   1.941   8.049 -0.1964  0.5448 -0.0410
 7340TIP3    H146215   5.300   1.865   8.044 -0.4213  0.3053  0.9110
 7340TIP3    H246216   5.155   1.905   8.059 -0.3955  0.9256 -0.3728
 7341TIP3   OH246217   8.375   7.080   9.432  0.6156 -0.2673  0.2346
 7341TIP3    H146218   8.327   7.072   9.349 -2.2823 -1.8021  1.8951
 7341TIP3    H246219   8.429   7.001   9.436 -1.1281 -1.4815  0.8380
 7342TIP3   OH246220   5.650   6.541   8.310  0.3852 -0.3097 -0.3713
 7342TIP3    H146221   5.615   6.453   8.295  1.2139 -0.3404 -2.4695
 7342TIP3    H246222   5.714   6.554   8.240  1.2110  1.4922  0.6445
 7343TIP3   OH246223   1.464   2.578   8.938 -0.1312  0.2015  0.1447
 7343TIP3    H146224   1.530   2.509   8.927  0.7169  1.0299 -0.0721
 7343TIP3    H246225   1.387   2.545   8.890  0.4725 -0.3110 -0.4911
 7344TIP3   OH246226   5.185   0.191   8.810 -0.2401  0.4969 -0.7174
 7344TIP3    H146227   5.248   0.130   8.773 -0.4407  0.9310 -1.8226
 7344TIP3    H246228   5.157   0.151   8.893  1.2114  0.1386 -0.3858
 7345TIP3   OH246229   1.612   1.778   7.976  0.0885  0.0077 -0.3280
 7345TIP3    H146230   1.632   1.757   8.068 -1.3552  0.0993  0.0317
 7345TIP3    H246231   1.644   1.868   7.965 -0.2243  0.1986  0.2598
 7346TIP3   OH246232   2.506   2.542   9.911 -0.3606  0.3589 -0.3589
 7346TIP3    H146233   2.465   2.625   9.886  1.2167  1.2702 -0.0602
 7346TIP3    H246234   2.508   2.544  10.007  0.5914  0.4543 -0.3742
 7347TIP3   OH246235   3.680   6.981   9.703 -0.1590  0.2819  0.5726
 7347TIP3    H146236   3.662   7.072   9.725  1.5490  0.5398  1.0652
 7347TIP3    H246237   3.700   6.940   9.787 -1.3260 -0.6736  0.4044
 7348TIP3   OH246238   1.769   7.590   8.082  0.0403  0.0086 -0.2932
 7348TIP3    H146239   1.696   7.546   8.124 -0.9243 -0.0009 -1.8872
 7348TIP3    H246240   1.782   7.542   8.000  2.5025 -0.6178  0.3603
 7349TIP3   OH246241   7.414   0.386  10.351  0.2600  0.0470  0.1950
 7349TIP3    H146242   7.373   0.427  10.274  2.5499  3.0678  0.3638
 7349TIP3    H246243   7.343   0.375  10.413 -1.0115  1.2914 -0.9628
 7350TIP3   OH246244   2.302   2.017   7.811  0.3354  0.2692  0.1166
 7350TIP3    H146245   2.209   1.996   7.821  0.4590 -0.6229 -0.4385
 7350TIP3    H246246   2.314   2.026   7.716  0.8431  0.2447  0.1759
 7351TIP3   OH246247   0.618   4.608   9.355 -0.2847 -0.0229  0.6245
 7351TIP3    H146248   0.701   4.597   9.401 -1.2492 -0.2126  2.4491
 7351TIP3    H246249   0.615   4.701   9.334  0.2759  0.0379  0.7843
 7352TIP3   OH246250   4.782   5.337   9.662 -0.2261  0.0229 -0.2007
 7352TIP3    H146251   4.729   5.308   9.588 -0.2275 -1.1904  0.2525
 7352TIP3    H246252   4.723   5.331   9.737 -0.5135  2.1409 -0.1986
 7353TIP3   OH246253   8.329   6.072   8.274  0.2289 -0.4713 -0.3853
 7353TIP3    H146254   8.321   6.145   8.212  2.2309  0.5790  0.4838
 7353TIP3    H246255   8.240   6.054   8.303 -0.3958  1.0649 -1.2654
 7354TIP3   OH246256   4.448   5.854   7.965  0.1989 -0.2056  0.0519
 7354TIP3    H146257   4.528   5.802   7.967  0.6391  0.4536 -0.0350
 7354TIP3    H246258   4.394   5.813   7.898 -0.8862 -2.5699  2.2009
 7355TIP3   OH246259   6.456   7.581   8.814  0.0071  0.0271 -0.2828
 7355TIP3    H146260   6.377   7.527   8.809  0.1769 -0.2556  0.0481
 7355TIP3    H246261   6.527   7.521   8.791  0.2171  0.0592  0.2582
 7356TIP3   OH246262   2.260   8.066   9.563 -0.2917 -0.5653  0.6575
 7356TIP3    H146263   2.331   8.119   9.527  0.1017 -0.3049  1.7574
 7356TIP3    H246264   2.187   8.127   9.575 -0.7389 -0.8470 -0.5377
 7357TIP3   OH246265   1.533   7.507   8.242  0.0713  0.5039  0.3540
 7357TIP3    H146266   1.512   7.421   8.279 -0.5427  0.7255  0.5258
 7357TIP3    H246267   1.487   7.509   8.158 -0.0506  0.7295  0.4260
 7358TIP3   OH246268   6.308   2.920   7.932 -0.4180  0.4404  0.4325
 7358TIP3    H146269   6.287   2.827   7.923  0.3131  0.2626  0.4983
 7358TIP3    H246270   6.390   2.922   7.981 -0.8500  1.1541  1.1435
 7359TIP3   OH246271   7.372   0.753   8.991  0.2117 -0.2782 -0.5156
 7359TIP3    H146272   7.327   0.696   9.053 -1.0213  0.0462 -1.0730
 7359TIP3    H246273   7.339   0.841   9.012  2.5601  0.3820  0.7666
 7360TIP3   OH246274   2.080   1.628   8.969 -0.4031  0.4998  0.3245
 7360TIP3    H146275   2.092   1.666   8.882  0.9244  0.8966  0.6690
 7360TIP3    H246276   2.126   1.688   9.028 -2.8428  1.2998  1.5809
 7361TIP3   OH246277   8.025   2.039   8.569 -0.2169  0.4165 -0.5804
 7361TIP3    H146278   7.990   2.021   8.657 -0.4722 -1.8982 -1.0821
 7361TIP3    H246279   7.948   2.036   8.512  0.3289 -1.7345 -1.3038
 7362TIP3   OH246280   4.469   5.432   7.871 -0.2217  0.3327  0.4963
 7362TIP3    H146281   4.445   5.427   7.964  2.5295 -1.7024  1.2379
 7362TIP3    H246282   4.442   5.347   7.835 -0.7484  0.8910 -0.4608
 7363TIP3   OH246283   0.016   2.820   8.182  0.2075 -0.3181  0.1169
 7363TIP3    H146284   0.067   2.783   8.254  0.6578  0.1573  0.0459
 7363TIP3    H246285  -0.075   2.811   8.210  0.3264 -1.0929  0.2806
 7364TIP3   OH246286   1.862   3.308   8.602 -0.0014  0.1111  0.4820
 7364TIP3    H146287   1.866   3.403   8.590  1.3656 -0.0402 -0.6132
 7364TIP3    H246288   1.953   3.282   8.615 -0.4543 -0.9612  1.6802
 7365TIP3   OH246289   5.777   8.324   7.981 -0.3216  0.4906 -0.0688
 7365TIP3    H146290   5.817   8.315   8.068 -1.3538 -0.7456  0.3089
 7365TIP3    H246291   5.755   8.234   7.955 -0.8160  0.9245 -1.2344
 7366TIP3   OH246292   8.173   3.154   8.582 -0.3428  0.4558 -0.3143
 7366TIP3    H146293   8.224   3.116   8.510 -2.5347 -1.8948 -0.7555
 7366TIP3    H246294   8.082   3.140   8.557 -1.1855  0.2063  2.5622
 7367TIP3   OH246295   3.005   7.787   9.406 -0.1746  0.2915  0.0635
 7367TIP3    H146296   2.948   7.776   9.483  0.9248 -0.6095  0.7781
 7367TIP3    H246297   2.972   7.723   9.343 -1.0560  1.0046 -0.2258
 7368TIP3   OH246298   7.945   8.304   9.293  1.0401  0.0154 -0.4437
 7368TIP3    H146299   7.993   8.323   9.213  0.9429 -1.8599 -0.9945
 7368TIP3    H246300   7.949   8.208   9.301  0.1797  0.0926  1.2388
 7369TIP3   OH246301   4.508   2.682   7.669  0.2166  0.0502 -0.2819
 7369TIP3    H146302   4.464   2.766   7.683  0.9989  0.6794 -1.4555
 7369TIP3    H246303   4.600   2.699   7.691  0.7470  0.0476 -2.3458
 7370TIP3   OH246304   0.589   1.796   7.645  0.5928 -0.0666  0.0926
 7370TIP3    H146305   0.571   1.888   7.631  1.8969  0.0059 -1.3325
 7370TIP3    H246306   0.529   1.750   7.587 -1.0569 -0.2489  1.8120
 7371TIP3   OH246307   0.095   1.373   8.373  0.2422 -0.2217  0.2352
 7371TIP3    H146308   0.051   1.457   8.361  1.0693 -0.0539 -2.1087
 7371TIP3    H246309   0.146   1.384   8.454 -0.5669  1.1088  0.5877
 7372TIP3   OH246310   7.185   8.240   9.352  0.3795 -0.0655  0.5084
 7372TIP3    H146311   7.200   8.193   9.270 -1.9107  1.6172 -0.9679
 7372TIP3    H246312   7.110   8.196   9.391 -1.9490  2.2969 -1.0079
 7373TIP3   OH246313   5.257   6.418   9.479  0.0832  0.2487 -0.1763
 7373TIP3    H146314   5.197   6.492   9.485 -0.4836 -0.0024 -1.9478
 7373TIP3    H246315   5.220   6.352   9.538 -0.5627  0.6408 -0.1364
 7374TIP3   OH246316   2.282   3.860   8.763  0.5455  0.1545 -0.1614
 7374TIP3    H146317   2.315   3.934   8.712  1.0402  0.6027  0.7719
 7374TIP3    H246318   2.213   3.898   8.818  0.3811 -0.2086 -0.1112
 7375TIP3   OH246319   8.396   2.501   8.657 -0.5391  0.5869  0.3345
 7375TIP3    H146320   8.302   2.493   8.640 -0.3542 -0.9654 -0.1666
 7375TIP3    H246321   8.431   2.414   8.636  1.3122  1.6721 -1.4927
 7376TIP3   OH246322   3.358   5.601   8.121 -0.0325 -0.3001  0.6528
 7376TIP3    H146323   3.266   5.586   8.098 -0.0280 -0.4340  0.7217
 7376TIP3    H246324   3.401   5.617   8.037 -0.0887 -0.3975  0.6053
 7377TIP3   OH246325   2.690   7.609   9.088 -0.8679 -0.3579  0.2079
 7377TIP3    H146326   2.698   7.656   9.170  0.0072 -0.6329  0.2890
 7377TIP3    H246327   2.628   7.538   9.107  0.5634 -1.4246  1.1213
 7378TIP3   OH246328   5.293   1.384   9.327  0.5980  0.2362 -0.2048
 7378TIP3    H146329   5.262   1.429   9.406 -0.4122 -0.1504 -0.3689
 7378TIP3    H246330   5.301   1.453   9.261 -1.7970  0.0904 -0.7149
 7379TIP3   OH246331   1.952   7.757   8.823 -0.1791  0.3967  0.6124
 7379TIP3    H146332   2.001   7.710   8.891 -1.6628  1.4067  2.4703
 7379TIP3    H246333   1.915   7.687   8.769  2.2123 -0.4076 -0.1320
 7380TIP3   OH246334   6.186   2.104   7.882  0.4678 -0.3795  0.1227
 7380TIP3    H146335   6.095   2.126   7.862  1.0293 -0.1314 -2.5320
 7380TIP3    H246336   6.211   2.167   7.951 -1.2246 -0.2233  0.6446
 7381TIP3   OH246337   6.251   6.824   8.128  0.3692  0.1035 -0.3209
 7381TIP3    H146338   6.225   6.806   8.218  0.8252  0.9541 -0.0059
 7381TIP3    H246339   6.226   6.745   8.079 -0.2659 -0.1904  0.4661
 7382TIP3   OH246340   5.661   4.276   7.745 -0.1428  0.1425  0.0174
 7382TIP3    H146341   5.697   4.189   7.727  0.1737  0.3033 -0.1480
 7382TIP3    H246342   5.570   4.271   7.718  0.0402  0.0511 -0.5961
 7383TIP3   OH246343   3.166   7.920   8.510 -0.0689 -0.4005  0.4957
 7383TIP3    H146344   3.165   7.836   8.556 -1.1423 -1.1562 -0.8375
 7383TIP3    H246345   3.256   7.952   8.521 -0.2412 -0.5798  2.9763
 7384TIP3   OH246346   1.091   7.454   8.705  0.4025 -0.1672  0.3707
 7384TIP3    H146347   1.085   7.518   8.634  0.7639 -0.8420 -0.2893
 7384TIP3    H246348   1.009   7.405   8.699  0.8076 -0.8002 -0.1659
 7385TIP3   OH246349   5.808   0.173   9.864 -0.6091  0.2423  0.0387
 7385TIP3    H146350   5.845   0.215   9.942 -1.0636 -0.2178  0.5141
 7385TIP3    H246351   5.713   0.185   9.873 -0.9672 -2.7629  1.3463
 7386TIP3   OH246352   1.666   6.605   8.534  0.4044  0.1296  0.2356
 7386TIP3    H146353   1.743   6.577   8.584 -1.4634 -0.0382  3.2850
 7386TIP3    H246354   1.671   6.701   8.536  0.3662  0.1253  0.7503
 7387TIP3   OH246355   0.783   4.150   8.497 -0.0656 -0.1562 -0.5039
 7387TIP3    H146356   0.848   4.190   8.440  1.4455 -1.5215  0.1731
 7387TIP3    H246357   0.760   4.218   8.560  1.2059  0.1799 -0.3755
 7388TIP3   OH246358   5.296   7.008  10.375 -0.0810 -0.2112  0.1104
 7388TIP3    H146359   5.301   7.103  10.380 -1.5398  0.1275 -2.6496
 7388TIP3    H246360   5.202   6.989  10.372  0.1172 -1.9329  2.1924
 7389TIP3   OH246361   3.866   0.268   8.242  0.1451  0.3983 -0.0046
 7389TIP3    H146362   3.776   0.234   8.236  0.5525 -0.5166 -1.4318
 7389TIP3    H246363   3.875   0.293   8.334 -1.4853  0.2703  0.2340
 7390TIP3   OH246364   2.815   4.638   8.129 -0.0702 -0.4378 -0.2037
 7390TIP3    H146365   2.792   4.612   8.039  1.4693  0.2525 -0.8312
 7390TIP3    H246366   2.897   4.593   8.146  0.5585  0.8120  0.1909
 7391TIP3   OH246367   7.922   2.231   8.228  0.5238 -0.2910  0.2063
 7391TIP3    H146368   7.849   2.284   8.196  0.4237  0.8859  2.2109
 7391TIP3    H246369   7.895   2.141   8.212  0.2844  0.1527 -2.4326
 7392TIP3   OH246370   6.185   6.212   8.609 -0.5394 -0.2558 -0.5009
 7392TIP3    H146371   6.170   6.159   8.688  2.2867 -0.8679 -0.2507
 7392TIP3    H246372   6.126   6.286   8.618 -0.5991 -0.5219  2.0130
 7393TIP3   OH246373   6.997   2.482   8.661  0.1561  0.1226 -0.1113
 7393TIP3    H146374   7.035   2.567   8.686 -1.7094  0.9914 -0.0765
 7393TIP3    H246375   6.929   2.466   8.726  0.7028 -1.6058  0.0790
 7394TIP3   OH246376   3.904   3.769   8.630  0.0045 -0.0917  0.3746
 7394TIP3    H146377   3.939   3.680   8.636  0.5429 -0.0295 -1.3196
 7394TIP3    H246378   3.828   3.761   8.572 -0.1183  0.4916  0.4499
 7395TIP3   OH246379   1.242   1.971   8.166  0.7234 -0.3963 -0.0973
 7395TIP3    H146380   1.225   1.974   8.071  0.1156 -1.0184 -0.0201
 7395TIP3    H246381   1.280   1.884   8.180 -0.7619 -1.0103  0.4473
 7396TIP3   OH246382   1.412   2.542   8.399  0.3197  0.1617 -0.0471
 7396TIP3    H146383   1.463   2.537   8.480  0.8785  2.3795 -0.2031
 7396TIP3    H246384   1.338   2.598   8.421 -3.7072 -4.7182  0.8898
 7397TIP3   OH246385   2.739   1.672   8.286 -0.0885  0.1506 -0.0973
 7397TIP3    H146386   2.745   1.767   8.272  1.0773  0.0367 -0.4410
 7397TIP3    H246387   2.814   1.636   8.239 -2.0657 -1.2143 -2.4694
 7398TIP3   OH246388   0.015   7.053   8.053 -0.2010  0.0737 -0.3176
 7398TIP3    H146389   0.068   6.973   8.057 -1.8329 -1.0396 -0.0411
 7398TIP3    H246390   0.007   7.081   8.144  0.0267  0.3197 -0.3728
 7399TIP3   OH246391   7.255   5.740   8.717 -0.2258  0.2199 -0.0389
 7399TIP3    H146392   7.340   5.758   8.759  0.1075  1.2533 -1.1070
 7399TIP3    H246393   7.192   5.742   8.790  0.5747  0.1371  0.6709
 7400TIP3   OH246394   4.776   0.993   9.273 -0.1721  0.2992 -0.2449
 7400TIP3    H146395   4.779   0.897   9.274 -0.3626  0.2880 -0.6099
 7400TIP3    H246396   4.685   1.014   9.252 -0.2280  0.5636  0.2466
 7401TIP3   OH246397   4.489   3.637   9.116 -0.5000 -0.2966  0.0275
 7401TIP3    H146398   4.421   3.701   9.099  0.0834  0.4767  0.5152
 7401TIP3    H246399   4.469   3.602   9.203  0.6825  1.2434  0.9782
 7402TIP3   OH246400   7.203   1.202   8.043  0.6580 -0.1466 -0.0074
 7402TIP3    H146401   7.173   1.143   8.113 -0.0295  0.9556  0.6611
 7402TIP3    H246402   7.190   1.290   8.079  0.8756  0.4346 -1.2945
 7403TIP3   OH246403   2.062   0.736   8.394 -0.1542 -0.0393 -0.0441
 7403TIP3    H146404   2.114   0.729   8.474  0.3508 -1.3113 -0.4563
 7403TIP3    H246405   2.082   0.656   8.345  0.7676  1.4313 -2.1961
 7404TIP3   OH246406   0.316   2.284   9.375  0.1040 -0.1031 -0.5763
 7404TIP3    H146407   0.257   2.266   9.448  0.6887 -0.7109 -0.2445
 7404TIP3    H246408   0.285   2.367   9.339 -0.8529 -0.3370 -0.3162
 7405TIP3   OH246409   1.199   4.386   9.916  0.1516  0.6835  0.3027
 7405TIP3    H146410   1.176   4.464   9.967 -0.0766  0.6609  0.2348
 7405TIP3    H246411   1.215   4.420   9.828 -2.1463  0.3810 -0.2806
 7406TIP3   OH246412   7.037   6.465   9.402  0.4268 -0.2984 -0.4924
 7406TIP3    H146413   7.102   6.512   9.351 -0.4559  0.2225 -1.1802
 7406TIP3    H246414   6.981   6.534   9.439 -0.9820 -0.7729 -1.6414
 7407TIP3   OH246415   5.825   7.744   8.705 -0.2101  0.3410 -0.3095
 7407TIP3    H146416   5.874   7.788   8.635  1.8802 -2.7666 -0.9748
 7407TIP3    H246417   5.744   7.716   8.663  0.4224 -0.2856 -1.1568
 7408TIP3   OH246418   3.157   1.422   8.991  0.7182 -0.0062  0.0638
 7408TIP3    H146419   3.152   1.461   8.904  1.0635 -0.3547 -0.1129
 7408TIP3    H246420   3.153   1.328   8.976  1.1359 -0.0827  0.3947
 7409TIP3   OH246421   4.806   7.454   9.744 -0.3802 -0.1848  0.2793
 7409TIP3    H146422   4.853   7.537   9.739 -0.1195 -0.3357  0.2287
 7409TIP3    H246423   4.846   7.399   9.677  0.6702 -0.9695  1.5141
 7410TIP3   OH246424   1.077   8.405   7.763 -0.3787 -0.1725  0.0168
 7410TIP3    H146425   0.993   8.430   7.803 -0.6517 -0.5380 -0.3187
 7410TIP3    H246426   1.120   8.352   7.830 -0.3231  0.1882  0.2695
 7411TIP3   OH246427   8.043   1.342   7.933  0.1156  0.3173 -0.1363
 7411TIP3    H146428   8.107   1.301   7.991  1.3864  1.9312 -0.3282
 7411TIP3    H246429   7.978   1.380   7.992  0.6570  0.7489  0.2020
 7412TIP3   OH246430   2.981   6.129   7.854  0.1024 -0.0328 -0.2103
 7412TIP3    H146431   2.994   6.217   7.819  0.0699  0.5733  1.2232
 7412TIP3    H246432   2.903   6.097   7.809  1.6801 -0.4890 -2.8487
 7413TIP3   OH246433   0.974   5.722   8.593 -0.3091  0.2859  0.1975
 7413TIP3    H146434   0.977   5.809   8.633 -0.3730  0.1276  0.5495
 7413TIP3    H246435   0.913   5.731   8.520 -0.3579  0.5221  0.2678
 7414TIP3   OH246436   6.391   5.581   9.458  0.2439  0.6041 -0.3432
 7414TIP3    H146437   6.372   5.492   9.429 -0.7833  0.4611  0.7052
 7414TIP3    H246438   6.450   5.571   9.533  0.7130  0.8441 -0.6746
 7415TIP3   OH246439   2.680   4.254   7.715  0.2230  0.1440 -0.1362
 7415TIP3    H146440   2.648   4.304   7.790 -0.1611 -1.0205  0.4967
 7415TIP3    H246441   2.623   4.280   7.643 -2.0277 -1.6622  0.9040
 7416TIP3   OH246442   4.501   1.484   8.141  0.2947 -0.5129 -0.2472
 7416TIP3    H146443   4.480   1.541   8.066  0.6278  0.0899  0.1108
 7416TIP3    H246444   4.419   1.437   8.158  0.3600 -1.0556 -1.3203
 7417TIP3   OH246445   0.852   3.567   9.738 -0.0353 -0.1703 -0.1185
 7417TIP3    H146446   0.764   3.532   9.725  0.3882 -0.6396 -1.8572
 7417TIP3    H246447   0.908   3.490   9.749  0.6354 -0.0498 -2.2833
 7418TIP3   OH246448   6.848   4.402   7.834  0.8163 -0.9300  0.0987
 7418TIP3    H146449   6.863   4.437   7.922  1.5587  1.5322 -0.9312
 7418TIP3    H246450   6.761   4.435   7.810  1.2260 -0.3539 -0.6214
 7419TIP3   OH246451   2.406   7.365   8.204  0.3132 -0.2880 -0.4702
 7419TIP3    H146452   2.412   7.328   8.116 -2.5810 -1.4869 -0.2938
 7419TIP3    H246453   2.407   7.289   8.262  2.5904  0.5033  0.6442
 7420TIP3   OH246454   5.969   3.023   9.050  0.5950  0.3887 -0.4559
 7420TIP3    H146455   5.944   3.087   8.984 -0.3444  0.9234  0.3835
 7420TIP3    H246456   5.966   2.939   9.004 -0.0715  0.7473 -1.0910
 7421TIP3   OH246457   4.091   5.160   8.833  0.1579  0.0380  0.3110
 7421TIP3    H146458   4.006   5.203   8.845 -0.4398 -0.8123 -0.7275
 7421TIP3    H246459   4.082   5.075   8.875  0.3402 -0.2343 -0.1879
 7422TIP3   OH246460   2.901   8.141   9.641  0.4092  0.0231  0.4826
 7422TIP3    H146461   2.965   8.083   9.683  1.3202  0.9722  0.4737
 7422TIP3    H246462   2.955   8.206   9.596 -0.5590 -0.5475 -1.5891
 7423TIP3   OH246463   7.404   0.853   7.866 -0.4771  0.3817 -0.1799
 7423TIP3    H146464   7.398   0.795   7.942  2.0094  1.4863  0.9786
 7423TIP3    H246465   7.454   0.803   7.801  0.4328  0.6471  0.2873
 7424TIP3   OH246466   0.755   4.172   7.510 -0.7907 -0.1937 -0.2786
 7424TIP3    H146467   0.680   4.169   7.570  0.2195  0.1896  1.0468
 7424TIP3    H246468   0.751   4.260   7.472 -0.6213  0.0759  0.3177
 7425TIP3   OH246469   6.454   6.065   9.761  0.1594  0.1149  0.1801
 7425TIP3    H146470   6.475   5.976   9.787  3.1230  0.9454  1.0274
 7425TIP3    H246471   6.517   6.086   9.692  0.4245  1.9438  0.9217
 7426TIP3   OH246472   7.831   1.647   8.499 -0.0870 -0.0589 -0.1716
 7426TIP3    H146473   7.846   1.580   8.432  0.6610 -0.2551  0.1787
 7426TIP3    H246474   7.799   1.723   8.451  1.1707  0.0644 -0.8681
 7427TIP3   OH246475   0.852   1.667   7.649 -0.5054  0.3456  0.1764
 7427TIP3    H146476   0.769   1.714   7.646 -1.0483 -0.6267 -1.4868
 7427TIP3    H246477   0.840   1.592   7.591  1.5833  0.2485 -0.2347
 7428TIP3   OH246478   7.094   1.358   8.228  0.1990 -0.2428  0.3352
 7428TIP3    H146479   7.020   1.338   8.285  0.8083 -0.6862  0.9928
 7428TIP3    H246480   7.153   1.410   8.283 -0.0866  0.9869 -0.4989
 7429TIP3   OH246481   0.342   8.354   9.689 -0.4405  0.2217 -0.2236
 7429TIP3    H146482   0.360   8.448   9.685  0.6600  0.1890  1.9678
 7429TIP3    H246483   0.273   8.345   9.754  0.2145 -0.5236  0.4013
 7430TIP3   OH246484   3.262   7.179   8.593  0.2685 -0.0889 -0.0400
 7430TIP3    H146485   3.328   7.138   8.536 -1.4708 -1.4121 -1.2123
 7430TIP3    H246486   3.239   7.260   8.549  0.4650 -0.0629 -0.0962
 7431TIP3   OH246487   7.491   4.624   7.737  0.1118  0.1105 -0.1587
 7431TIP3    H146488   7.420   4.569   7.703  0.5326  1.0112 -2.7575
 7431TIP3    H246489   7.473   4.711   7.702  0.6764  1.1763  2.0024
 7432TIP3   OH246490   2.708   3.957   8.270 -0.2236  0.7869  0.5412
 7432TIP3    H146491   2.737   3.974   8.359 -0.4142 -1.1155  1.0151
 7432TIP3    H246492   2.615   3.979   8.271 -0.2808  0.5387  0.8898
 7433TIP3   OH246493   4.710   5.284   9.083 -0.3193  0.3626  0.2434
 7433TIP3    H146494   4.705   5.332   9.166 -2.8158  0.1302  0.2926
 7433TIP3    H246495   4.708   5.352   9.016 -0.2707  0.4719  0.3524
 7434TIP3   OH246496   3.718   6.247   8.470 -0.5003  0.4285  0.5588
 7434TIP3    H146497   3.711   6.225   8.377  0.3407 -0.3280  0.6618
 7434TIP3    H246498   3.633   6.283   8.492 -1.7299 -2.0094  0.1712
 7435TIP3   OH246499   6.540   2.890   7.598  0.0795  0.3457 -0.2525
 7435TIP3    H146500   6.458   2.874   7.551 -0.3958  3.4173 -0.6722
 7435TIP3    H246501   6.601   2.920   7.531 -0.5080  4.4700  0.8024
 7436TIP3   OH246502   4.920   6.609   9.757 -0.5113  0.2783  0.6467
 7436TIP3    H146503   4.999   6.597   9.810  1.0067  0.0900 -1.5135
 7436TIP3    H246504   4.901   6.703   9.764  1.7485  0.9611 -1.1156
 7437TIP3   OH246505   3.633   0.621   9.582 -0.5057  0.1817  0.2570
 7437TIP3    H146506   3.713   0.571   9.567 -0.3535  0.2240  0.8673
 7437TIP3    H246507   3.664   0.710   9.603 -0.6717  0.0430  1.1246
 7438TIP3   OH246508   0.283   0.232   8.863 -0.2036  0.0885  0.1633
 7438TIP3    H146509   0.298   0.247   8.957  0.2785  2.0574 -0.1756
 7438TIP3    H246510   0.370   0.238   8.824 -0.4038 -0.7385 -0.4280
 7439TIP3   OH246511   1.986   3.002   8.628  0.3043  0.4770 -0.1065
 7439TIP3    H146512   1.967   3.096   8.640 -2.8338  0.0303 -0.6980
 7439TIP3    H246513   1.995   2.992   8.534  0.3634  0.1626 -0.0654
 7440TIP3   OH246514   2.550   4.768   8.822 -0.9350  0.1992 -0.0974
 7440TIP3    H146515   2.512   4.843   8.777  0.2763 -1.1387 -3.7399
 7440TIP3    H246516   2.475   4.713   8.844 -1.6377  1.3299  0.4213
 7441TIP3   OH246517   1.009   4.979   8.697  0.5173 -0.4928 -0.0190
 7441TIP3    H146518   0.948   5.020   8.758 -0.9715 -0.4089 -1.5002
 7441TIP3    H246519   1.091   5.028   8.708 -1.3395  3.6577 -2.2669
 7442TIP3   OH246520   0.641   2.929   9.330  0.1860  0.3331  0.4359
 7442TIP3    H146521   0.590   2.902   9.406 -0.0103  1.3888  0.6968
 7442TIP3    H246522   0.732   2.924   9.360  0.1266  0.4170  0.6312
 7443TIP3   OH246523   2.844   0.314   8.934  0.5801  0.0796  0.1596
 7443TIP3    H146524   2.795   0.335   8.854  2.7391 -0.2611 -1.3172
 7443TIP3    H246525   2.820   0.223   8.953  0.0096  0.1813 -0.0537
 7444TIP3   OH246526   7.191   5.472   8.313  0.2105  0.2483 -0.3074
 7444TIP3    H146527   7.197   5.405   8.245 -0.4044 -1.5469  1.3121
 7444TIP3    H246528   7.271   5.524   8.301  2.3409 -2.6235  0.1629
 7445TIP3   OH246529   4.176   6.947   9.295  0.0141 -0.6781  0.3863
 7445TIP3    H146530   4.241   6.914   9.233 -1.8075 -2.1278 -0.8620
 7445TIP3    H246531   4.209   6.920   9.381  1.2276 -1.0669 -0.1783
 7446TIP3   OH246532   7.438   5.359   7.792 -0.2049  0.2439  0.4659
 7446TIP3    H146533   7.394   5.444   7.801 -1.2939 -0.3398  0.8216
 7446TIP3    H246534   7.387   5.300   7.847 -1.5857 -1.4201 -2.3809
 7447TIP3   OH246535   0.490   5.836   9.294 -0.0638 -0.0418 -0.2657
 7447TIP3    H146536   0.572   5.800   9.328 -0.9902 -0.5090  1.5779
 7447TIP3    H246537   0.496   5.930   9.314  0.3281  0.0587 -0.8227
 7448TIP3   OH246538   5.916   6.268   9.420 -0.3049 -0.1424  0.0138
 7448TIP3    H146539   6.000   6.222   9.417 -0.5594 -0.6676  0.6910
 7448TIP3    H246540   5.909   6.311   9.334 -0.6078 -2.3644 -1.1490
 7449TIP3   OH246541   7.850   1.440   8.085  0.5291  0.0322 -0.2742
 7449TIP3    H146542   7.825   1.428   8.177  0.9221 -2.0303 -0.3742
 7449TIP3    H246543   7.787   1.385   8.037  0.3510  1.0596 -1.2497
 7450TIP3   OH246544   4.467   4.889   9.587  0.1940 -0.2544 -0.0377
 7450TIP3    H146545   4.418   4.889   9.504  1.5694  0.2562 -0.8885
 7450TIP3    H246546   4.463   4.980   9.616  0.2175 -0.3180  0.1662
 7451TIP3   OH246547   4.324   7.442   8.204  0.4101 -0.1849  0.0655
 7451TIP3    H146548   4.242   7.398   8.179  0.6381 -0.2942 -0.5084
 7451TIP3    H246549   4.338   7.417   8.295 -0.7549  0.6975  0.5091
 7452TIP3   OH246550   5.899   3.660  10.013  0.2743 -0.1593 -0.7393
 7452TIP3    H146551   5.990   3.641   9.991  0.1161 -0.4872 -1.1292
 7452TIP3    H246552   5.868   3.583  10.060  0.1749 -0.0884 -0.6876
 7453TIP3   OH246553   3.838   0.813   8.397 -0.0688 -0.0829 -0.5742
 7453TIP3    H146554   3.867   0.873   8.328  2.3979 -1.5052 -0.8910
 7453TIP3    H246555   3.779   0.753   8.353 -1.7713  1.4242 -0.4687
 7454TIP3   OH246556   1.952   5.195   7.846  0.6421 -0.0476 -0.1072
 7454TIP3    H146557   1.896   5.189   7.924  1.3020  0.2474  0.4004
 7454TIP3    H246558   1.892   5.207   7.773  0.0273 -0.0784  0.3921
 7455TIP3   OH246559   1.257   3.294   7.676  0.1916  0.1597  0.3595
 7455TIP3    H146560   1.220   3.258   7.595  1.2616  0.0819 -0.1223
 7455TIP3    H246561   1.311   3.223   7.710  0.5828  0.5595  0.5713
 7456TIP3   OH246562   3.816   3.607   8.400 -0.4164  0.1776 -0.7085
 7456TIP3    H146563   3.805   3.512   8.397  0.3738  0.0478  0.0646
 7456TIP3    H246564   3.727   3.641   8.405 -0.6809 -0.6478  1.4008
 7457TIP3   OH246565   1.557   4.924   8.084 -0.3041  0.1597 -0.1593
 7457TIP3    H146566   1.491   4.864   8.118  1.4814 -1.2706  0.9635
 7457TIP3    H246567   1.640   4.878   8.096  0.8044  1.2395 -2.9210
 7458TIP3   OH246568   7.463   0.078  10.334 -0.1394  0.0340  0.3727
 7458TIP3    H146569   7.446   0.170  10.351 -0.6436  0.1329 -0.6073
 7458TIP3    H246570   7.377   0.036  10.336 -0.3914  0.1847 -2.5113
 7459TIP3   OH246571   7.628   8.424   8.533  0.5267  1.0575  0.0237
 7459TIP3    H146572   7.711   8.437   8.486 -0.8044  2.6401 -2.0504
 7459TIP3    H246573   7.561   8.450   8.470 -1.5388  0.3872  1.8513
 7460TIP3   OH246574   2.544   0.167   8.536  0.3389 -0.2178  0.6260
 7460TIP3    H146575   2.594   0.089   8.514  2.9771  1.5791 -0.2686
 7460TIP3    H246576   2.452   0.140   8.529  1.1041 -3.4873  1.5899
 7461TIP3   OH246577   3.417   4.488   7.977  0.5439 -0.1414 -0.0271
 7461TIP3    H146578   3.474   4.438   7.918  0.7810 -0.5965  0.5732
 7461TIP3    H246579   3.459   4.480   8.063  0.8681  1.5480 -0.0112
 7462TIP3   OH246580   5.248   2.857   8.854  0.3589  0.2534 -0.2140
 7462TIP3    H146581   5.313   2.925   8.870 -0.1408  0.5467  0.6329
 7462TIP3    H246582   5.192   2.858   8.932  0.0065 -0.7460 -0.4386
 7463TIP3   OH246583   6.051   3.642   7.732  0.1758 -0.2606  0.1073
 7463TIP3    H146584   6.069   3.667   7.642  1.1174 -0.0056  0.3448
 7463TIP3    H246585   5.964   3.677   7.751  0.0388 -0.1898 -0.6509
 7464TIP3   OH246586   1.779   1.388   8.362  0.5523 -0.7130  0.2922
 7464TIP3    H146587   1.757   1.409   8.271  1.2448 -0.0597  0.2703
 7464TIP3    H246588   1.808   1.297   8.359 -0.8119 -1.1765  0.1088
 7465TIP3   OH246589   3.167   7.738   8.954  0.0556  0.8268  0.6091
 7465TIP3    H146590   3.237   7.690   8.997 -0.5932  1.3333  2.3198
 7465TIP3    H246591   3.205   7.823   8.933  0.5620  0.3567 -0.4435
 7466TIP3   OH246592   6.796   4.884   8.985  0.1781 -0.5182  0.5707
 7466TIP3    H146593   6.705   4.855   8.987 -0.4590  1.3053  0.6651
 7466TIP3    H246594   6.822   4.875   8.894 -1.0354  1.4176 -0.0453
 7467TIP3   OH246595   2.593   5.650   7.517  0.3277  0.2046 -0.6041
 7467TIP3    H146596   2.514   5.696   7.546  0.8604  0.1631  1.0198
 7467TIP3    H246597   2.560   5.577   7.465 -0.7119  0.1450  0.0964
 7468TIP3   OH246598   7.965   7.530   8.107 -0.1696  0.1127 -0.4802
 7468TIP3    H146599   7.972   7.580   8.026  1.7243  1.8635  0.6635
 7468TIP3    H246600   7.922   7.589   8.169 -0.9553 -0.9285 -0.0047
 7469TIP3   OH246601   0.569   2.182   9.437 -0.2432 -0.5759  0.4705
 7469TIP3    H146602   0.501   2.231   9.391 -0.4918 -0.7019  0.6970
 7469TIP3    H246603   0.563   2.214   9.528  1.2555  0.7962  0.1391
 7470TIP3   OH246604   6.653   5.261   9.721 -0.2011  0.3295  0.0670
 7470TIP3    H146605   6.626   5.352   9.721  0.8967  0.6841  1.0781
 7470TIP3    H246606   6.696   5.249   9.636  0.1639  0.9275  0.1594
 7471TIP3   OH246607   5.598   0.601   8.590 -0.0724  0.8622 -0.5099
 7471TIP3    H146608   5.520   0.655   8.601  0.0178  1.6156 -3.0082
 7471TIP3    H246609   5.567   0.511   8.597 -0.1478  0.9670  4.3076
 7472TIP3   OH246610   7.456   0.920   8.552  1.1195 -0.6897 -0.5890
 7472TIP3    H146611   7.479   0.972   8.629  1.9194 -1.0601 -0.5684
 7472TIP3    H246612   7.435   0.834   8.586 -1.8261 -0.0175 -0.4375
 7473TIP3   OH246613   7.146   0.344   8.190  0.1645 -0.0334  0.5654
 7473TIP3    H146614   7.134   0.425   8.140 -2.7695 -0.9621 -0.4667
 7473TIP3    H246615   7.225   0.305   8.154  1.6136  2.2473  1.0256
 7474TIP3   OH246616   6.073   3.566   9.333 -0.4295 -0.1426  0.1507
 7474TIP3    H146617   5.992   3.575   9.282  0.2252  1.8357 -0.6403
 7474TIP3    H246618   6.141   3.603   9.277  0.7878 -0.4541  1.3640
 7475TIP3   OH246619   1.284   1.220   8.590  0.6856  0.0926  0.4198
 7475TIP3    H146620   1.273   1.194   8.498  2.6867  2.3373 -0.5594
 7475TIP3    H246621   1.215   1.284   8.606  0.0305 -0.6608  0.6664
 7476TIP3   OH246622   6.978   7.478   9.745 -0.2837 -0.4364  0.0363
 7476TIP3    H146623   6.948   7.471   9.654  1.3202  0.3575 -0.6063
 7476TIP3    H246624   7.061   7.526   9.739 -0.3936  0.0852  1.9899
 7477TIP3   OH246625   2.289   3.123   7.827  0.3126 -0.1450 -0.5736
 7477TIP3    H146626   2.262   3.188   7.763  0.4204 -0.9789 -1.4953
 7477TIP3    H246627   2.381   3.141   7.844  0.9685 -1.3488 -2.4937
 7478TIP3   OH246628   7.863   2.648   7.988  0.1531  0.5599 -0.4771
 7478TIP3    H146629   7.936   2.678   7.934  1.4688 -2.8905 -0.8639
 7478TIP3    H246630   7.894   2.656   8.078  1.3396 -1.3556 -0.6537
 7479TIP3   OH246631   4.972   2.463  14.085  0.3001  0.3213  0.0099
 7479TIP3    H146632   4.937   2.413  14.011 -0.6139  0.2302  0.4840
 7479TIP3    H246633   4.972   2.400  14.158 -2.0200  1.2770  0.9309
 7480TIP3   OH246634   6.937   0.110   9.606  0.0329 -0.1501  0.4033
 7480TIP3    H146635   7.024   0.095   9.642 -0.1244 -0.2196  0.7531
 7480TIP3    H246636   6.876   0.084   9.675 -0.2750  2.2139  1.1339
 7481TIP3   OH246637   3.917   1.017   8.046  0.0338  0.0766  0.0061
 7481TIP3    H146638   3.919   1.034   7.952 -1.8684 -0.2453 -0.1156
 7481TIP3    H246639   3.959   0.932   8.056  1.6968  0.8177 -0.3434
 7482TIP3   OH246640   8.325   7.353   9.392 -0.0681 -0.1842  0.5809
 7482TIP3    H146641   8.398   7.307   9.434  0.9333  0.6064 -0.2208
 7482TIP3    H246642   8.309   7.428   9.449 -0.2285 -0.3446  0.7449
 7483TIP3   OH246643   4.150   6.313   7.976 -0.2117  0.0585 -0.1237
 7483TIP3    H146644   4.116   6.329   8.065 -1.2505  0.1729 -0.5325
 7483TIP3    H246645   4.098   6.370   7.920  0.2452 -0.2330 -0.8571
 7484TIP3   OH246646   2.737   6.040   7.753  0.4403  0.1369 -0.1190
 7484TIP3    H146647   2.712   6.131   7.738  1.7366  0.5887  0.2693
 7484TIP3    H246648   2.659   5.999   7.788  0.1337  1.3881  0.7416
 7485TIP3   OH246649   4.425   5.407  10.199  0.1233 -0.2432 -0.8139
 7485TIP3    H146650   4.512   5.384  10.232  0.1424 -0.6346 -1.1229
 7485TIP3    H246651   4.368   5.337  10.231 -0.7674  1.6766  2.2328
 7486TIP3   OH246652   8.028   2.273   9.881  0.0835 -0.2668  0.0643
 7486TIP3    H146653   7.973   2.254   9.806  1.3080  1.2323 -1.2938
 7486TIP3    H246654   8.045   2.368   9.876  0.5833 -0.1968  1.9654
 7487TIP3   OH246655   0.041   1.116   8.943  0.1817 -0.0254  0.1973
 7487TIP3    H146656   0.131   1.087   8.927  0.2640  1.1345 -1.8751
 7487TIP3    H246657  -0.010   1.035   8.946  1.0616 -0.6256 -0.4718
 7488TIP3   OH246658   8.254   8.288   9.459  0.5516 -0.3239 -0.2079
 7488TIP3    H146659   8.316   8.273   9.530 -1.8718  0.7915  2.3572
 7488TIP3    H246660   8.198   8.210   9.459 -0.4103  0.3478  0.2093
 7489TIP3   OH246661   4.247   5.023   8.243 -0.2744 -0.0393 -0.5918
 7489TIP3    H146662   4.212   5.110   8.257 -0.1842  0.3730 -2.6399
 7489TIP3    H246663   4.342   5.035   8.246 -0.2498  0.0932 -1.6146
 7490TIP3   OH246664   0.661   1.154   8.923  0.0058 -0.2196  0.0865
 7490TIP3    H146665   0.744   1.151   8.970 -0.2029  0.5428  0.5197
 7490TIP3    H246666   0.639   1.247   8.917  0.0409 -0.2809 -1.5734
 7491TIP3   OH246667   5.497   0.479   7.780 -0.0702  0.1028 -0.0549
 7491TIP3    H146668   5.506   0.531   7.860  1.6091 -3.2734  2.1760
 7491TIP3    H246669   5.587   0.457   7.756 -0.6848 -1.0618 -1.3910
 7492TIP3   OH246670   2.262   3.253   9.786 -0.2555  0.4262  0.0114
 7492TIP3    H146671   2.277   3.167   9.826 -0.2383 -0.0426 -0.9656
 7492TIP3    H246672   2.349   3.281   9.756 -0.3260  0.6082 -0.0267
 7493TIP3   OH246673   3.118   6.934   8.640 -0.0136  0.1671 -0.4676
 7493TIP3    H146674   3.145   7.024   8.621  0.6105 -0.1956 -1.4047
 7493TIP3    H246675   3.191   6.896   8.689 -0.0985  0.0563 -0.4244
 7494TIP3   OH246676   0.549   5.701   8.516 -0.0392 -0.4867  0.0473
 7494TIP3    H146677   0.604   5.755   8.460  0.1998 -0.7137  0.0613
 7494TIP3    H246678   0.497   5.764   8.566  1.2727 -0.2008  1.1327
 7495TIP3   OH246679   2.300   4.257   9.703  0.2025  0.1214  0.8108
 7495TIP3    H146680   2.315   4.311   9.781  1.4848  0.8794  0.0558
 7495TIP3    H246681   2.294   4.168   9.738 -1.0403  0.6141  1.9648
 7496TIP3   OH246682   6.818   2.595   8.237  0.0399 -0.2732  0.4369
 7496TIP3    H146683   6.836   2.512   8.195  0.7696  0.4664 -0.7786
 7496TIP3    H246684   6.856   2.587   8.324  1.5521 -0.6696 -0.2263
 7497TIP3   OH246685   7.083   5.792   8.920  1.1063 -0.0460  0.3989
 7497TIP3    H146686   7.045   5.878   8.902 -1.0577 -0.8230  0.8531
 7497TIP3    H246687   7.058   5.773   9.010  0.3791 -1.6767 -0.1011
 7498TIP3   OH246688   1.003   3.857   8.062  0.5442 -0.2617 -0.4828
 7498TIP3    H146689   1.023   3.860   7.968  1.7384  1.2612 -0.2228
 7498TIP3    H246690   1.065   3.793   8.097  1.0915  0.2297 -0.5334
 7499TIP3   OH246691   1.490   2.800   8.243 -0.0619  0.3231  0.1452
 7499TIP3    H146692   1.544   2.751   8.305 -1.2017 -1.2436 -0.0093
 7499TIP3    H246693   1.433   2.854   8.297  1.1552  1.4656  0.3262
 7500TIP3   OH246694   4.053   5.999  10.025  0.3819 -0.2289 -0.2690
 7500TIP3    H146695   4.030   5.991   9.933 -0.2141 -0.6714 -0.0966
 7500TIP3    H246696   4.100   6.082  10.032  0.1220 -0.0213 -0.9097
 7501TIP3   OH246697   2.887   1.966   9.645  0.1845  0.3095  0.1663
 7501TIP3    H146698   2.922   2.039   9.697  0.8222 -0.2568  0.5533
 7501TIP3    H246699   2.939   1.890   9.673 -0.8761 -0.4146  0.2180
 7502TIP3   OH246700   2.405   6.481   9.121  0.7786  0.1394 -0.3352
 7502TIP3    H146701   2.410   6.448   9.210  0.4959  0.5328 -0.1697
 7502TIP3    H246702   2.495   6.503   9.097  0.7286  1.0090  0.2329
 7503TIP3   OH246703   2.013   4.474   7.614  0.2777  0.2728  0.0862
 7503TIP3    H146704   1.996   4.501   7.704 -1.5034 -3.9493  1.2766
 7503TIP3    H246705   1.947   4.520   7.562 -0.1368  1.0533  1.2761
 7504TIP3   OH246706   1.228   7.719   8.772 -0.2580 -0.2281 -0.0868
 7504TIP3    H146707   1.166   7.673   8.716 -0.1853 -1.4064  0.7461
 7504TIP3    H246708   1.298   7.747   8.713  0.1047 -1.9486 -0.5388
 7505TIP3   OH246709   5.092   2.872   9.071 -0.3330  0.0140 -0.5792
 7505TIP3    H146710   5.054   2.959   9.081 -1.4631 -0.5300 -0.0347
 7505TIP3    H246711   5.080   2.830   9.156  0.7101 -0.4948 -0.6591
 7506TIP3   OH246712   5.347   5.285   9.122 -0.3516 -0.4203  0.0392
 7506TIP3    H146713   5.354   5.371   9.081 -0.8310 -0.2969  0.2174
 7506TIP3    H246714   5.276   5.241   9.075 -3.1684  0.8809  2.7309
 7507TIP3   OH246715   5.519   2.783   8.185  0.3607  0.0301 -0.2327
 7507TIP3    H146716   5.572   2.730   8.125 -0.3369 -0.7290 -0.1933
 7507TIP3    H246717   5.436   2.794   8.140 -0.1246 -0.4279  0.5170
 7508TIP3   OH246718   7.957   0.803  10.190 -0.3459 -0.2654 -0.1555
 7508TIP3    H146719   7.889   0.794  10.257  0.1045  0.4605  0.4127
 7508TIP3    H246720   7.913   0.783  10.107 -1.5983  1.4793  0.0433
 7509TIP3   OH246721   4.930   6.230   9.716  0.5420  0.3057 -0.4322
 7509TIP3    H146722   4.976   6.310   9.740  0.5854 -0.0582  0.7988
 7509TIP3    H246723   4.837   6.253   9.719  0.5700  0.4475 -0.6343
 7510TIP3   OH246724   3.425   0.926   8.435 -0.2054 -0.2881  0.0489
 7510TIP3    H146725   3.330   0.926   8.425 -0.4775  1.4883  1.9558
 7510TIP3    H246726   3.452   1.015   8.416  0.9625 -0.5334  0.4490
 7511TIP3   OH246727   5.246   4.150   8.108 -0.0441 -0.0988  0.4536
 7511TIP3    H146728   5.174   4.147   8.171  0.1268 -0.6289  0.6260
 7511TIP3    H246729   5.253   4.242   8.084  0.4561  0.2448  1.8583
 7512TIP3   OH246730   5.501   5.167   8.584  0.3666  0.1414  0.0132
 7512TIP3    H146731   5.576   5.184   8.641  0.7883 -0.8487 -0.2202
 7512TIP3    H246732   5.511   5.075   8.558 -0.0633  0.4366 -1.2882
 7513TIP3   OH246733   0.159   7.436   8.410  0.4016  0.9467 -0.0224
 7513TIP3    H146734   0.216   7.370   8.448  1.1551  1.5404 -0.0950
 7513TIP3    H246735   0.073   7.394   8.405  0.8046  0.0800  0.1931
 7514TIP3   OH246736   0.044   2.687   9.330  0.1754  0.2247 -0.9113
 7514TIP3    H146737   0.088   2.715   9.250  0.0046  1.4988 -0.5755
 7514TIP3    H246738  -0.034   2.641   9.299  0.5686 -0.0785 -1.4760
 7515TIP3   OH246739   5.678   7.293   8.795 -0.1500 -0.5842  0.3073
 7515TIP3    H146740   5.622   7.260   8.724 -1.2025  0.9293  0.3754
 7515TIP3    H246741   5.765   7.298   8.755 -0.9285  1.3979 -1.3708
 7516TIP3   OH246742   0.713   2.042   8.873 -0.6448  0.0357 -0.5157
 7516TIP3    H146743   0.714   2.099   8.796  2.2387 -0.0608 -0.6645
 7516TIP3    H246744   0.655   2.087   8.934  1.6217  3.4267 -0.5265
 7517TIP3   OH246745   4.950   7.397   8.671 -0.2367  0.4390 -0.0347
 7517TIP3    H146746   4.972   7.467   8.732  0.5779 -1.1346  1.5632
 7517TIP3    H246747   5.011   7.327   8.692 -1.5582 -1.0725 -1.0296
 7518TIP3   OH246748   0.561   0.949   9.687  0.7264  0.3327 -0.6207
 7518TIP3    H146749   0.605   0.937   9.771  3.6895  2.3524 -1.7373
 7518TIP3    H246750   0.533   1.040   9.687  0.4098  0.2523 -1.6814
 7519TIP3   OH246751   0.466   0.702   7.613 -0.1932  0.1277  0.1126
 7519TIP3    H146752   0.373   0.697   7.634  0.0602 -0.2807  1.2041
 7519TIP3    H246753   0.497   0.612   7.624  0.1551  0.0692 -1.1749
 7520TIP3   OH246754   3.564   3.438   9.207  0.2355 -0.2193 -0.3212
 7520TIP3    H146755   3.601   3.452   9.294 -0.2158 -3.3701  0.5124
 7520TIP3    H246756   3.479   3.480   9.209 -0.9557 -2.5038  1.8303
 7521TIP3   OH246757   8.260   0.697   9.251 -0.4462  0.0899 -0.5116
 7521TIP3    H146758   8.292   0.606   9.253 -2.1500 -0.5600 -0.7462
 7521TIP3    H246759   8.332   0.748   9.286  0.7706 -1.2916 -0.8831
 7522TIP3   OH246760   5.023   4.332   7.952 -0.6548  0.4483 -0.7190
 7522TIP3    H146761   5.082   4.377   8.013 -0.4511  1.0686 -1.3590
 7522TIP3    H246762   4.994   4.254   7.999 -0.6781  1.0336  0.2533
 7523TIP3   OH246763   4.465   5.167   7.775  0.0927 -0.2758  0.2574
 7523TIP3    H146764   4.420   5.100   7.827  0.0252 -0.5370 -0.1372
 7523TIP3    H246765   4.549   5.127   7.752 -0.4001 -0.6666 -0.9314
 7524TIP3   OH246766   6.547   3.794   8.659  0.1823  0.2583 -0.1166
 7524TIP3    H146767   6.615   3.807   8.593  0.0403  3.2469  0.2148
 7524TIP3    H246768   6.465   3.805   8.612 -0.1076 -1.9747 -0.2372
 7525TIP3   OH246769   3.551   7.535   8.275  0.9677  0.3350 -0.7176
 7525TIP3    H146770   3.565   7.607   8.213 -0.5819  1.4677  0.1753
 7525TIP3    H246771   3.598   7.562   8.354  0.1392  0.5241 -0.2807
 7526TIP3   OH246772   1.168   8.082   8.690 -0.2162  0.2690 -0.3859
 7526TIP3    H146773   1.216   8.113   8.613  0.6548  1.0347  0.4292
 7526TIP3    H246774   1.223   8.012   8.726  1.5824  2.6157  1.8211
 7527TIP3   OH246775   0.486   5.543   8.787  0.0296 -0.2923  0.2613
 7527TIP3    H146776   0.419   5.481   8.758  1.4577 -1.0543 -1.6454
 7527TIP3    H246777   0.497   5.602   8.712 -0.5230  1.6669  1.6353
 7528TIP3   OH246778   7.745   6.247   9.245  0.3564 -0.1611  0.1937
 7528TIP3    H146779   7.801   6.289   9.310  1.0105  0.2929 -0.6456
 7528TIP3    H246780   7.750   6.153   9.266  2.6850 -0.3170 -0.7641
 7529TIP3   OH246781   4.959   3.119   8.066 -0.1761  0.2890  0.1052
 7529TIP3    H146782   4.975   3.200   8.115 -2.1241  0.4724  0.5210
 7529TIP3    H246783   4.958   3.051   8.133 -0.7429  0.2409  0.0510
 7530TIP3   OH246784   5.519   4.530   8.345 -0.1831  0.0422 -0.0682
 7530TIP3    H146785   5.447   4.553   8.285 -0.6881  1.7659  1.1113
 7530TIP3    H246786   5.479   4.473   8.410 -0.1931  0.0478 -0.0693
 7531TIP3   OH246787   4.046   3.024   7.723 -0.3065  0.2268 -0.0854
 7531TIP3    H146788   3.953   3.003   7.733 -0.2890 -0.0672 -0.4734
 7531TIP3    H246789   4.048   3.118   7.704 -0.5585  0.1547 -0.4836
 7532TIP3   OH246790   3.655   4.556   9.049 -0.0068 -0.1792 -0.2066
 7532TIP3    H146791   3.731   4.506   9.079 -0.6468 -1.0803 -0.0157
 7532TIP3    H246792   3.583   4.493   9.054 -1.4210  1.4657  2.7216
 7533TIP3   OH246793   3.017   5.313   7.823  0.0704 -0.1605  0.0959
 7533TIP3    H146794   2.945   5.352   7.773 -0.2166  2.2921  2.2099
 7533TIP3    H246795   2.978   5.238   7.867 -0.4594 -0.5005 -0.9248
 7534TIP3   OH246796   3.488   5.505   8.324 -0.0337 -0.0759 -0.0794
 7534TIP3    H146797   3.490   5.582   8.381  1.6524  0.4059 -0.7418
 7534TIP3    H246798   3.422   5.526   8.258 -0.9972 -0.0544  0.8618
 7535TIP3   OH246799   8.270   7.951   9.233  0.9558  0.7061  0.4549
 7535TIP3    H146800   8.283   7.861   9.265 -1.3955  0.6558  1.5251
 7535TIP3    H246801   8.358   7.985   9.221  1.9725 -0.8149  2.7929
 7536TIP3   OH246802   2.510   1.535   8.352 -0.0575  0.0944  0.2725
 7536TIP3    H146803   2.529   1.497   8.438  0.1231  1.8165  1.0476
 7536TIP3    H246804   2.582   1.596   8.336 -0.7247  0.6956 -0.5231
 7537TIP3   OH246805   1.055   0.239   9.357  0.1556  0.2319  0.0109
 7537TIP3    H146806   0.961   0.251   9.371 -0.0616  1.5988 -2.1085
 7537TIP3    H246807   1.060   0.192   9.273  1.3559  0.1023  0.1419
 7538TIP3   OH246808   6.042   7.607   9.772 -0.4495  0.0384 -0.1088
 7538TIP3    H146809   6.089   7.531   9.738 -1.4736 -1.7194  2.1960
 7538TIP3    H246810   6.112   7.668   9.797  0.3969 -0.3468 -1.3904
 7539TIP3   OH246811   1.810   4.818   8.144  0.6693  0.2141  0.3046
 7539TIP3    H146812   1.879   4.766   8.104  1.2832 -0.2314  1.8878
 7539TIP3    H246813   1.841   4.836   8.233 -1.0369  0.3885  0.9063
 7540TIP3   OH246814   0.500   0.854   7.965  0.2034  0.0282  0.3580
 7540TIP3    H146815   0.512   0.941   8.003  0.1505  1.2401 -2.1873
 7540TIP3    H246816   0.571   0.846   7.901  0.6318 -2.1380  1.0281
 7541TIP3   OH246817   7.731   6.725   8.521 -0.4678 -0.0988  0.5619
 7541TIP3    H146818   7.658   6.690   8.469  0.9710 -0.4182 -1.3377
 7541TIP3    H246819   7.793   6.653   8.528  1.5007  1.2752 -1.4416
 7542TIP3   OH246820   2.106   0.247   8.924 -0.2792  0.8483 -0.4363
 7542TIP3    H146821   2.039   0.312   8.944 -1.0886 -0.3128  0.8430
 7542TIP3    H246822   2.141   0.223   9.010 -0.4274 -0.8136 -0.8157
 7543TIP3   OH246823   7.000   4.379   9.107  0.0806  0.4891 -0.2016
 7543TIP3    H146824   7.093   4.365   9.124  0.2591  1.1268 -0.5926
 7543TIP3    H246825   6.962   4.397   9.193  0.6013  1.6853 -0.1912
 7544TIP3   OH246826   6.998   0.381   9.214 -0.2610  0.1169 -0.4292
 7544TIP3    H146827   7.021   0.293   9.244 -1.7116 -0.3400 -0.5611
 7544TIP3    H246828   7.044   0.390   9.130 -0.5003 -0.7248 -0.6637
 7545TIP3   OH246829   0.133   0.782   8.931  0.3178 -0.2853 -0.2898
 7545TIP3    H146830   0.090   0.805   8.848  1.4434 -0.9488 -1.0750
 7545TIP3    H246831   0.142   0.687   8.928  0.8323 -0.2610  0.3720
 7546TIP3   OH246832   5.878   6.308  10.351 -0.6522 -0.5652 -0.0609
 7546TIP3    H146833   5.797   6.266  10.380 -1.1154 -0.7675 -1.5655
 7546TIP3    H246834   5.870   6.399  10.379 -3.3789  0.5547 -3.7074
 7547TIP3   OH246835   3.244   0.459   8.468 -0.0429  1.1161 -0.1547
 7547TIP3    H146836   3.283   0.372   8.476 -0.8432  0.6295 -1.4711
 7547TIP3    H246837   3.169   0.458   8.527  0.2344  1.1006  0.2059
 7548TIP3   OH246838   2.823   5.798   7.656 -0.0516 -0.3993 -0.0195
 7548TIP3    H146839   2.826   5.890   7.682 -1.2724  0.4897 -2.7002
 7548TIP3    H246840   2.739   5.787   7.613  0.0417 -2.8267  0.2510
 7549TIP3   OH246841   0.631   1.889   8.561 -0.1147 -0.3709  0.6832
 7549TIP3    H146842   0.590   1.803   8.552 -1.3940  0.3460 -1.0524
 7549TIP3    H246843   0.574   1.937   8.621 -1.2163  0.2264 -0.7754
 7550TIP3   OH246844   8.308   2.442   7.589  0.0425 -0.2103 -0.2092
 7550TIP3    H146845   8.349   2.512   7.538  0.4073 -0.0952  0.2326
 7550TIP3    H246846   8.223   2.428   7.547 -0.8728  1.8003  0.7816
 7551TIP3   OH246847   5.105   2.799   8.291  0.9283 -0.1462 -0.2715
 7551TIP3    H146848   5.065   2.713   8.280  2.2814 -0.9469  0.7408
 7551TIP3    H246849   5.171   2.786   8.359  0.4296  1.9497  0.6972
 7552TIP3   OH246850   6.913   0.291   8.412 -0.0347  0.8670  0.4086
 7552TIP3    H146851   6.900   0.373   8.365  0.4937  1.7004  1.6550
 7552TIP3    H246852   6.846   0.232   8.378 -0.7699  1.9890 -0.1299
 7553TIP3   OH246853   1.289   4.537   7.680 -0.2067 -0.5589  0.3167
 7553TIP3    H146854   1.258   4.544   7.590  1.1502  0.9090 -0.0828
 7553TIP3    H246855   1.347   4.461   7.679 -0.8030 -1.0202  0.1562
 7554TIP3   OH246856   8.122   0.800   9.038  0.6341  0.1238 -0.5467
 7554TIP3    H146857   8.071   0.729   8.998 -0.3662  0.4311  0.1509
 7554TIP3    H246858   8.174   0.757   9.106 -0.6598  0.1573  0.5027
 7555TIP3   OH246859   6.738   3.819   7.810  0.0214 -0.2189 -0.0323
 7555TIP3    H146860   6.649   3.793   7.788 -0.0126  0.7083 -1.0832
 7555TIP3    H246861   6.742   3.815   7.905 -1.2415  0.0188  0.0452
 7556TIP3   OH246862   0.566   3.362   8.125  0.2356  0.1751 -0.7779
 7556TIP3    H146863   0.630   3.373   8.054 -1.2184 -0.9351 -2.3283
 7556TIP3    H246864   0.486   3.402   8.092  0.3952  2.9012  1.7272
 7557TIP3   OH246865   4.667   6.316   8.508  0.2525  0.0941 -0.0982
 7557TIP3    H146866   4.734   6.296   8.443 -0.1057 -1.2193 -0.1020
 7557TIP3    H246867   4.637   6.230   8.539 -2.4456  0.5576 -1.1157
 7558TIP3   OH246868   6.157   3.232   9.122 -0.2930  0.0097 -0.8652
 7558TIP3    H146869   6.118   3.162   9.069  0.4179  0.5421 -2.1262
 7558TIP3    H246870   6.124   3.313   9.083  0.0462  0.4156 -0.3232
 7559TIP3   OH246871   6.453   5.122   8.812  0.2946 -0.2428 -0.6977
 7559TIP3    H146872   6.503   5.040   8.810 -0.2492 -0.5723 -0.7973
 7559TIP3    H246873   6.378   5.106   8.755  0.6375  0.6217 -1.4233
 7560TIP3   OH246874   6.229   7.986   9.642  0.2839 -0.0953  0.1497
 7560TIP3    H146875   6.303   8.026   9.686 -1.2436  0.7950  2.0644
 7560TIP3    H246876   6.165   8.057   9.633 -1.2565 -1.3597  0.7336
 7561TIP3   OH246877   2.989   0.747   9.761 -0.1017 -0.0178  0.4930
 7561TIP3    H146878   2.921   0.773   9.823 -0.5192 -0.7117  0.3474
 7561TIP3    H246879   3.055   0.815   9.767  0.7398 -0.9305  3.0216
 7562TIP3   OH246880   6.891   4.331   7.448  0.3715  0.5156 -0.7638
 7562TIP3    H146881   6.958   4.343   7.516  1.3944  0.6138 -1.7562
 7562TIP3    H246882   6.921   4.386   7.376 -2.4450  3.1402 -0.1348
 7563TIP3   OH246883   3.319   0.608   8.232 -0.1715  0.4585 -0.1230
 7563TIP3    H146884   3.319   0.569   8.319  0.1353  0.7830  0.0281
 7563TIP3    H246885   3.396   0.571   8.189 -0.3546  0.2556 -0.2743
 7564TIP3   OH246886   0.898   4.337   8.006 -0.3672 -0.1471  0.3407
 7564TIP3    H146887   0.872   4.430   8.006  0.8036  0.2006 -0.5527
 7564TIP3    H246888   0.956   4.329   7.931  1.1696 -1.1477  1.5893
 7565TIP3   OH246889   4.349   4.014   7.837  0.1422 -0.5820  0.0133
 7565TIP3    H146890   4.377   4.092   7.885  0.7164 -1.8280  1.8158
 7565TIP3    H246891   4.278   3.977   7.890 -0.3620 -1.1066 -0.9879
 7566TIP3   OH246892   2.315   1.963   9.683  0.2271 -0.0817 -0.0894
 7566TIP3    H146893   2.407   1.956   9.658  0.5237 -3.0295  1.3420
 7566TIP3    H246894   2.268   1.912   9.617  0.0212 -0.9632  0.7079
 7567TIP3   OH246895   7.838   3.342   8.360 -0.0077 -0.2921 -0.8498
 7567TIP3    H146896   7.789   3.399   8.419 -2.9483 -1.5208 -1.9122
 7567TIP3    H246897   7.915   3.393   8.336 -0.3871  1.5329  1.4308
 7568TIP3   OH246898   3.542   0.440   8.198  0.0901 -0.5857 -0.6509
 7568TIP3    H146899   3.562   0.396   8.281 -0.9309 -0.3565 -0.2717
 7568TIP3    H246900   3.557   0.533   8.216  2.0743 -0.7172 -1.3995
 7569TIP3   OH246901   5.003   5.751  10.264  0.2457 -0.5504  0.3877
 7569TIP3    H146902   4.985   5.825  10.206  0.3855 -0.2850  0.6773
 7569TIP3    H246903   4.948   5.680  10.231  0.3991 -0.4344 -0.1328
 7570TIP3   OH246904   0.206   6.127   9.509 -0.2568  0.0923 -0.1170
 7570TIP3    H146905   0.196   6.031   9.508 -1.5405  0.2085 -0.0015
 7570TIP3    H246906   0.300   6.141   9.522 -0.1682 -1.1482  0.8046
 7571TIP3   OH246907   4.532   1.693   9.014 -0.2521 -0.2240  0.5497
 7571TIP3    H146908   4.553   1.613   8.966 -1.6488 -0.7152  0.7167
 7571TIP3    H246909   4.436   1.696   9.015 -0.2533  2.2530 -0.7674
 7572TIP3   OH246910   4.032   6.402   8.197 -0.5509 -0.3957 -0.0910
 7572TIP3    H146911   3.990   6.342   8.258 -0.1159 -0.7282 -0.1113
 7572TIP3    H246912   4.079   6.464   8.253  0.6148 -1.2524 -0.0757
 7573TIP3   OH246913   3.252   2.104   7.735 -0.1093  0.0414 -0.7604
 7573TIP3    H146914   3.252   2.008   7.733  0.9417  0.0340 -0.5790
 7573TIP3    H246915   3.318   2.127   7.800 -0.7376  0.8872 -0.4110
 7574TIP3   OH246916   7.774   5.859   9.840  0.3133 -0.4155  0.5769
 7574TIP3    H146917   7.738   5.779   9.801  0.8210 -0.3227 -0.1053
 7574TIP3    H246918   7.858   5.832   9.876  1.0958  0.0681 -0.8125
 7575TIP3   OH246919   1.531   0.062   9.622  0.0312  0.1750  0.4316
 7575TIP3    H146920   1.554  -0.016   9.571  0.2370  0.8954 -0.6107
 7575TIP3    H246921   1.436   0.060   9.627 -0.1232  0.9415 -1.4164
 7576TIP3   OH246922   8.056   0.055   9.476 -0.1361  0.5772  0.5420
 7576TIP3    H146923   8.148   0.030   9.475 -0.2447  0.0771 -1.4394
 7576TIP3    H246924   8.011  -0.019   9.434 -1.3899  0.9578  1.1878
 7577TIP3   OH246925   0.191   0.134   7.670  0.1476  0.2286 -0.1376
 7577TIP3    H146926   0.277   0.093   7.666  0.9345  1.9354 -2.6145
 7577TIP3    H246927   0.133   0.065   7.703  1.8651 -2.0168 -1.5308
 7578TIP3   OH246928   5.092   4.886  10.554 -0.5779 -0.0324  0.2083
 7578TIP3    H146929   5.083   4.885  10.458  2.1699 -0.9715 -0.1343
 7578TIP3    H246930   5.139   4.805  10.574 -3.2254 -1.1034  2.6990
 7579TIP3   OH246931   2.160   6.014   8.299  0.3244  0.2103  0.3678
 7579TIP3    H146932   2.143   5.941   8.239  0.2763  1.1373 -0.7832
 7579TIP3    H246933   2.073   6.046   8.322  0.3433  1.6230 -1.3369
 7580TIP3   OH246934   7.030   7.203   8.491  0.3675  0.2274  0.4348
 7580TIP3    H146935   7.042   7.196   8.586  0.8845 -1.0195  0.2934
 7580TIP3    H246936   7.077   7.283   8.466 -0.3959  0.9815  1.3148
 7581TIP3   OH246937   5.328   8.344  10.138 -0.5089 -0.1669 -0.8139
 7581TIP3    H146938   5.384   8.268  10.124  0.0045  0.0116  0.2326
 7581TIP3    H246939   5.379   8.418  10.104 -1.1624 -0.3020 -2.1907
 7582TIP3   OH246940   4.044   2.297   7.819  0.0850 -0.1553  0.2622
 7582TIP3    H146941   3.974   2.317   7.882  1.3775  1.3633  1.3237
 7582TIP3    H246942   4.046   2.374   7.761  3.1983  1.7640  2.5539
 7583TIP3   OH246943   4.628   3.784   9.563 -0.4217  0.2572 -0.3177
 7583TIP3    H146944   4.615   3.872   9.598  0.8883  1.2173 -2.0501
 7583TIP3    H246945   4.545   3.762   9.521 -0.5710  0.9394 -0.3909
 7584TIP3   OH246946   4.905   0.864   7.895  0.0391  0.2795 -0.1506
 7584TIP3    H146947   4.998   0.877   7.876 -0.1889  1.7784 -0.3717
 7584TIP3    H246948   4.902   0.847   7.989  0.5564  0.0763 -0.1698
 7585TIP3   OH246949   1.649   3.952   8.631 -0.4203 -0.6243  0.4345
 7585TIP3    H146950   1.554   3.953   8.629 -0.4442  0.1105  1.4457
 7585TIP3    H246951   1.674   3.937   8.539 -1.4971 -0.0872  0.0320
 7586TIP3   OH246952   2.385   2.451   8.993 -0.4014 -0.6561  0.5591
 7586TIP3    H146953   2.358   2.377   8.938 -0.5759  0.1523 -0.4692
 7586TIP3    H246954   2.302   2.491   9.021 -0.3011 -0.5377  0.6843
 7587TIP3   OH246955   7.830   0.712   9.122 -0.0399 -0.0041  0.4815
 7587TIP3    H146956   7.851   0.785   9.180  0.2818 -0.1932  0.6060
 7587TIP3    H246957   7.894   0.644   9.145 -0.1927 -0.2399  0.2111
 7588TIP3   OH246958   8.317   6.526   9.217  0.1738 -0.1608 -0.1379
 7588TIP3    H146959   8.304   6.618   9.239  0.9258 -0.0824  0.0117
 7588TIP3    H246960   8.340   6.484   9.301 -1.7814 -0.8195  0.1240
 7589TIP3   OH246961   5.344   1.340   8.962  0.0119  0.0236 -0.6363
 7589TIP3    H146962   5.438   1.342   8.943  0.2632  0.3713  0.5349
 7589TIP3    H246963   5.329   1.419   9.014 -0.9803  0.0788 -0.9811
 7590TIP3   OH246964   3.918   5.431   7.950  0.0629 -0.2661 -0.7207
 7590TIP3    H146965   3.997   5.479   7.926  0.6906 -0.5430  0.7228
 7590TIP3    H246966   3.860   5.497   7.988  0.7305 -0.5383  0.8099
 7591TIP3   OH246967   0.557   2.066   7.590  1.0946 -0.0109  0.1796
 7591TIP3    H146968   0.509   2.135   7.636 -0.3218 -0.3077 -0.7742
 7591TIP3    H246969   0.647   2.099   7.586  0.7092  1.2077  0.8399
 7592TIP3   OH246970   0.128   2.744   8.973 -0.1541 -0.3285 -0.0294
 7592TIP3    H146971   0.051   2.692   8.951 -0.6154  0.4801 -0.3863
 7592TIP3    H246972   0.117   2.824   8.922  0.0760  0.5020  1.1951
 7593TIP3   OH246973   4.940   0.324   8.669  0.6546 -0.0396  0.9822
 7593TIP3    H146974   4.968   0.373   8.746  0.6065  0.0218  0.9608
 7593TIP3    H246975   5.021   0.306   8.620  0.6222  0.4192  0.7514
 7594TIP3   OH246976   4.070   4.412   9.930 -0.0053 -0.2765 -0.4348
 7594TIP3    H146977   3.981   4.387   9.907  0.6715 -0.5528 -3.0285
 7594TIP3    H246978   4.118   4.329   9.934  0.4358 -0.0331 -0.5010
 7595TIP3   OH246979   3.823   3.926   8.847  0.2799 -0.6809 -0.0942
 7595TIP3    H146980   3.905   3.942   8.894  0.1556  0.2126 -0.1762
 7595TIP3    H246981   3.849   3.873   8.771  0.5731 -1.5728  0.6068
 7596TIP3   OH246982   2.052   7.709   8.078  0.1697 -0.3674 -0.0680
 7596TIP3    H146983   2.054   7.677   7.987  1.3258  1.6233 -0.8104
 7596TIP3    H246984   1.962   7.740   8.089  0.5976  1.6333 -1.4699
 7597TIP3   OH246985   6.157   1.897   8.676 -0.4540 -0.6427 -0.6167
 7597TIP3    H146986   6.243   1.854   8.673 -1.6315 -3.1521 -1.7769
 7597TIP3    H246987   6.160   1.962   8.606  0.9462  0.3157  0.2980
 7598TIP3   OH246988   8.084   4.355   8.218 -0.0282 -0.5107  0.0800
 7598TIP3    H146989   8.141   4.385   8.288 -1.5665  0.8829  0.8107
 7598TIP3    H246990   8.005   4.408   8.227 -0.9604 -1.5041 -1.6470
 7599TIP3   OH246991   2.726   2.968   7.422 -0.4451 -0.3261  0.3872
 7599TIP3    H146992   2.798   2.932   7.369 -1.2987 -2.3211  0.5165
 7599TIP3    H246993   2.738   3.063   7.415  0.3894 -0.5179 -2.1164
 7600TIP3   OH246994   7.484   1.190   8.153  0.4944 -0.1367 -0.2386
 7600TIP3    H146995   7.400   1.189   8.107 -0.3925 -0.2416  1.2968
 7600TIP3    H246996   7.490   1.103   8.193  0.7065  0.2984  0.7042
 7601TIP3   OH246997   1.844   1.931   8.377 -0.1515 -0.1253  0.6012
 7601TIP3    H146998   1.894   1.904   8.299 -0.6405  0.5615  0.0393
 7601TIP3    H246999   1.856   2.026   8.381 -0.9991 -0.0220  0.7492
 7602TIP3   OH247000   0.833   0.470   9.016  0.3098  0.4519  0.4465
 7602TIP3    H147001   0.801   0.530   8.948 -1.9694  1.1242  1.9873
 7602TIP3    H247002   0.855   0.528   9.090  2.2014 -0.3043  0.5357
 7603TIP3   OH247003   8.114   6.823   8.627  0.0635  0.2037 -0.0736
 7603TIP3    H147004   8.040   6.874   8.660 -0.3403 -1.1231  1.2101
 7603TIP3    H247005   8.161   6.796   8.706  1.0605 -0.2247 -0.8004
 7604TIP3   OH247006   5.007   3.147   9.079  0.2293  0.0392 -0.2718
 7604TIP3    H147007   4.931   3.203   9.095 -0.9125 -2.1252  3.0552
 7604TIP3    H247008   5.080   3.192   9.121 -0.4714 -0.3948  1.5054
 7605TIP3   OH247009   4.389   4.472   9.196 -0.1534 -0.7941  0.5474
 7605TIP3    H147010   4.444   4.486   9.119 -0.7488 -0.1696  0.2193
 7605TIP3    H247011   4.431   4.401   9.243  0.6869 -0.6261  0.0746
 7606TIP3   OH247012   2.511   0.285   9.168 -0.8220 -0.0536  0.1887
 7606TIP3    H147013   2.526   0.286   9.073 -1.0584  1.0826  0.1546
 7606TIP3    H247014   2.497   0.192   9.188 -1.2041 -0.2675 -0.9531
 7607TIP3   OH247015   4.826   5.938   8.858  0.3951  0.0960  0.0327
 7607TIP3    H147016   4.769   5.985   8.919 -0.0866 -1.9532  1.2471
 7607TIP3    H247017   4.839   5.852   8.898  3.6397  0.1581 -0.6344
 7608TIP3   OH247018   2.287   7.077   9.097 -0.7179 -0.2010 -0.6176
 7608TIP3    H147019   2.241   7.151   9.137  1.6005  0.7521  0.4660
 7608TIP3    H247020   2.235   7.056   9.019 -3.0293  0.6629  0.5805
 7609TIP3   OH247021   3.947   1.613   9.135 -0.0473  0.0306  0.5618
 7609TIP3    H147022   3.855   1.596   9.153 -0.1008  0.3978  0.6241
 7609TIP3    H247023   3.985   1.635   9.220 -0.4971  2.6959  0.1390
 7610TIP3   OH247024   2.588   5.881   8.525  0.5051 -0.2763 -0.1151
 7610TIP3    H147025   2.532   5.935   8.469  0.0862  0.8292  1.2991
 7610TIP3    H247026   2.531   5.855   8.598  1.7372  0.7489  1.2841
 7611TIP3   OH247027   1.419   4.219   8.863  0.2318 -0.0591  0.3418
 7611TIP3    H147028   1.339   4.248   8.818 -0.2718 -1.9648 -0.0816
 7611TIP3    H247029   1.484   4.285   8.840 -0.3266 -0.2955 -2.2149
 7612TIP3   OH247030   2.130   2.228   9.103 -0.0019 -0.4942  0.8050
 7612TIP3    H147031   2.089   2.294   9.158 -0.8775 -0.9598  0.7224
 7612TIP3    H247032   2.160   2.161   9.165 -1.8072 -1.4693  0.6973
 7613TIP3   OH247033   0.485   3.645   8.063  0.2409 -0.1019 -0.3297
 7613TIP3    H147034   0.530   3.722   8.028  0.1655 -0.4983 -1.3490
 7613TIP3    H247035   0.521   3.634   8.151 -0.0630  1.3441 -0.0029
 7614TIP3   OH247036   0.182   0.771  10.302  0.3641  0.4025  0.4494
 7614TIP3    H147037   0.229   0.760  10.385 -1.7540  1.0384  1.8367
 7614TIP3    H247038   0.096   0.733  10.318  0.3179 -0.6873 -1.9580
 7615TIP3   OH247039   6.188   2.430   8.488 -0.0427  0.4183  0.5250
 7615TIP3    H147040   6.244   2.446   8.564  0.3160 -0.7308  0.5215
 7615TIP3    H247041   6.101   2.459   8.516  0.3251  1.1869  0.9182
 7616TIP3   OH247042   5.848   4.795   8.909 -0.2254 -0.8121 -0.6805
 7616TIP3    H147043   5.891   4.743   8.977 -0.1376  0.3905  0.2324
 7616TIP3    H247044   5.755   4.781   8.923 -0.3807  1.7204  1.7285
 7617TIP3   OH247045   7.843   7.544   9.260 -0.5586 -0.4956  0.2975
 7617TIP3    H147046   7.879   7.541   9.349  0.7484 -0.3680 -0.2093
 7617TIP3    H247047   7.795   7.462   9.251 -0.4165 -0.6640  1.0036
 7618TIP3   OH247048   7.735   0.977   8.412  0.2718 -0.7387 -0.0914
 7618TIP3    H147049   7.639   0.979   8.405  0.3281 -0.9730 -1.1053
 7618TIP3    H247050   7.752   0.916   8.484 -0.3777  1.1273  1.7269
 7619TIP3   OH247051   4.987   4.540   9.831 -0.2790  0.2417 -0.5903
 7619TIP3    H147052   4.926   4.477   9.870 -0.6188  0.4810 -0.7221
 7619TIP3    H247053   5.072   4.518   9.868 -0.8975  1.8572  2.1074
 7620TIP3   OH247054   2.644   4.453  10.045 -0.2789 -0.4024 -0.1303
 7620TIP3    H147055   2.580   4.382  10.048 -1.3929  0.5810  0.9447
 7620TIP3    H247056   2.593   4.531  10.065  0.9202  0.7029 -1.2360
 7621TIP3   OH247057   6.704   0.233   9.241 -0.1351  0.0699 -0.3148
 7621TIP3    H147058   6.773   0.178   9.205  0.3732  1.4824 -1.5832
 7621TIP3    H247059   6.642   0.245   9.169 -1.7424 -1.1507  0.7946
 7622TIP3   OH247060   7.251   4.333   9.193 -0.4527  0.4015 -0.2096
 7622TIP3    H147061   7.275   4.256   9.141  0.0473 -0.0789  0.6896
 7622TIP3    H247062   7.292   4.407   9.148 -2.0593  0.3516 -1.8342
 7623TIP3   OH247063   6.260   5.733   8.156 -0.2297  0.2812 -0.0804
 7623TIP3    H147064   6.299   5.649   8.132 -0.4631  0.6336 -1.8136
 7623TIP3    H247065   6.180   5.709   8.203 -1.0863 -0.5318 -1.8555
 7624TIP3   OH247066   1.190   6.391   8.150  0.8076 -0.2893 -0.3920
 7624TIP3    H147067   1.100   6.387   8.118 -0.2453  0.9866  2.0796
 7624TIP3    H247068   1.221   6.301   8.145 -2.1947 -1.7506  2.6271
 7625TIP3   OH247069   6.845   7.566   9.116 -0.7120  0.1488  0.1000
 7625TIP3    H147070   6.782   7.621   9.069 -0.1122  0.0339 -0.8633
 7625TIP3    H247071   6.830   7.586   9.208 -1.3458  1.0093 -0.1757
 7626TIP3   OH247072   5.146   3.046   7.857 -0.0265  0.0593  0.6584
 7626TIP3    H147073   5.210   3.116   7.870  1.1193 -0.7667 -0.3453
 7626TIP3    H247074   5.079   3.063   7.923  0.8825  1.3317  1.3035
 7627TIP3   OH247075   3.757   1.210   8.922 -0.0761 -0.1143  0.5027
 7627TIP3    H147076   3.711   1.286   8.887 -0.3460 -0.6103 -0.2705
 7627TIP3    H247077   3.748   1.217   9.017 -0.3485  0.6566  0.4245
 7628TIP3   OH247078   1.697   2.742   7.785  0.0039 -0.4703  0.3587
 7628TIP3    H147079   1.641   2.803   7.833  0.5582 -0.4813  1.0414
 7628TIP3    H247080   1.660   2.739   7.697 -1.5937 -1.1308  1.0110
 7629TIP3   OH247081   7.866   1.742   8.871 -0.1034 -0.5186  0.2839
 7629TIP3    H147082   7.931   1.692   8.922 -0.6415  1.5716  3.2730
 7629TIP3    H247083   7.816   1.675   8.825  2.6351 -2.3433 -0.2706
 7630TIP3   OH247084   7.093   4.232   8.025  0.6263 -0.3110 -0.2246
 7630TIP3    H147085   7.106   4.314   7.978  1.4451 -0.6567 -0.6401
 7630TIP3    H247086   7.163   4.175   7.993 -2.9263 -3.1155 -4.1253
 7631TIP3   OH247087   2.209   7.195   8.338 -0.2803  0.3500  0.1304
 7631TIP3    H147088   2.211   7.276   8.390 -1.0042  0.3442  0.1785
 7631TIP3    H247089   2.135   7.207   8.279 -0.3959 -0.2855  0.1429
 7632TIP3   OH247090   1.450   5.877   8.514  0.3290 -0.5821 -0.3875
 7632TIP3    H147091   1.519   5.839   8.459 -1.0194 -0.1535 -2.4934
 7632TIP3    H247092   1.430   5.960   8.473 -0.3079  0.0841  1.1949
 7633TIP3   OH247093   6.092   1.935   8.949 -0.0429 -0.0806 -0.5193
 7633TIP3    H147094   6.166   1.992   8.968 -0.1193  1.2175 -3.5406
 7633TIP3    H247095   6.090   1.930   8.854 -2.7930 -1.5142 -0.4781
 7634TIP3   OH247096   7.082   4.517   7.990  1.2341  0.1409  0.4262
 7634TIP3    H147097   6.992   4.535   8.017  0.4792  1.4132 -2.5599
 7634TIP3    H247098   7.134   4.584   8.033  0.2748  1.3059 -0.1850
 7635TIP3   OH247099   1.233   0.632   8.782 -0.5324 -0.3285 -0.3332
 7635TIP3    H147100   1.264   0.595   8.700  0.0845  0.3592 -0.4160
 7635TIP3    H247101   1.168   0.698   8.756 -0.8075 -0.5605 -0.2382
 7636TIP3   OH247102   6.665   1.632   9.318  0.0162  0.4852 -0.1981
 7636TIP3    H147103   6.749   1.644   9.272  0.0171  0.5146 -0.1885
 7636TIP3    H247104   6.682   1.662   9.407  0.2066 -0.1982  0.0076
 7637TIP3   OH247105   4.131   6.141   8.984  0.3378  0.1507  0.3344
 7637TIP3    H147106   4.081   6.082   9.042 -0.2759  0.5969  0.2766
 7637TIP3    H247107   4.074   6.218   8.975  1.3148  0.9549  0.7829
 7638TIP3   OH247108   0.847   4.549   8.352 -0.2694  0.7189 -0.3552
 7638TIP3    H147109   0.870   4.463   8.317  0.2038  1.3015 -1.5545
 7638TIP3    H247110   0.808   4.595   8.278 -0.1423  1.6675  0.1551
 7639TIP3   OH247111   6.373   7.561   9.802 -0.0851 -0.3276  0.8608
 7639TIP3    H147112   6.307   7.495   9.821 -0.4372 -0.3231 -0.3058
 7639TIP3    H247113   6.456   7.514   9.810 -0.3309 -0.9159  0.0733
 7640TIP3   OH247114   6.088   3.202   9.420 -0.0168 -0.2563  0.1131
 7640TIP3    H147115   6.133   3.202   9.335 -1.6369 -2.4936 -0.8305
 7640TIP3    H247116   5.999   3.230   9.400 -0.3135 -0.4193  1.1521
 7641TIP3   OH247117   7.656   7.395   9.505 -0.0938 -0.2542  0.0485
 7641TIP3    H147118   7.663   7.343   9.425 -0.2015 -1.8233  1.0107
 7641TIP3    H247119   7.572   7.368   9.543 -1.3442  2.3889 -0.5584
 7642TIP3   OH247120   6.417   4.095   8.638 -0.2077 -0.1094  0.7828
 7642TIP3    H147121   6.422   4.152   8.561  1.1090  0.4503  1.2599
 7642TIP3    H247122   6.339   4.126   8.685 -0.7362 -0.1318 -0.0525
 7643TIP3   OH247123   1.905   0.014   8.910  0.9136 -0.5389 -0.4706
 7643TIP3    H147124   1.885   0.101   8.874 -1.9509 -1.2420 -0.8138
 7643TIP3    H247125   1.938   0.032   8.999 -1.4417  0.9163  0.2104
 7644TIP3   OH247126   7.509   0.134   8.729 -0.1741  0.0224 -0.1543
 7644TIP3    H147127   7.546   0.050   8.700 -0.6852  0.0977 -1.0896
 7644TIP3    H247128   7.574   0.199   8.703 -0.1445 -0.0140 -0.1723
 7645TIP3   OH247129   5.876   5.369   9.667 -0.4099  0.2825  0.3457
 7645TIP3    H147130   5.946   5.311   9.696 -1.0343 -0.0778  1.1934
 7645TIP3    H247131   5.895   5.453   9.711 -0.8251  0.0102  1.0735
 7646TIP3   OH247132   5.370   2.212   8.614 -0.2678  0.4470 -0.4343
 7646TIP3    H147133   5.304   2.256   8.668  0.9963  0.6853  0.9860
 7646TIP3    H247134   5.363   2.254   8.529 -2.7711 -0.3901 -0.7235
 7647TIP3   OH247135   0.044   8.110   9.248  0.2721  0.0921  0.1926
 7647TIP3    H147136   0.074   8.113   9.339  0.6028 -0.8572  0.1252
 7647TIP3    H247137   0.124   8.096   9.197  0.6369  3.8808 -0.6038
 7648TIP3   OH247138   6.620   4.792   7.749  0.2806  0.0095 -0.2148
 7648TIP3    H147139   6.547   4.845   7.783  0.3011  0.9172 -1.5252
 7648TIP3    H247140   6.697   4.847   7.762  1.0588 -1.5278  2.5544
 7649TIP3   OH247141   1.068   2.228   8.633  0.1081 -0.4678  0.1930
 7649TIP3    H147142   1.132   2.169   8.672  0.2682 -0.2244  0.3001
 7649TIP3    H247143   1.095   2.235   8.541  0.4476 -0.0863  0.3181
 7650TIP3   OH247144   2.443   4.653  10.054 -0.3819 -0.5089 -0.0797
 7650TIP3    H147145   2.475   4.690   9.972 -1.1112 -1.9275 -1.0631
 7650TIP3    H247146   2.352   4.630  10.036 -1.4365  1.6044  2.0108
 7651TIP3   OH247147   4.278   2.878   8.163  0.9161  0.0663  0.0345
 7651TIP3    H147148   4.342   2.901   8.096  1.5065 -0.4798  0.3920
 7651TIP3    H247149   4.325   2.817   8.220  0.3018  0.2272  0.7206
 7652TIP3   OH247150   2.258   4.349   7.628  0.2493  0.3954  1.0473
 7652TIP3    H147151   2.226   4.264   7.600  1.9402  0.1671 -0.3707
 7652TIP3    H247152   2.194   4.412   7.593 -0.6036 -0.2293  1.4623
 7653TIP3   OH247153   0.783   4.098  10.131  0.0641 -0.7126  0.3477
 7653TIP3    H147154   0.807   4.144  10.211 -3.2780  1.0497  0.4922
 7653TIP3    H247155   0.773   4.168  10.066 -1.2011 -1.6645 -0.5200
 7654TIP3   OH247156   0.451   6.740   9.221 -0.0807 -0.0945  0.2187
 7654TIP3    H147157   0.513   6.669   9.205 -0.7715 -1.0427  1.5784
 7654TIP3    H247158   0.501   6.820   9.202  1.6238 -0.8076  1.4142
 7655TIP3   OH247159   6.383   6.345   8.867  0.0988  0.0235  0.0976
 7655TIP3    H147160   6.326   6.356   8.790 -0.4490  0.6192  0.5778
 7655TIP3    H247161   6.420   6.258   8.857 -0.6093 -0.2287 -0.4230
 7656TIP3   OH247162   2.190   0.822   9.443  0.4528  0.3081 -0.4338
 7656TIP3    H147163   2.223   0.738   9.476 -0.6808  0.3637  1.0008
 7656TIP3    H247164   2.262   0.883   9.455  0.9907 -0.2835 -0.6368
 7657TIP3   OH247165   3.221   0.717   8.565 -0.1266  0.2103  0.0052
 7657TIP3    H147166   3.179   0.761   8.491  1.6364  0.2980 -1.0012
 7657TIP3    H247167   3.251   0.633   8.528  0.4919  0.1190  0.6904
 7658TIP3   OH247168   4.045   0.306   9.072  0.2714  0.1330  0.5962
 7658TIP3    H147169   3.955   0.273   9.073  0.1192  0.5055  2.2750
 7658TIP3    H247170   4.077   0.286   8.984 -1.4486 -0.0017 -0.0336
 7659TIP3   OH247171   2.227   7.531   9.425  0.6793  0.4642  0.7201
 7659TIP3    H147172   2.300   7.592   9.419  0.5623  0.5341 -0.2276
 7659TIP3    H247173   2.162   7.576   9.479  0.2228  1.5915 -0.6993
 7660TIP3   OH247174   5.152   6.261  10.394 -0.4064  0.1040 -0.1143
 7660TIP3    H147175   5.150   6.168  10.417 -0.0249  0.2256  0.4277
 7660TIP3    H247176   5.112   6.265  10.307 -1.3784 -0.4229  0.3020
 7661TIP3   OH247177   0.059   2.266   8.575 -0.3044  0.2460  0.5295
 7661TIP3    H147178   0.058   2.241   8.482  0.5865  0.0772  0.5528
 7661TIP3    H247179   0.031   2.186   8.621  0.9491 -0.2274  0.5022
 7662TIP3   OH247180   4.029   7.526   8.759  0.0344  0.5569 -0.1749
 7662TIP3    H147181   3.952   7.521   8.702  1.0010  1.9714 -1.6977
 7662TIP3    H247182   4.104   7.515   8.699  1.0652 -1.1871  1.3040
 7663TIP3   OH247183   6.545   6.756  10.244 -0.0533 -0.3776  0.4514
 7663TIP3    H147184   6.533   6.683  10.184  1.8438  0.0133 -0.4874
 7663TIP3    H247185   6.627   6.736  10.291  0.5088  1.0955  0.1842
 7664TIP3   OH247186   2.015   8.104   8.998 -0.3158 -0.4335  0.2127
 7664TIP3    H147187   1.957   8.162   9.049 -1.3643 -1.5199  0.3043
 7664TIP3    H247188   1.987   8.117   8.907  0.0639 -0.1302  0.1376
 7665TIP3   OH247189   1.987   1.015   7.942 -0.3205  0.1085 -0.4160
 7665TIP3    H147190   2.054   1.083   7.932 -1.9643  1.9562  0.2724
 7665TIP3    H247191   2.004   0.976   8.027  0.3258  0.0260 -0.5816
 7666TIP3   OH247192   7.490   3.534   9.669 -0.6230  0.4671  0.2051
 7666TIP3    H147193   7.556   3.501   9.608 -1.2055 -0.9731  0.3280
 7666TIP3    H247194   7.529   3.614   9.704  1.7895 -1.0886  1.3983
 7667TIP3   OH247195   5.950   7.074   8.392 -0.0859  0.0396 -0.1407
 7667TIP3    H147196   5.878   7.050   8.333  1.2862 -1.0502 -1.4459
 7667TIP3    H247197   5.992   7.149   8.349 -1.2160  1.5837  1.3186
 7668TIP3   OH247198   1.919   1.324   9.472 -0.4362  0.2494  0.0984
 7668TIP3    H147199   1.878   1.372   9.543 -0.6926  0.9784 -0.5253
 7668TIP3    H247200   2.008   1.360   9.466 -0.8879  1.2901 -0.9094
 7669TIP3   OH247201   8.397   2.302   9.190  0.7256  0.1663 -0.4089
 7669TIP3    H147202   8.357   2.361   9.254 -0.5273 -1.9007  0.8410
 7669TIP3    H247203   8.461   2.356   9.144  2.6241  1.5619  3.4196
 7670TIP3   OH247204   0.362   1.571   9.145  0.0034 -0.2972 -0.0506
 7670TIP3    H147205   0.374   1.499   9.208 -1.2187 -0.5429 -0.0719
 7670TIP3    H247206   0.422   1.551   9.074 -1.9485 -2.6432 -1.1897
 7671TIP3   OH247207   5.503   4.911   8.753  0.6988  0.0552  0.0908
 7671TIP3    H147208   5.501   4.828   8.801 -4.0519 -0.5846 -0.7418
 7671TIP3    H247209   5.487   4.977   8.820  1.7847  0.0763  0.3588
 7672TIP3   OH247210   3.941   3.394   8.133  0.1759  0.4783  0.3451
 7672TIP3    H147211   3.951   3.305   8.168  0.6981  0.0948 -0.7425
 7672TIP3    H247212   3.882   3.384   8.058  1.5427  0.7547 -0.8086
 7673TIP3   OH247213   6.891   7.788   8.452  0.3730  0.4868  0.7985
 7673TIP3    H147214   6.841   7.869   8.460 -0.9120 -0.3212  1.1291
 7673TIP3    H247215   6.859   7.732   8.522 -0.5046 -1.2157 -0.8608
 7674TIP3   OH247216   2.755   6.576   8.582 -0.1510  0.0692  0.0179
 7674TIP3    H147217   2.717   6.612   8.662 -0.2151 -0.2997  0.1542
 7674TIP3    H247218   2.808   6.647   8.546 -1.8598  0.9938 -0.7678
 7675TIP3   OH247219   0.432   0.754   8.817  0.0899  0.0786  0.0159
 7675TIP3    H147220   0.491   0.828   8.817 -2.8462  2.6211  0.3500
 7675TIP3    H247221   0.380   0.764   8.736 -0.5511 -1.4844  0.1803
 7676TIP3   OH247222   0.121   0.515   8.513 -0.0411 -0.5150 -0.0508
 7676TIP3    H147223   0.053   0.573   8.547  2.0906  0.1140  3.7583
 7676TIP3    H247224   0.099   0.428   8.547  0.2068 -0.6352 -0.1873
 7677TIP3   OH247225   4.950   6.222   8.893 -0.4008  0.5850 -0.2463
 7677TIP3    H147226   4.961   6.166   8.970 -0.8994  2.2241  1.0738
 7677TIP3    H247227   4.855   6.232   8.884 -0.3502  0.1787 -1.2551
 7678TIP3   OH247228   6.617   1.740   8.806 -0.0424 -0.2405  0.6151
 7678TIP3    H147229   6.697   1.712   8.851 -0.5189  1.3001  2.5749
 7678TIP3    H247230   6.648   1.800   8.737  0.5270 -0.1053  0.9849
 7679TIP3   OH247231   8.210   4.890   7.922 -0.2372 -0.6103 -0.0244
 7679TIP3    H147232   8.209   4.831   7.997 -0.2834 -1.1316 -0.4302
 7679TIP3    H247233   8.232   4.834   7.847 -0.1814 -0.0976 -0.4007
 7680TIP3   OH247234   4.823   3.835  10.159 -0.7463 -0.2229 -0.8293
 7680TIP3    H147235   4.900   3.888  10.141 -1.2070  0.4524 -0.8539
 7680TIP3    H247236   4.773   3.886  10.223 -1.4491 -0.3873 -1.2348
 7681TIP3   OH247237   6.073   3.951   8.817  0.2021  0.5967 -0.1208
 7681TIP3    H147238   6.050   3.868   8.858 -0.2867  0.2371 -1.0789
 7681TIP3    H247239   6.097   3.928   8.727  1.7089  1.3031  0.0619
 7682TIP3   OH247240   1.015   3.175   8.136  0.5206 -0.2805  0.2343
 7682TIP3    H147241   1.012   3.254   8.082 -0.1335 -0.2703  0.2714
 7682TIP3    H247242   1.063   3.112   8.083  0.1152 -0.1892 -0.2573
 7683TIP3   OH247243   0.417   7.512   8.829  0.1715  0.1616  0.2237
 7683TIP3    H147244   0.402   7.603   8.803  0.5248 -0.7146 -3.6737
 7683TIP3    H247245   0.331   7.471   8.821  0.3188 -0.1844  0.4127
 7684TIP3   OH247246   8.140   3.132   8.028 -0.5967  0.2691 -0.0730
 7684TIP3    H147247   8.222   3.085   8.020 -0.9505 -0.2504 -0.7367
 7684TIP3    H247248   8.161   3.209   8.082  0.8414  1.3230 -2.0101
 7685TIP3   OH247249   5.868   1.046   9.155 -0.3208  0.1670  0.3884
 7685TIP3    H147250   5.929   1.079   9.090 -0.5636  1.2490  0.6893
 7685TIP3    H247251   5.816   0.979   9.109 -0.7082  1.1440 -0.6186
 7686TIP3   OH247252   4.857   6.477  10.034 -0.1263 -0.2622  0.0376
 7686TIP3    H147253   4.835   6.462   9.942  1.5088 -2.1495 -0.0984
 7686TIP3    H247254   4.786   6.436  10.083 -0.2075 -0.6193 -0.3753
 7687TIP3   OH247255   7.833   8.225   9.617 -0.0001  0.5909 -0.1181
 7687TIP3    H147256   7.803   8.152   9.671  0.1457 -0.0988 -0.9367
 7687TIP3    H247257   7.793   8.208   9.531 -1.1003  2.2233  0.0295
 7688TIP3   OH247258   5.856   3.036   9.484  0.0388  0.3903 -0.2819
 7688TIP3    H147259   5.952   3.037   9.482  0.1099 -1.6208  0.3576
 7688TIP3    H247260   5.832   3.129   9.491  1.8682  1.0587 -1.8193
 7689TIP3   OH247261   0.302   8.086   9.189  0.4845 -0.0081  0.2539
 7689TIP3    H147262   0.380   8.048   9.229  1.8878 -0.0823 -2.3354
 7689TIP3    H247263   0.335   8.134   9.113 -2.0648 -0.9751 -1.6079
 7690TIP3   OH247264   1.299   2.936   8.366 -0.2604 -0.5300 -0.7729
 7690TIP3    H147265   1.304   2.980   8.451  0.3140  0.7514 -1.4451
 7690TIP3    H247266   1.208   2.943   8.340 -0.9345 -2.8226  0.6678
 7691TIP3   OH247267   5.000   4.343   9.293  0.3597  0.1488 -0.1734
 7691TIP3    H147268   4.964   4.379   9.374 -0.6284  0.3624 -0.7014
 7691TIP3    H247269   5.087   4.383   9.286 -0.4243  1.9209 -0.3787
 7692TIP3   OH247270   0.541   7.871   8.344  1.1189 -0.6146 -0.0060
 7692TIP3    H147271   0.552   7.963   8.319  2.1228 -0.1053  2.0382
 7692TIP3    H247272   0.477   7.873   8.415  0.2222 -1.6863 -0.7389
 7693TIP3   OH247273   5.966   7.767  14.184  0.0126 -0.6034  0.4202
 7693TIP3    H147274   6.045   7.784  14.235  0.7688  0.4982 -1.0605
 7693TIP3    H247275   5.919   7.850  14.182 -0.8219 -1.0523  0.6388
 7694TIP3   OH247276   6.467   3.098   7.791 -0.7884 -0.4570 -0.1883
 7694TIP3    H147277   6.496   3.036   7.724 -0.2765  1.7118 -2.1027
 7694TIP3    H247278   6.419   3.044   7.855 -0.7347 -2.7265 -1.9407
 7695TIP3   OH247279   6.170   5.711   9.617  0.2178  0.6012  0.3333
 7695TIP3    H147280   6.203   5.791   9.576  0.0071  0.9912  0.9231
 7695TIP3    H247281   6.077   5.728   9.632  0.5261  0.9394  2.0739
 7696TIP3   OH247282   1.243   7.209   8.728  0.3682  0.3834 -0.0655
 7696TIP3    H147283   1.215   7.301   8.734 -1.9642 -0.1214 -1.6039
 7696TIP3    H247284   1.298   7.206   8.650  0.6532  0.5313  0.1314
 7697TIP3   OH247285   8.276   3.737   7.968  0.4893 -0.3053  0.4101
 7697TIP3    H147286   8.304   3.828   7.976  0.8379 -0.5282  1.9162
 7697TIP3    H247287   8.314   3.707   7.885 -0.3673  1.1499 -0.5687
 7698TIP3   OH247288   0.201   5.656   8.093 -0.0136 -0.2207  0.6079
 7698TIP3    H147289   0.158   5.682   8.175 -1.0840 -2.1423  0.7054
 7698TIP3    H247290   0.177   5.565   8.081  0.1955 -0.0175 -1.8191
 7699TIP3   OH247291   1.017   2.616   8.323 -0.1658 -0.4587  0.7023
 7699TIP3    H147292   1.099   2.614   8.372  0.4014 -3.2713 -0.1499
 7699TIP3    H247293   0.950   2.593   8.387 -0.6206  3.1096  1.7060
 7700TIP3   OH247294   5.312   8.047   8.775 -0.3511 -0.4863 -0.4115
 7700TIP3    H147295   5.329   8.095   8.856 -1.5695 -3.6751  1.9813
 7700TIP3    H247296   5.388   8.065   8.720  0.2117  2.3767  1.1039
 7701TIP3   OH247297   3.096   2.134   9.443 -0.1762  0.3071  0.0740
 7701TIP3    H147298   3.125   2.059   9.391 -3.2645 -0.2695 -0.9851
 7701TIP3    H247299   3.130   2.210   9.397 -0.0619 -0.3182 -0.8919
 7702TIP3   OH247300   0.236   2.763   8.317  0.6279 -0.0068 -0.4686
 7702TIP3    H147301   0.313   2.711   8.293 -0.0702 -1.4020  0.1783
 7702TIP3    H247302   0.204   2.722   8.397 -0.8738  0.4316 -0.8107
 7703TIP3   OH247303   3.322   8.055   9.192  0.2700 -0.0253  0.0145
 7703TIP3    H147304   3.417   8.062   9.177  0.3391 -0.0823  0.4077
 7703TIP3    H247305   3.284   8.124   9.138  0.6106  0.6270  0.5910
 7704TIP3   OH247306   2.064   7.320   9.452  0.3417  0.1463 -0.7619
 7704TIP3    H147307   2.119   7.397   9.437 -1.7487  2.0911  0.7526
 7704TIP3    H247308   2.111   7.269   9.517  1.5306  0.3757 -1.4100
 7705TIP3   OH247309   1.455   0.303   8.059 -0.0104 -0.3011  0.4125
 7705TIP3    H147310   1.538   0.350   8.069  0.1287 -0.7092  1.1818
 7705TIP3    H247311   1.466   0.222   8.108 -1.2456  0.1316  1.4727
 7706TIP3   OH247312   5.406   7.719   8.346 -0.9302  0.6944  0.0937
 7706TIP3    H147313   5.383   7.634   8.383  0.0718  0.1997 -0.3768
 7706TIP3    H247314   5.429   7.699   8.255  0.0410  1.3459  0.1846
 7707TIP3   OH247315   4.677   0.073   7.987 -0.2495 -0.0586 -0.2323
 7707TIP3    H147316   4.689   0.129   7.910 -0.1575  0.3368  0.0689
 7707TIP3    H247317   4.635  -0.006   7.952  1.5081 -0.7075 -1.0056
 7708TIP3   OH247318   7.125   3.190   9.063 -0.4123 -0.0610  0.5035
 7708TIP3    H147319   7.204   3.171   9.113  0.1089 -1.3536 -0.7477
 7708TIP3    H247320   7.135   3.139   8.983 -1.1302  2.0463 -1.0209
 7709TIP3   OH247321   5.165   0.836   9.343  0.1799 -0.4405  0.0207
 7709TIP3    H147322   5.192   0.923   9.372 -1.8518  0.1087  0.4088
 7709TIP3    H247323   5.140   0.790   9.423  0.4918 -1.1274 -0.2672
 7710TIP3   OH247324   4.466   1.162   8.954 -0.2080  0.4330 -0.0139
 7710TIP3    H147325   4.418   1.193   9.030  1.3151  2.7553  0.1199
 7710TIP3    H247326   4.399   1.127   8.895 -1.3768 -1.9926  2.5458
 7711TIP3   OH247327   0.711   7.687   9.615  0.0160 -0.3609 -0.3738
 7711TIP3    H147328   0.660   7.705   9.536  0.6512 -1.2695 -1.0019
 7711TIP3    H247329   0.695   7.763   9.671  0.3991  0.8240 -1.8031
 7712TIP3   OH247330   1.356   1.714   8.095  0.2318 -0.0275  0.0529
 7712TIP3    H147331   1.347   1.635   8.148  1.8989 -1.2279 -1.2949
 7712TIP3    H247332   1.451   1.727   8.087  0.0014  1.8113 -0.2175
 7713TIP3   OH247333   5.035   5.109   9.460 -0.1047  0.4878  0.0689
 7713TIP3    H147334   5.078   5.089   9.544  2.1782  0.1671 -1.1052
 7713TIP3    H247335   5.100   5.087   9.394 -2.7239 -1.6232 -1.9857
 7714TIP3   OH247336   1.139   5.160   8.049 -0.2699 -0.1442  0.1686
 7714TIP3    H147337   1.110   5.250   8.040  0.2981 -0.0090 -0.3271
 7714TIP3    H247338   1.133   5.123   7.961  1.4497  0.0080 -0.0357
 7715TIP3   OH247339   4.578   4.333   9.042 -0.3515 -0.0827 -0.3875
 7715TIP3    H147340   4.632   4.342   8.964  0.9762 -3.7429 -0.0758
 7715TIP3    H247341   4.511   4.269   9.019 -1.9791  1.1766  0.5744
 7716TIP3   OH247342   6.805   7.051  10.150  0.6872 -0.2960  0.1260
 7716TIP3    H147343   6.726   7.021  10.194 -0.0271 -2.0608 -2.1704
 7716TIP3    H247344   6.789   7.144  10.134 -0.2627 -0.2870  1.0331
 7717TIP3   OH247345   0.941   0.263   7.950 -0.1828 -0.4006 -0.5311
 7717TIP3    H147346   0.937   0.304   8.037  0.3992 -0.2051 -0.5960
 7717TIP3    H247347   1.019   0.300   7.909 -0.9437  0.1852 -1.4925
 7718TIP3   OH247348   2.405   5.385   8.557  0.7959  0.2161  0.3962
 7718TIP3    H147349   2.317   5.366   8.590 -0.3691  0.3262 -2.3808
 7718TIP3    H247350   2.448   5.300   8.551  0.5657  0.0597  0.9246
 7719TIP3   OH247351   6.033   4.410   7.741 -0.3517  0.3441 -0.5183
 7719TIP3    H147352   5.964   4.471   7.716 -0.7563  0.0402 -0.1660
 7719TIP3    H247353   6.041   4.351   7.666 -0.5661  0.3047 -0.5116
 7720TIP3   OH247354   5.014   1.518   9.634  0.4405 -0.0329  0.2661
 7720TIP3    H147355   5.002   1.580   9.705  0.5014  0.5596 -0.2300
 7720TIP3    H247356   5.057   1.443   9.674 -0.9767 -0.3965  1.1796
 7721TIP3   OH247357   2.691   1.191   9.564 -0.1691  0.0527 -0.0653
 7721TIP3    H147358   2.645   1.257   9.513 -0.5071 -0.2854 -0.2055
 7721TIP3    H247359   2.777   1.230   9.583  0.2447 -0.0940 -1.5194
 7722TIP3   OH247360   4.120   2.513   9.688 -0.1651 -0.2201 -0.2126
 7722TIP3    H147361   4.190   2.468   9.640 -1.5328 -1.8072 -0.7979
 7722TIP3    H247362   4.118   2.601   9.651  1.1319 -0.3319 -0.5804
 7723TIP3   OH247363   5.601   7.140   9.251 -0.9275 -0.4839 -0.2196
 7723TIP3    H147364   5.657   7.111   9.324 -1.4074  0.1017  0.3855
 7723TIP3    H247365   5.591   7.061   9.197 -0.2751 -0.8349  0.1473
 7724TIP3   OH247366   3.728   2.626   8.216 -0.2574 -0.0114  0.1123
 7724TIP3    H147367   3.689   2.561   8.158  0.5622 -0.9283  0.5570
 7724TIP3    H247368   3.766   2.575   8.287  1.1893  0.8738  0.0169
 7725TIP3   OH247369   4.743   4.139   9.241 -0.3139  0.4077 -0.7994
 7725TIP3    H147370   4.673   4.073   9.244  1.0913 -1.1573 -0.9648
 7725TIP3    H247371   4.787   4.131   9.325  1.2361 -0.4661 -1.6530
 7726TIP3   OH247372   0.434   5.334   7.455 -0.4282 -0.2392 -0.0367
 7726TIP3    H147373   0.500   5.294   7.512  0.8167  2.9390  0.9631
 7726TIP3    H247374   0.350   5.302   7.490  0.3277  0.6854  2.9537
 7727TIP3   OH247375   7.213   4.414   8.895  0.5515  0.0903  0.3580
 7727TIP3    H147376   7.136   4.469   8.879 -0.7586 -1.7591 -0.0548
 7727TIP3    H247377   7.269   4.467   8.952 -0.9775  1.5336  0.6103
 7728TIP3   OH247378   1.446   3.864   9.682 -0.6935 -0.3204  0.0854
 7728TIP3    H147379   1.425   3.876   9.774  0.2830  0.8929  0.1825
 7728TIP3    H247380   1.527   3.812   9.682  1.5829  2.9031  0.1642
 7729TIP3   OH247381   3.093   8.088   7.948 -0.1814 -0.0316  0.1070
 7729TIP3    H147382   3.046   8.015   7.987  2.4785 -1.4201  0.9939
 7729TIP3    H247383   3.175   8.049   7.916  0.2353  2.1358 -1.6718
 7730TIP3   OH247384   6.321   5.067   8.074  0.7379  0.6000 -0.1763
 7730TIP3    H147385   6.231   5.079   8.046  0.4659  0.3609  0.5872
 7730TIP3    H247386   6.334   5.130   8.145  0.2898 -1.2131  1.6231
 7731TIP3   OH247387   7.975   6.827   9.089 -0.1957 -0.2542  0.1548
 7731TIP3    H147388   8.069   6.847   9.096 -0.3564  2.7781 -3.1735
 7731TIP3    H247389   7.972   6.754   9.027  0.1126  2.2433 -3.1182
 7732TIP3   OH247390   8.197   3.429   7.947 -0.1215  0.3905 -0.2704
 7732TIP3    H147391   8.221   3.506   7.999  1.7047 -0.5862  0.4320
 7732TIP3    H247392   8.111   3.404   7.979  0.2841  0.7546  1.1811
 7733TIP3   OH247393   6.573   2.633   8.418 -0.2836 -0.4942  0.2219
 7733TIP3    H147394   6.508   2.665   8.356 -0.2695  0.4860  0.6963
 7733TIP3    H247395   6.656   2.634   8.369 -0.0429  1.4927  0.5946
 7734TIP3   OH247396   7.939   5.387   8.003  0.1478  0.1442  0.7808
 7734TIP3    H147397   7.966   5.382   7.911 -0.4282 -1.2844  0.6551
 7734TIP3    H247398   8.021   5.377   8.052  0.4197  0.5964  0.4307
 7735TIP3   OH247399   2.026   6.343   8.187 -0.2815  0.1148 -0.2098
 7735TIP3    H147400   2.112   6.385   8.185 -0.1251 -0.0146  1.9936
 7735TIP3    H247401   2.044   6.251   8.204 -0.8297 -0.0892 -0.6885
 7736TIP3   OH247402   3.619   3.610   7.822  0.1025 -0.0931 -0.2003
 7736TIP3    H147403   3.589   3.697   7.849  0.5580  0.0328 -0.0875
 7736TIP3    H247404   3.539   3.560   7.810 -0.1505  0.1728  0.3068
 7737TIP3   OH247405   2.402   3.972   8.345 -0.7070  0.6742 -0.1671
 7737TIP3    H147406   2.348   3.924   8.283  1.0819  0.5373 -1.6842
 7737TIP3    H247407   2.418   4.057   8.303  0.3954  0.6457  0.1534
 7738TIP3   OH247408   4.878   5.692   8.973  0.1610 -0.0583  0.3959
 7738TIP3    H147409   4.911   5.743   9.047  1.2773  0.5144 -0.4579
 7738TIP3    H247410   4.954   5.640   8.945 -0.5593 -1.1046  0.3486
 7739TIP3   OH247411   7.760   3.629   8.056  0.9155  0.5872  0.1616
 7739TIP3    H147412   7.678   3.626   8.007  0.7954 -1.9139  0.3960
 7739TIP3    H247413   7.819   3.681   8.001 -0.7199  2.2329 -0.1092
 7740TIP3   OH247414   0.156   0.729   9.229 -0.0418  0.5750  0.3609
 7740TIP3    H147415   0.141   0.747   9.136 -0.5517 -1.8361 -0.0717
 7740TIP3    H247416   0.250   0.743   9.241 -0.2480  2.6817 -0.0399
 7741TIP3   OH247417   0.279   5.365   8.298  0.4075 -0.3314 -0.2589
 7741TIP3    H147418   0.227   5.417   8.359 -0.3355  0.0157 -1.1466
 7741TIP3    H247419   0.366   5.405   8.300 -0.1589  1.0292 -0.9519
 7742TIP3   OH247420   7.217   6.498   8.743  0.2155 -0.1056 -0.4024
 7742TIP3    H147421   7.166   6.444   8.682 -1.4796  1.0191 -0.0577
 7742TIP3    H247422   7.203   6.588   8.713  1.4069  0.2933  0.1805
 7743TIP3   OH247423   4.101   8.165   9.783 -0.7041 -0.0027 -0.1473
 7743TIP3    H147424   4.090   8.105   9.709 -2.4247  0.6658 -0.4811
 7743TIP3    H247425   4.089   8.110   9.860  4.5605 -1.4934 -0.0196
 7744TIP3   OH247426   3.732   0.665   7.910 -0.2499 -0.4890  0.4892
 7744TIP3    H147427   3.782   0.622   7.980  0.7437 -0.5071 -0.2077
 7744TIP3    H247428   3.660   0.605   7.891  0.5684 -1.4044  0.1872
 7745TIP3   OH247429   4.930   5.054   8.670 -0.3802 -0.1020 -0.9734
 7745TIP3    H147430   4.936   4.980   8.610 -1.6461 -2.3207  1.4061
 7745TIP3    H247431   5.020   5.068   8.700 -0.1420 -0.7988 -1.3528
 7746TIP3   OH247432   2.822   7.068   8.579 -0.6864 -0.1535  0.8801
 7746TIP3    H147433   2.857   7.024   8.656  0.4099 -1.7298 -0.4531
 7746TIP3    H247434   2.883   7.140   8.563 -1.5978  0.9458  2.1433
 7747TIP3   OH247435   0.463   3.408   8.896 -0.1696  0.4577  0.4036
 7747TIP3    H147436   0.452   3.321   8.858 -0.9525  0.4379  0.6568
 7747TIP3    H247437   0.545   3.403   8.944  0.0625  0.0244 -0.0296
 7748TIP3   OH247438   2.318   1.496   7.615 -0.0132  0.2106 -0.5431
 7748TIP3    H147439   2.290   1.567   7.556 -0.5565  0.2000 -0.3057
 7748TIP3    H247440   2.298   1.529   7.703 -0.0495 -0.1446 -0.4196
 7749TIP3   OH247441   7.537   0.558   9.169  0.5698  0.3111 -0.2477
 7749TIP3    H147442   7.548   0.469   9.202 -1.7789 -0.0529 -0.2710
 7749TIP3    H247443   7.625   0.584   9.141  1.2386 -2.1816 -0.7372
 7750TIP3   OH247444   3.927   4.344   8.195 -0.5268  0.1509  0.0990
 7750TIP3    H147445   3.877   4.398   8.134  0.6999  1.4481  0.2030
 7750TIP3    H247446   4.008   4.324   8.149 -0.5881 -0.8702  0.4117
 7751TIP3   OH247447   8.383   7.524   7.982 -0.1318  0.1339  0.5929
 7751TIP3    H147448   8.353   7.434   7.997 -0.9159  0.3913  0.6301
 7751TIP3    H247449   8.466   7.530   8.029 -0.4379 -0.3528  1.2033
 7752TIP3   OH247450   1.200   6.314   9.101 -0.6914  0.2552  0.5354
 7752TIP3    H147451   1.230   6.363   9.024 -1.9489  0.3542  0.0914
 7752TIP3    H247452   1.279   6.303   9.154  0.3058 -0.2224 -0.9731
 7753TIP3   OH247453   0.245   3.367   7.933 -0.4117  0.2493 -0.5830
 7753TIP3    H147454   0.245   3.438   7.997 -0.0285 -0.3458  0.0825
 7753TIP3    H247455   0.157   3.370   7.895  0.1393  2.2247 -1.8658
 7754TIP3   OH247456   7.364   4.108   9.050 -0.4175  0.2997  0.0294
 7754TIP3    H147457   7.353   4.097   8.956 -0.0817  0.2624 -0.0049
 7754TIP3    H247458   7.449   4.070   9.069  0.4595  2.1570  0.0241
 7755TIP3   OH247459   7.986   8.040   9.929 -0.2623 -0.1046 -0.5275
 7755TIP3    H147460   7.911   7.994   9.967  0.4331 -0.8172  0.0168
 7755TIP3    H247461   7.989   8.008   9.838 -1.3198  0.8377 -0.9220
 7756TIP3   OH247462   2.190   6.674   9.253 -0.8524 -0.1480  0.1904
 7756TIP3    H147463   2.245   6.598   9.272  0.5479  0.2274 -1.9657
 7756TIP3    H247464   2.111   6.637   9.213 -1.0057 -0.5495  0.8468
 7757TIP3   OH247465   5.281   3.784   9.036  0.0947 -0.4723  0.0545
 7757TIP3    H147466   5.318   3.851   9.093  0.9138  0.4687 -1.5282
 7757TIP3    H247467   5.356   3.746   8.990 -0.6693  0.3761 -2.0516
 7758TIP3   OH247468   1.232   1.655  10.074  0.0951 -0.9857 -0.5868
 7758TIP3    H147469   1.273   1.740  10.093  1.0684 -1.7407  0.7721
 7758TIP3    H247470   1.262   1.597  10.143 -2.7497 -1.7817  0.1249
 7759TIP3   OH247471   4.374   8.444   9.839 -0.1675  0.3765 -0.2229
 7759TIP3    H147472   4.466   8.442   9.865 -0.1938  0.0839 -0.1433
 7759TIP3    H247473   4.368   8.381   9.767  0.0452  1.6714 -1.4070
 7760TIP3   OH247474   4.820   6.994   8.094  0.1773 -0.3712  0.2752
 7760TIP3    H147475   4.873   6.914   8.090  1.3475  0.4158 -0.7440
 7760TIP3    H247476   4.877   7.057   8.139  0.8795  0.9997 -2.3586
 7761TIP3   OH247477   2.693   2.260   7.798 -0.1154 -0.3358  0.7856
 7761TIP3    H147478   2.641   2.264   7.718  0.0527 -1.4444  0.6025
 7761TIP3    H247479   2.784   2.265   7.769 -0.0413 -1.1312  0.8601
 7762TIP3   OH247480   1.733   4.164   8.836 -0.2587  0.0102 -0.2812
 7762TIP3    H147481   1.721   4.088   8.893 -2.7162  0.3323 -0.2660
 7762TIP3    H247482   1.730   4.129   8.747 -0.2731 -0.0581 -0.2532
 7763TIP3   OH247483   3.662   5.297   9.388 -0.1005 -0.6894 -0.2358
 7763TIP3    H147484   3.725   5.226   9.401  1.8640  0.3414 -3.1238
 7763TIP3    H247485   3.707   5.376   9.419 -1.1773 -0.2934  0.3904
 7764TIP3   OH247486   1.369   2.141   9.069  0.5790 -0.0366 -0.1647
 7764TIP3    H147487   1.448   2.107   9.112  0.5933  0.6474  0.3804
 7764TIP3    H247488   1.298   2.091   9.108  0.6755 -0.0778 -0.0374
 7765TIP3   OH247489   0.659   1.221   8.554 -0.6904  0.1948 -0.1585
 7765TIP3    H147490   0.589   1.286   8.563  0.0876  0.9669  0.5904
 7765TIP3    H247491   0.740   1.273   8.560 -0.0136 -0.4745 -2.4347
 7766TIP3   OH247492   1.935   7.191   8.257  0.5126  0.1004  0.2254
 7766TIP3    H147493   1.944   7.218   8.165 -0.9769  0.1179  0.0540
 7766TIP3    H247494   1.930   7.273   8.305 -0.1613  0.1150  0.1423
 7767TIP3   OH247495   5.149   5.969  10.409  0.2532  0.2198  0.2585
 7767TIP3    H147496   5.099   5.896  10.373 -0.7051  1.1682 -0.4001
 7767TIP3    H247497   5.222   5.980  10.349  0.3287 -0.1157  0.2882
 7768TIP3   OH247498   3.385   3.741   9.496 -0.2911 -0.9636 -0.0399
 7768TIP3    H147499   3.419   3.783   9.575 -0.1183  1.2519 -1.1967
 7768TIP3    H247500   3.290   3.748   9.504 -0.2650  0.7149 -0.6699
 7769TIP3   OH247501   0.090   1.965   8.359 -0.3390 -0.0412  0.0346
 7769TIP3    H147502   0.002   2.002   8.353 -0.7419 -0.7379  1.1534
 7769TIP3    H247503   0.148   2.041   8.367 -1.0984  0.4046  1.8195
 7770TIP3   OH247504   5.132   5.976   9.990 -0.0701 -0.2917  0.2427
 7770TIP3    H147505   5.071   5.979   9.917 -0.1981 -0.3274  0.3485
 7770TIP3    H247506   5.212   5.939   9.953 -0.5027 -1.4069  0.3849
 7771TIP3   OH247507   2.419   4.976   8.734 -0.2691 -0.4211 -0.1307
 7771TIP3    H147508   2.472   5.014   8.664  0.0471  0.5635  0.6250
 7771TIP3    H247509   2.336   4.955   8.691  0.0013 -0.0678 -0.8541
 7772TIP3   OH247510   8.098   1.644   8.618 -0.0689 -0.2565  0.1425
 7772TIP3    H147511   8.102   1.549   8.607 -0.1044 -0.1558 -0.8099
 7772TIP3    H247512   8.006   1.661   8.639 -0.0659 -0.4288  0.2975
 7773TIP3   OH247513   7.328   5.264   8.643  0.5713  0.0697  0.1581
 7773TIP3    H147514   7.355   5.259   8.552 -1.1414 -1.4725 -0.3237
 7773TIP3    H247515   7.400   5.309   8.687  2.6253 -1.4256 -1.4867
 7774TIP3   OH247516   2.971   3.958   8.123 -0.0439 -0.5090  0.4397
 7774TIP3    H147517   3.005   3.879   8.165 -1.2153 -1.2344  0.0775
 7774TIP3    H247518   2.915   3.998   8.189 -2.2889 -1.9172 -0.4890
 7775TIP3   OH247519   6.559   6.551   8.563  0.1280 -0.3481 -0.2043
 7775TIP3    H147520   6.552   6.473   8.509 -2.2453 -1.3572  1.4052
 7775TIP3    H247521   6.563   6.623   8.501 -0.4198 -1.5726 -1.7086
 7776TIP3   OH247522   3.760   4.166   8.747 -0.0935  0.0051 -0.4852
 7776TIP3    H147523   3.771   4.072   8.762 -0.3711 -0.2628 -1.8393
 7776TIP3    H247524   3.723   4.172   8.659 -0.8424  1.3502 -0.1119
 7777TIP3   OH247525   1.190   2.666   8.532  0.1687  0.2798 -0.1653
 7777TIP3    H147526   1.185   2.746   8.584  0.3384  0.2273 -0.0668
 7777TIP3    H247527   1.242   2.606   8.585  0.7892  0.4011 -0.6148
 7778TIP3   OH247528   2.278   2.550  10.076  0.0530  0.2271 -0.1049
 7778TIP3    H147529   2.338   2.616  10.110  0.0202 -0.0285  0.4493
 7778TIP3    H247530   2.334   2.478  10.048  0.0582  0.3085 -0.3040
 7779TIP3   OH247531   1.132   2.039   9.175 -0.3192 -0.2623  0.0375
 7779TIP3    H147532   1.075   1.988   9.117 -0.6495 -0.9945  0.9614
 7779TIP3    H247533   1.079   2.054   9.253  0.3159  0.1749  0.3975
 7780TIP3   OH247534   5.533   7.691   7.900  0.7355  0.1458 -0.1366
 7780TIP3    H147535   5.542   7.626   7.970 -1.4582 -1.2880 -1.0545
 7780TIP3    H247536   5.446   7.673   7.863  0.8109  2.4858 -1.6026
 7781TIP3   OH247537   7.454   7.797   8.074  0.2820  0.2221 -0.0665
 7781TIP3    H147538   7.469   7.714   8.121  1.7194 -0.3511 -1.4755
 7781TIP3    H247539   7.420   7.770   7.989 -1.5022  1.2215  0.2832
 7782TIP3   OH247540   6.564   7.029  10.263  0.1668  0.4447 -0.0955
 7782TIP3    H147541   6.551   7.055  10.355 -1.5667 -1.4103  0.2558
 7782TIP3    H247542   6.556   6.934  10.264 -2.2675  0.5220 -2.4923
 7783TIP3   OH247543   7.312   2.569   7.603  0.2491 -0.1881  0.4213
 7783TIP3    H147544   7.291   2.661   7.585  0.2519 -0.4442 -0.9840
 7783TIP3    H247545   7.404   2.570   7.628  0.5215  0.0809 -0.5681
 7784TIP3   OH247546   7.538   4.192   8.717 -0.2643  0.2453 -0.2816
 7784TIP3    H147547   7.453   4.165   8.753  0.7987  0.7748  2.9603
 7784TIP3    H247548   7.516   4.238   8.636 -2.8433 -1.6416 -0.7848
 7785TIP3   OH247549   6.227   3.559   8.544  0.0397 -0.0007 -0.1981
 7785TIP3    H147550   6.305   3.510   8.517  0.2995 -0.4450  1.2661
 7785TIP3    H247551   6.252   3.600   8.626 -0.1488  2.7105 -1.3968
 7786TIP3   OH247552   8.436   3.377   7.823  0.7687 -0.6766  0.0169
 7786TIP3    H147553   8.358   3.363   7.876  0.7783  0.8448  0.4936
 7786TIP3    H247554   8.406   3.371   7.732 -0.1474  0.8221  0.1749
 7787TIP3   OH247555   6.342   1.884   7.877  0.1067 -0.0186 -0.4614
 7787TIP3    H147556   6.283   1.957   7.861 -0.5339 -0.4894 -0.2780
 7787TIP3    H247557   6.322   1.856   7.966  0.4256 -0.3435 -0.4883
 7788TIP3   OH247558   0.301   0.343   7.858  0.2019 -0.3772  0.0852
 7788TIP3    H147559   0.266   0.325   7.771 -1.3238 -1.2666  0.8365
 7788TIP3    H247560   0.378   0.399   7.842 -0.6801  0.4103 -1.7399
 7789TIP3   OH247561   0.032   1.128   9.207  0.3645  0.1205  0.7258
 7789TIP3    H147562   0.054   1.114   9.115 -0.7035  0.8503  0.3351
 7789TIP3    H247563   0.045   1.222   9.221 -3.4585  0.9297  0.0918
 7790TIP3   OH247564   1.867   5.505   7.955  0.3452 -0.2090  0.0411
 7790TIP3    H147565   1.837   5.427   7.908 -0.5239 -0.8313  1.5389
 7790TIP3    H247566   1.815   5.577   7.918 -1.0141 -0.8371  0.6496
 7791TIP3   OH247567   5.344   1.264   8.658  0.2174  0.5771 -0.1451
 7791TIP3    H147568   5.405   1.298   8.724 -0.0998  1.0333 -0.0773
 7791TIP3    H247569   5.275   1.222   8.709  0.2857  0.3894 -0.2074
 7792TIP3   OH247570   8.032   8.210   8.335  0.1009 -0.2634  0.6269
 7792TIP3    H147571   8.110   8.155   8.328  0.8257  0.8082  0.0400
 7792TIP3    H247572   8.058   8.280   8.395  0.1568  0.9859 -0.7893
 7793TIP3   OH247573   1.094   1.448   8.573 -0.0435 -0.6236  0.8307
 7793TIP3    H147574   1.064   1.517   8.513 -1.1991 -0.4941  1.5214
 7793TIP3    H247575   1.186   1.470   8.590  0.4689 -0.9499 -1.2535
 7794TIP3   OH247576   3.104   4.089   8.397  0.1873  0.5282  0.1302
 7794TIP3    H147577   3.157   4.046   8.330  0.1150  1.1127 -0.3096
 7794TIP3    H247578   3.091   4.022   8.465  0.5424  0.0400 -0.2825
 7795TIP3   OH247579   3.583   2.376   8.541  0.5331  0.4006 -0.0570
 7795TIP3    H147580   3.528   2.453   8.556 -1.1459 -0.7821  0.1819
 7795TIP3    H247581   3.605   2.345   8.629  2.8232  1.6184 -0.1091
 7796TIP3   OH247582   3.567   5.875   9.602  0.3117  0.1244  0.5223
 7796TIP3    H147583   3.631   5.863   9.532  1.1450  3.0870  0.6478
 7796TIP3    H247584   3.492   5.823   9.575  1.2320 -0.1475 -1.7201
 7797TIP3   OH247585   2.447   0.045   9.283 -0.2325 -0.2529 -0.0928
 7797TIP3    H147586   2.477   0.034   9.373  0.0480 -2.1519 -0.3891
 7797TIP3    H247587   2.372  -0.014   9.275  1.7639 -2.7294 -2.0117
 7798TIP3   OH247588   4.829   2.351   8.138  0.0733 -0.1110 -0.3137
 7798TIP3    H147589   4.826   2.267   8.092  0.2569 -0.5152  0.4001
 7798TIP3    H247590   4.739   2.365   8.167 -0.3563  0.8186 -1.9427
 7799TIP3   OH247591   1.773   4.332   7.240 -0.0961  0.0488 -0.2306
 7799TIP3    H147592   1.697   4.275   7.250  0.2136 -0.4037 -0.4222
 7799TIP3    H247593   1.847   4.279   7.269  0.3562 -0.0713 -1.5455
 7800TIP3   OH247594   3.261   1.667   8.313 -0.0831 -0.0359 -0.3907
 7800TIP3    H147595   3.295   1.581   8.337  0.4842  0.3627  0.2863
 7800TIP3    H247596   3.331   1.728   8.337 -0.1215  0.5511 -1.6360
 7801TIP3   OH247597   3.226   1.657   9.638  0.1041 -0.2676 -0.2239
 7801TIP3    H147598   3.252   1.611   9.718 -0.6684 -0.5683 -0.1328
 7801TIP3    H247599   3.170   1.595   9.592 -1.1023  0.6288 -0.0157
 7802TIP3   OH247600   7.211   0.531   8.664  0.2111 -0.2168 -0.4730
 7802TIP3    H147601   7.292   0.579   8.680 -0.1730 -0.3679  2.4714
 7802TIP3    H247602   7.235   0.439   8.675 -0.5746 -0.1914  2.0114
 7803TIP3   OH247603   3.992   3.333   9.510 -0.1360 -0.0228  0.0786
 7803TIP3    H147604   3.919   3.386   9.478  1.0668  0.1046 -2.7594
 7803TIP3    H247605   4.041   3.391   9.568 -1.6080  0.2622  1.0663
 7804TIP3   OH247606   7.926   6.630   8.884 -0.1203 -0.2268 -0.0277
 7804TIP3    H147607   7.907   6.552   8.937 -1.0379 -0.3829 -0.5792
 7804TIP3    H247608   7.990   6.599   8.819 -1.3275 -0.8326 -0.9685
 7805TIP3   OH247609   6.849   7.727  10.386  0.2592 -0.1190  0.3629
 7805TIP3    H147610   6.792   7.796  10.353  0.5817  0.3468  0.7575
 7805TIP3    H247611   6.792   7.671  10.438  0.0589  0.0485  0.3248
 7806TIP3   OH247612   2.250   6.560   8.244 -0.9503  0.5161 -0.3016
 7806TIP3    H147613   2.289   6.620   8.181 -1.1702  1.7887  0.7449
 7806TIP3    H247614   2.251   6.607   8.327  1.4401 -1.9366  1.2440
 7807TIP3   OH247615   3.637   7.444   9.632  0.5149  0.4667  0.1992
 7807TIP3    H147616   3.584   7.504   9.686  0.6645  0.6059  0.1929
 7807TIP3    H247617   3.652   7.368   9.688  1.0160  0.7862  0.4988
 7808TIP3   OH247618   8.407   5.747   9.347  0.0824 -0.3617  1.0833
 7808TIP3    H147619   8.418   5.771   9.255 -0.8385 -0.4121  0.9540
 7808TIP3    H247620   8.393   5.831   9.391  2.4797 -0.1160  1.5036
 7809TIP3   OH247621   2.317   4.609   8.914  0.0705 -0.0402 -0.5910
 7809TIP3    H147622   2.261   4.536   8.939  0.1576  0.3153  0.6926
 7809TIP3    H247623   2.261   4.686   8.921  0.6004  0.2791  0.3807
 7810TIP3   OH247624   6.662   3.071   9.502  0.2027 -0.5706 -0.3498
 7810TIP3    H147625   6.600   3.131   9.545  1.0841  0.1582 -0.0777
 7810TIP3    H247626   6.738   3.069   9.560 -0.1493 -2.6943  0.1350
 7811TIP3   OH247627   3.685   0.096   8.732  0.1384  0.0301 -0.2589
 7811TIP3    H147628   3.732   0.152   8.671 -0.2362 -0.2334 -0.7991
 7811TIP3    H247629   3.732   0.105   8.814 -0.2961  1.6872 -0.1381
 7812TIP3   OH247630   1.657   2.440   7.806 -0.2997  0.0688 -0.8444
 7812TIP3    H147631   1.629   2.400   7.888 -0.5973 -0.7948 -1.3527
 7812TIP3    H247632   1.690   2.526   7.831  0.4432 -0.5230  0.2923
 7813TIP3   OH247633   0.750   4.538   7.488 -0.7597  0.2229  0.1523
 7813TIP3    H147634   0.718   4.625   7.508 -2.4058 -0.4166  0.4700
 7813TIP3    H247635   0.684   4.479   7.525  0.4006 -1.1544  0.0946
 7814TIP3   OH247636   4.708   4.985   8.954  0.4153 -0.6969  0.5061
 7814TIP3    H147637   4.774   5.033   9.006  1.0844  0.9902 -1.7503
 7814TIP3    H247638   4.640   5.049   8.937 -0.1041 -1.4038 -0.1354
 7815TIP3   OH247639   2.909   2.186   9.215 -0.1290 -0.6482 -0.4035
 7815TIP3    H147640   2.925   2.110   9.271 -0.2288 -0.0001  0.5394
 7815TIP3    H247641   2.825   2.167   9.172  0.7222 -1.8632 -1.5922
 7816TIP3   OH247642   5.738   5.627   8.032  0.2020  0.1110  0.4728
 7816TIP3    H147643   5.686   5.702   8.063  1.8727  1.0771  1.0517
 7816TIP3    H247644   5.681   5.552   8.046 -0.5683  0.9591  2.3803
 7817TIP3   OH247645   3.963   4.132   8.428 -0.2234  0.1615  0.0812
 7817TIP3    H147646   4.017   4.082   8.489  0.3511  0.2973 -0.3094
 7817TIP3    H247647   4.002   4.116   8.343 -1.0634 -0.0775 -0.2669
 7818TIP3   OH247648   6.084   5.018   7.745  0.3330  0.2016  0.4189
 7818TIP3    H147649   6.076   4.923   7.740  0.5518  0.1521  0.9336
 7818TIP3    H247650   6.016   5.044   7.807 -0.1230  0.4433 -0.1789
 7819TIP3   OH247651   4.388   7.403   8.469 -0.4989 -0.3627  0.2822
 7819TIP3    H147652   4.422   7.319   8.438 -1.5126 -0.7405  0.1583
 7819TIP3    H247653   4.463   7.444   8.512  0.8510 -0.0532 -2.1487
 7820TIP3   OH247654   3.860   6.072   8.639  0.5948  0.2559 -0.5254
 7820TIP3    H147655   3.816   6.094   8.721 -1.5656 -1.2424 -1.2160
 7820TIP3    H247656   3.816   6.124   8.573  0.0158 -1.0144 -1.1794
 7821TIP3   OH247657   0.488   0.345   8.109 -0.2485  0.2429 -0.3536
 7821TIP3    H147658   0.494   0.422   8.166  1.3161  0.0719 -0.2325
 7821TIP3    H247659   0.491   0.380   8.020 -1.0544  0.3990 -0.3312
 7822TIP3   OH247660   6.077   3.252   8.456  0.0001 -0.2196 -0.0857
 7822TIP3    H147661   6.044   3.201   8.382 -1.1370  0.3434  0.0071
 7822TIP3    H247662   6.034   3.337   8.448  0.9332  0.3150  0.4482
 7823TIP3   OH247663   5.537   3.326   8.815 -0.5626  0.0660 -0.0185
 7823TIP3    H147664   5.515   3.351   8.726 -0.3850 -0.3765 -0.1886
 7823TIP3    H247665   5.534   3.408   8.865 -2.7661  0.0557  0.0022
 7824TIP3   OH247666   2.250   4.491   8.263 -0.5132 -0.3126  0.2714
 7824TIP3    H147667   2.182   4.555   8.284  0.8005  1.0024  0.6904
 7824TIP3    H247668   2.300   4.532   8.192 -0.8704 -1.8010 -0.9024
 7825TIP3   OH247669   2.583   4.773   7.417 -0.0589 -0.6123 -0.2675
 7825TIP3    H147670   2.575   4.842   7.350  0.6550  0.1914  0.4512
 7825TIP3    H247671   2.629   4.702   7.372  2.2314  0.6909 -0.1373
 7826TIP3   OH247672   2.364   7.702   8.746 -0.1001 -0.4182 -0.2258
 7826TIP3    H147673   2.407   7.780   8.710 -0.8264  0.4035  0.6382
 7826TIP3    H247674   2.390   7.702   8.838 -0.2661 -1.0944 -0.1798
 7827TIP3   OH247675   5.235   7.453   8.190 -0.6539  0.1028  0.7537
 7827TIP3    H147676   5.314   7.434   8.240 -0.6096  0.6614  0.8957
 7827TIP3    H247677   5.254   7.417   8.103  0.3015  1.4151  0.3879
 7828TIP3   OH247678   7.184   2.596   8.397 -0.1159  0.1227  0.0070
 7828TIP3    H147679   7.124   2.521   8.393  0.7432 -0.6221  0.6507
 7828TIP3    H247680   7.219   2.604   8.309  0.1414 -0.5354  0.0468
 7829TIP3   OH247681   5.607   2.209   8.816 -0.0998 -0.5882  0.4131
 7829TIP3    H147682   5.601   2.240   8.726 -1.7162  1.1668  1.0651
 7829TIP3    H247683   5.664   2.132   8.811 -1.8596 -1.8908 -2.4421
 7830TIP3   OH247684   4.571   0.244   9.544  0.0777  0.3043  0.4689
 7830TIP3    H147685   4.477   0.239   9.526 -0.0142  2.9915 -0.1756
 7830TIP3    H247686   4.611   0.191   9.475 -0.7681  3.4442 -2.7564
 7831TIP3   OH247687   7.456   3.406   8.382  0.3105  0.4445  0.0121
 7831TIP3    H147688   7.411   3.353   8.317 -0.7810 -0.7645  1.6805
 7831TIP3    H247689   7.473   3.489   8.338 -0.1090 -0.4336 -1.8884
 7832TIP3   OH247690   5.090   0.098  10.463 -0.0000 -0.1627 -0.2989
 7832TIP3    H147691   5.066   0.133  10.377  1.5013  0.9674 -0.2876
 7832TIP3    H247692   5.185   0.090  10.461 -0.0511 -1.5881  0.7453
 7833TIP3   OH247693   3.619   2.427   8.071  0.3211 -0.7198 -0.3259
 7833TIP3    H147694   3.525   2.446   8.074  0.2690 -0.9011 -0.7105
 7833TIP3    H247695   3.631   2.354   8.132 -0.1312 -2.0420 -1.7517
 7834TIP3   OH247696   5.603   7.519   9.767 -0.4712  0.1840 -0.6287
 7834TIP3    H147697   5.600   7.574   9.845 -0.1603 -1.7005  0.7907
 7834TIP3    H247698   5.585   7.578   9.694  0.1701  2.1944  0.7717
 7835TIP3   OH247699   3.600   4.631   9.867  0.0198  0.2634 -0.0368
 7835TIP3    H147700   3.582   4.718   9.832  0.2159  0.1397 -0.4547
 7835TIP3    H247701   3.521   4.580   9.849 -0.1632  0.4013  0.3667
 7836TIP3   OH247702   5.965   7.633   8.366 -0.5527  0.2223 -0.2341
 7836TIP3    H147703   6.042   7.640   8.311 -0.6354 -0.8089 -0.4958
 7836TIP3    H247704   5.954   7.721   8.403  1.3046  0.1528  0.5764
 7837TIP3   OH247705   0.559   3.983   8.955  0.4024 -0.1856 -0.9814
 7837TIP3    H147706   0.541   4.070   8.918  1.0177  0.6398  0.5409
 7837TIP3    H247707   0.559   3.998   9.050  0.7911 -1.8058 -0.7040
 7838TIP3   OH247708   2.620   4.091   9.653  0.0885 -1.1766 -0.1513
 7838TIP3    H147709   2.604   4.146   9.730 -0.3946  0.5619 -1.4441
 7838TIP3    H247710   2.668   4.147   9.592  1.0009 -2.7083 -0.9158
 7839TIP3   OH247711   7.764   1.030   9.648 -0.5748  0.2659  0.8361
 7839TIP3    H147712   7.736   0.944   9.615  0.4080  0.5590 -0.8647
 7839TIP3    H247713   7.712   1.093   9.599  0.2125  0.6874  0.5149
 7840TIP3   OH247714   7.575   2.085   8.238 -0.1471 -0.1752 -0.2431
 7840TIP3    H147715   7.545   2.026   8.168 -2.5245 -1.8621  2.0163
 7840TIP3    H247716   7.512   2.157   8.237 -0.1631 -0.1832  0.1084
 7841TIP3   OH247717   6.822   0.573   9.078  0.9919 -0.0182  0.6069
 7841TIP3    H147718   6.839   0.550   8.987 -0.5236 -0.0946  0.3094
 7841TIP3    H247719   6.826   0.669   9.079 -1.0198  0.1334 -0.0518
 7842TIP3   OH247720   2.390   7.746   9.030 -0.5685  0.1591 -0.3411
 7842TIP3    H147721   2.462   7.754   9.093 -0.7269 -1.9327  0.1802
 7842TIP3    H247722   2.352   7.834   9.026  1.5143  1.1328 -0.0457
 7843TIP3   OH247723   6.537   7.684   8.261 -0.1957  0.5683  0.1511
 7843TIP3    H147724   6.531   7.779   8.275  1.0382  0.6651  0.1627
 7843TIP3    H247725   6.502   7.671   8.173  0.3509  1.1428 -0.1563
 7844TIP3   OH247726   3.878   3.710   7.877 -0.5576  0.0566 -0.1283
 7844TIP3    H147727   3.835   3.765   7.943  0.1145 -1.4868  1.6672
 7844TIP3    H247728   3.805   3.676   7.825 -1.1481  0.8300  0.1593
 7845TIP3   OH247729   4.625   4.783   8.549  0.2104  0.4936  0.4423
 7845TIP3    H147730   4.672   4.784   8.633  1.4267  0.8582 -0.2055
 7845TIP3    H247731   4.654   4.864   8.506 -0.2627  0.2194 -0.3993
 7846TIP3   OH247732   1.133   8.154   7.606  0.1556  0.1032  0.2140
 7846TIP3    H147733   1.225   8.175   7.594  0.9270 -0.6610  3.5908
 7846TIP3    H247734   1.116   8.172   7.699 -3.0223 -0.0873 -0.1983
 7847TIP3   OH247735   4.333   2.191   8.135 -0.2119  0.6370  0.3208
 7847TIP3    H147736   4.414   2.223   8.094 -0.0343  1.4038  1.2340
 7847TIP3    H247737   4.359   2.109   8.177  0.1200  0.9029  0.6505
 7848TIP3   OH247738   8.107   1.072   9.741 -0.1497  0.3553  0.2279
 7848TIP3    H147739   8.034   1.017   9.714 -0.8653  1.0012  0.7920
 7848TIP3    H247740   8.185   1.028   9.707 -0.7427 -0.6999  0.2074
 7849TIP3   OH247741   0.075   0.154   9.967 -0.7428 -0.4787 -0.3959
 7849TIP3    H147742   0.161   0.117   9.990  0.3768  1.5764 -1.0240
 7849TIP3    H247743   0.030   0.083   9.922  0.5262 -1.6979  0.1815
 7850TIP3   OH247744   5.483   6.691   9.925  0.0388  0.0916  0.0549
 7850TIP3    H147745   5.398   6.697   9.881 -0.6577  1.2073  1.4657
 7850TIP3    H247746   5.491   6.599   9.950  0.6531 -0.6874 -2.6659
 7851TIP3   OH247747   0.114   1.754   9.092  0.0212 -0.1241 -0.0031
 7851TIP3    H147748   0.042   1.804   9.055 -0.8836 -1.6300 -0.3270
 7851TIP3    H247749   0.077   1.712   9.170  0.6447 -0.6545  0.0119
 7852TIP3   OH247750   0.468   1.647   8.618  0.3902  0.0509 -0.1334
 7852TIP3    H147751   0.453   1.560   8.656  2.1179 -0.1008  0.2737
 7852TIP3    H247752   0.380   1.684   8.608 -0.4103 -1.8571 -0.6229
 7853TIP3   OH247753   5.234   8.364   8.711 -1.0704  0.2220  0.1019
 7853TIP3    H147754   5.188   8.327   8.636  1.6373 -1.1508 -1.0134
 7853TIP3    H247755   5.187   8.331   8.788 -3.2612  0.7870 -0.9422
 7854TIP3   OH247756   4.738   3.271   9.075  0.0504  0.2736  0.4553
 7854TIP3    H147757   4.729   3.365   9.059  2.9893  0.4826 -0.6224
 7854TIP3    H247758   4.671   3.251   9.140 -2.5878  2.4939 -1.3619
 7855TIP3   OH247759   7.159   7.647   9.637  0.0766 -0.8244  0.4966
 7855TIP3    H147760   7.097   7.705   9.681 -2.1154 -0.9263 -2.1892
 7855TIP3    H247761   7.226   7.705   9.601 -2.4159  0.4030 -2.7037
 7856TIP3   OH247762   7.141   8.142   8.450  0.1423 -0.0196  0.1531
 7856TIP3    H147763   7.206   8.183   8.508  2.6046 -1.5905 -1.3066
 7856TIP3    H247764   7.179   8.150   8.362 -2.1634 -0.1286 -0.9096
 7857TIP3   OH247765   8.438   0.483   9.254 -0.6931 -0.2178 -0.1945
 7857TIP3    H147766   8.427   0.452   9.164  1.7020 -2.0174  0.0380
 7857TIP3    H247767   8.504   0.552   9.248 -1.5863  0.6832  0.0514
 7858TIP3   OH247768   6.241   7.066   9.396 -0.1713 -0.4596  0.2302
 7858TIP3    H147769   6.322   7.020   9.419  0.4687  1.0414  1.0937
 7858TIP3    H247770   6.179   7.041   9.465  0.6838  1.2252  1.6866
 7859TIP3   OH247771   5.267   5.614  10.142 -0.1069 -0.2794  0.0538
 7859TIP3    H147772   5.172   5.614  10.150 -0.2913  0.1513 -1.7697
 7859TIP3    H247773   5.286   5.552  10.072  1.0128 -0.7492  0.7413
 7860TIP3   OH247774   4.648   5.629   9.737  0.0546 -0.2055  0.0929
 7860TIP3    H147775   4.676   5.695   9.800  3.1777 -0.8267 -0.4938
 7860TIP3    H247776   4.618   5.555   9.791  1.2055 -0.1433  0.8302
 7861TIP3   OH247777   5.713   6.891   8.902  0.6224  0.7494 -0.0972
 7861TIP3    H147778   5.791   6.925   8.946  1.6967 -0.7883 -0.7029
 7861TIP3    H247779   5.706   6.943   8.822 -0.5673  2.6640  1.1690
 7862TIP3   OH247780   4.927   2.992   8.292 -0.0304 -0.2345  0.6611
 7862TIP3    H147781   4.900   3.023   8.379 -0.2761 -1.3858  1.0142
 7862TIP3    H247782   4.992   2.925   8.310  0.7328  0.2922 -0.0975
 7863TIP3   OH247783   0.726   2.500   7.968 -0.4223  0.0758  0.3111
 7863TIP3    H147784   0.760   2.497   8.058 -0.2016 -0.0331  0.2253
 7863TIP3    H247785   0.804   2.495   7.913 -0.5014  0.8658  0.1119
 7864TIP3   OH247786   3.401   3.405   7.807 -0.0200  0.1490 -0.3877
 7864TIP3    H147787   3.335   3.474   7.810  0.0470  0.1898  0.3567
 7864TIP3    H247788   3.351   3.324   7.819 -0.2546 -0.0733 -2.4089
 7865TIP3   OH247789   2.405   6.418   8.565  0.4239 -0.0654 -0.1743
 7865TIP3    H147790   2.428   6.445   8.654 -0.4341  0.2187 -0.0353
 7865TIP3    H247791   2.485   6.377   8.532  0.8600  0.1270  0.6046
 7866TIP3   OH247792   1.177   7.427   9.247  0.1888 -0.1460  0.1315
 7866TIP3    H147793   1.227   7.508   9.236 -2.0365  1.5834  2.0275
 7866TIP3    H247794   1.225   7.379   9.314  0.2886  0.6763  0.6647
 7867TIP3   OH247795   7.309   5.796   7.500 -0.2859  0.7998  0.3661
 7867TIP3    H147796   7.289   5.871   7.557  0.7418  1.2473  0.1751
 7867TIP3    H247797   7.398   5.771   7.526 -0.7127 -0.5284  0.5996
 7868TIP3   OH247798   5.785   4.018   8.830  0.1438  0.0907 -0.0333
 7868TIP3    H147799   5.864   3.967   8.847 -0.9132 -1.1162  1.5734
 7868TIP3    H247800   5.803   4.103   8.871  0.6071 -0.1728  0.3164
 7869TIP3   OH247801   0.418   7.903   9.906 -0.2247 -0.0332  0.1141
 7869TIP3    H147802   0.405   7.962   9.980 -0.7480 -0.1467  0.1176
 7869TIP3    H247803   0.333   7.860   9.895  0.0183 -0.4363 -0.1881
 7870TIP3   OH247804   7.178   2.313   7.624 -0.8312 -0.3160 -0.2592
 7870TIP3    H147805   7.247   2.268   7.575 -0.1590 -0.4979  0.8273
 7870TIP3    H247806   7.204   2.405   7.624 -1.3760 -0.1478 -1.1095
 7871TIP3   OH247807   5.447   5.338   7.689  0.1023 -0.6095  0.0425
 7871TIP3    H147808   5.428   5.281   7.615  2.2086 -0.9887 -0.2639
 7871TIP3    H247809   5.402   5.296   7.763 -2.2689 -0.0687 -0.9844
 7872TIP3   OH247810   5.055   6.949   8.345 -0.6171  0.0234  0.4495
 7872TIP3    H147811   5.065   6.862   8.385 -1.0142  0.2950  1.1358
 7872TIP3    H247812   5.131   6.999   8.376 -0.8636  0.1981  0.7712
 7873TIP3   OH247813   5.655   5.939   9.293  0.7036  0.6954 -0.0780
 7873TIP3    H147814   5.722   6.007   9.293  0.7774  0.6228 -0.1388
 7873TIP3    H247815   5.704   5.857   9.289  0.6793  0.5839  1.3607
 7874TIP3   OH247816   2.054   2.349   8.269  0.2050  0.3340 -0.0686
 7874TIP3    H147817   2.148   2.340   8.251  0.1967 -2.2361  0.8244
 7874TIP3    H247818   2.049   2.423   8.329  2.0953 -1.2821  2.2901
 7875TIP3   OH247819   2.161   5.623   7.559 -0.3133  0.5634 -0.0497
 7875TIP3    H147820   2.190   5.654   7.474 -1.8363  0.8186 -0.4929
 7875TIP3    H247821   2.196   5.687   7.621  1.5161 -0.0768 -0.3633
 7876TIP3   OH247822   8.382   6.117   9.187 -0.4508 -0.2923 -0.4116
 7876TIP3    H147823   8.338   6.198   9.161  0.6378  0.8718  1.2091
 7876TIP3    H247824   8.356   6.104   9.278  0.2226 -1.2073 -0.3385
 7877TIP3   OH247825   7.215   7.948   9.497  0.9038  0.1381  0.1118
 7877TIP3    H147826   7.216   8.033   9.541  0.0612  0.8956 -1.2470
 7877TIP3    H247827   7.257   7.964   9.412  0.8434 -0.8331 -0.1185
 7878TIP3   OH247828   5.053   5.090   8.396  0.4535  0.3638 -0.4137
 7878TIP3    H147829   5.115   5.160   8.417  1.0576 -0.3344  0.1447
 7878TIP3    H247830   4.967   5.132   8.404  0.7977  0.9665  0.2103
 7879TIP3   OH247831   6.281   7.738  10.084 -0.6952 -0.2258  0.3028
 7879TIP3    H147832   6.234   7.757  10.003 -1.4712 -0.7927  0.6040
 7879TIP3    H247833   6.366   7.706  10.056 -0.8735 -0.1887 -0.2814
 7880TIP3   OH247834   3.367   1.554   9.119  0.2486 -0.8944 -0.0920
 7880TIP3    H147835   3.301   1.524   9.056 -0.9610 -0.8075  1.0776
 7880TIP3    H247836   3.340   1.514   9.202  0.8505  0.2907  0.7027
 7881TIP3   OH247837   6.135   0.953   9.317 -0.3157  0.4629 -0.5245
 7881TIP3    H147838   6.204   0.963   9.382 -0.7042  0.0439 -0.0327
 7881TIP3    H247839   6.066   0.905   9.363  0.1022 -1.4201 -1.7397
 7882TIP3   OH247840   2.558   1.872   9.191 -0.1327  0.2769  0.3556
 7882TIP3    H147841   2.493   1.884   9.260 -0.8451  2.3509 -0.5881
 7882TIP3    H247842   2.595   1.959   9.177 -0.2836  0.0160 -2.0926
 7883TIP3   OH247843   3.998   2.589   7.817  0.5069  0.3648 -0.0456
 7883TIP3    H147844   3.902   2.595   7.810  0.4184 -1.2174 -0.6141
 7883TIP3    H247845   4.019   2.638   7.896 -0.9129 -0.1734  0.7087
 7884TIP3   OH247846   5.340   7.447   9.850  0.6221  0.3929 -0.2082
 7884TIP3    H147847   5.323   7.354   9.864 -0.9003  0.5828 -0.5779
 7884TIP3    H247848   5.433   7.457   9.866  1.0066 -1.3707 -1.0893
 7885TIP3   OH247849   3.820   4.521   8.009  0.2987  0.3141 -0.0467
 7885TIP3    H147850   3.771   4.598   7.980  0.5967  0.0446 -1.3214
 7885TIP3    H247851   3.865   4.490   7.931  2.0290  0.1770  0.9494
 7886TIP3   OH247852   6.509   5.138   9.399  0.0311 -0.0296 -0.4488
 7886TIP3    H147853   6.489   5.207   9.336 -4.0180 -1.3078 -0.8498
 7886TIP3    H247854   6.437   5.142   9.462  1.3954 -1.8756  1.3468
 7887TIP3   OH247855   3.694   1.803   8.096  0.7096  0.2535  0.5242
 7887TIP3    H147856   3.675   1.726   8.150  0.7397  0.0763  0.2812
 7887TIP3    H247857   3.615   1.857   8.105  0.3770 -0.1461  0.1050
 7888TIP3   OH247858   7.007   8.202  10.179 -0.0783  0.9025 -0.1139
 7888TIP3    H147859   6.950   8.127  10.167 -0.3782  0.9724  0.8087
 7888TIP3    H247860   7.065   8.177  10.251  1.4860  0.5867 -1.4122
 7889TIP3   OH247861   6.214   2.653   8.976 -0.0530 -0.0374 -0.4947
 7889TIP3    H147862   6.197   2.641   9.070 -1.5256 -0.3074 -0.7788
 7889TIP3    H247863   6.290   2.597   8.959 -0.6073 -1.0508  0.2671
 7890TIP3   OH247864   5.183   7.270   7.994 -0.3633  0.0754 -0.3216
 7890TIP3    H147865   5.113   7.223   8.039 -0.8565 -0.4547 -1.5901
 7890TIP3    H247866   5.152   7.278   7.903  0.5029  1.2767 -0.5371
 7891TIP3   OH247867   0.071   5.413   8.125 -0.1827  0.6787  0.1170
 7891TIP3    H147868   0.125   5.362   8.186  0.6109  0.6939 -0.5517
 7891TIP3    H247869  -0.001   5.446   8.178  1.2303  1.8644  1.3727
 7892TIP3   OH247870   3.395   7.057   9.338 -0.3570 -0.1141 -0.4583
 7892TIP3    H147871   3.422   6.980   9.288  1.4433  0.5812 -0.6382
 7892TIP3    H247872   3.445   7.052   9.419  0.2591  1.1590 -0.7262
 7893TIP3   OH247873   0.615   8.270   8.819  0.7092 -0.5699 -0.1776
 7893TIP3    H147874   0.634   8.341   8.758 -1.7571 -0.2624 -0.7041
 7893TIP3    H247875   0.608   8.192   8.763 -1.7018 -0.2643 -0.4097
 7894TIP3   OH247876   8.409   1.493   7.465 -0.8575  0.3494  0.4920
 7894TIP3    H147877   8.401   1.573   7.517 -2.8641  0.3938  0.1808
 7894TIP3    H247878   8.352   1.508   7.390 -0.0289 -0.7671 -0.3810
 7895TIP3   OH247879   2.932   6.781   8.481 -0.2416 -0.1402  0.4847
 7895TIP3    H147880   3.003   6.732   8.439 -0.8175 -0.3735 -0.2604
 7895TIP3    H247881   2.975   6.851   8.530  0.4737  0.1037 -0.4640
 7896TIP3   OH247882   6.450   6.640   9.000 -0.2076 -0.0250  0.3952
 7896TIP3    H147883   6.440   6.731   8.972 -0.3643  0.3495  1.6107
 7896TIP3    H247884   6.500   6.599   8.929  0.0948  1.0696 -0.0514
 7897TIP3   OH247885   5.960   0.008   7.832  0.7293  0.1958  0.0384
 7897TIP3    H147886   5.887  -0.023   7.886 -1.6605  1.8259 -1.9768
 7897TIP3    H247887   5.977  -0.065   7.771  1.3502 -0.4865  1.0081
 7898TIP3   OH247888   3.907   0.030   9.284  0.2133  0.2126  0.1937
 7898TIP3    H147889   3.944   0.006   9.369  0.2946  0.1534  0.1422
 7898TIP3    H247890   3.813   0.036   9.299  0.1253 -0.7307  0.0743
 7899TIP3   OH247891   1.545   3.980   9.943  0.2259  0.0337  0.2063
 7899TIP3    H147892   1.535   4.074   9.955  0.9127 -0.2314  3.9222
 7899TIP3    H247893   1.456   3.944   9.952  0.4821  0.0227  4.0901
 7900TIP3   OH247894   0.196   1.073   9.621 -0.0250 -0.3814  0.1830
 7900TIP3    H147895   0.170   0.982   9.607  2.1557 -1.2152  1.1514
 7900TIP3    H247896   0.253   1.093   9.547  1.3266 -0.5861  1.1489
 7901TIP3   OH247897   0.843   4.796   9.086 -0.5413 -0.1790 -0.0190
 7901TIP3    H147898   0.899   4.741   9.031  0.6383 -0.3925  1.3321
 7901TIP3    H247899   0.893   4.807   9.167 -1.4865  1.5093  0.3794
 7902TIP3   OH247900   7.228   5.257   9.580 -0.4069 -0.1490 -0.0534
 7902TIP3    H147901   7.245   5.330   9.640  2.3542 -1.1919  0.5960
 7902TIP3    H247902   7.291   5.270   9.509 -0.5458 -1.3572 -0.4169
 7903TIP3   OH247903   5.125   0.652   9.118  0.6966 -0.0397 -0.4239
 7903TIP3    H147904   5.112   0.694   9.033  0.1053 -0.8043 -0.7208
 7903TIP3    H247905   5.120   0.724   9.182  3.3517  0.9152 -1.1483
 7904TIP3   OH247906   0.286   5.765   7.541 -0.3113 -0.1185  0.4250
 7904TIP3    H147907   0.330   5.703   7.482 -0.0062 -0.0199  0.5484
 7904TIP3    H247908   0.323   5.850   7.518 -0.4857 -0.0255  0.4865
 7905TIP3   OH247909   7.612   5.552   9.433 -0.6349  0.0619 -0.0055
 7905TIP3    H147910   7.571   5.565   9.348 -0.0544 -0.6442 -0.4040
 7905TIP3    H247911   7.601   5.459   9.451  0.5534 -0.0963 -0.0097
 7906TIP3   OH247912   8.179   6.299   9.106  0.3173 -0.5371 -0.2420
 7906TIP3    H147913   8.092   6.320   9.073  0.8836  1.4284 -0.5876
 7906TIP3    H247914   8.215   6.382   9.137  1.3873 -1.6026  1.6158
 7907TIP3   OH247915   0.321   0.693  14.374 -0.7153  0.7988 -0.5389
 7907TIP3    H147916   0.376   0.764  14.339  0.3120 -0.0810 -0.7543
 7907TIP3    H247917   0.258   0.676  14.304  0.3664  0.0959 -1.3915
 7908TIP3   OH247918   0.029   0.277   8.315  0.2982 -0.4157 -0.4975
 7908TIP3    H147919  -0.027   0.355   8.312  0.8418 -0.0303 -1.0682
 7908TIP3    H247920   0.069   0.279   8.402 -2.0237 -1.7714  0.6904
 7909TIP3   OH247921   7.995   7.302   9.723 -0.0376 -0.0251  0.0250
 7909TIP3    H147922   8.086   7.282   9.700 -0.0783 -1.8081  1.1752
 7909TIP3    H247923   7.998   7.320   9.817 -0.9203 -0.5497  0.1673
 7910TIP3   OH247924   2.871   6.903   8.816 -0.2952  0.3638 -0.7101
 7910TIP3    H147925   2.960   6.871   8.827  0.2292  1.9368 -0.0650
 7910TIP3    H247926   2.844   6.931   8.904 -1.1439  0.5945 -1.0289
 7911TIP3   OH247927   1.154   1.541   9.837  0.2029  0.1038  0.1025
 7911TIP3    H147928   1.232   1.486   9.830  2.2340  2.7696  0.1275
 7911TIP3    H247929   1.158   1.578   9.925 -0.6105  0.9291 -0.1776
 7912TIP3   OH247930   4.985   2.512   7.920  0.1984  0.4053 -0.1489
 7912TIP3    H147931   5.080   2.526   7.919  0.6202 -2.0226 -1.7264
 7912TIP3    H247932   4.973   2.432   7.970 -1.0924  0.8653  0.3211
 7913TIP3   OH247933   1.909   2.532   8.838 -0.0263 -0.1035 -0.6355
 7913TIP3    H147934   1.960   2.462   8.798  1.2116 -0.0780  0.8126
 7913TIP3    H247935   1.842   2.486   8.889 -0.8279 -0.1526 -1.6915
 7914TIP3   OH247936   1.634   4.800   8.965  0.4452  0.1821 -0.2372
 7914TIP3    H147937   1.650   4.785   8.871  1.0055  0.0323 -0.1176
 7914TIP3    H247938   1.538   4.800   8.972  0.3772  0.9142 -0.9246
 7915TIP3   OH247939   7.835   1.493   8.728  0.0614 -0.0503  0.2698
 7915TIP3    H147940   7.850   1.406   8.692  0.7788  0.9308 -2.0473
 7915TIP3    H247941   7.793   1.541   8.656  0.0524  1.6138  1.3407
 7916TIP3   OH247942   7.283   4.959   8.240  0.2349 -0.0600  0.3180
 7916TIP3    H147943   7.286   4.957   8.336  0.2291  1.2834  0.3615
 7916TIP3    H247944   7.214   5.022   8.219  1.2106  0.7679 -0.5469
 7917TIP3   OH247945   7.667   1.691   8.025 -0.7126  0.3364  0.7539
 7917TIP3    H147946   7.610   1.617   8.003 -1.2769  0.8323  0.5434
 7917TIP3    H247947   7.755   1.658   8.008 -0.8098 -0.8758  2.2959
 7918TIP3   OH247948   2.064   5.932   9.472  0.2493  0.2177  0.0925
 7918TIP3    H147949   2.123   5.892   9.408  0.1934 -1.0994  0.8293
 7918TIP3    H247950   1.981   5.939   9.426  0.2127 -0.7040  0.0004
 7919TIP3   OH247951   4.491   8.091   9.306 -0.0025 -0.3636 -0.4976
 7919TIP3    H147952   4.557   8.152   9.339 -0.9618  0.4943 -0.1415
 7919TIP3    H247953   4.442   8.064   9.384  0.4277 -1.6448 -0.6374
 7920TIP3   OH247954   2.310   1.633   8.163  0.3440  0.7344 -0.5122
 7920TIP3    H147955   2.381   1.637   8.227  0.5635 -0.5152 -0.6569
 7920TIP3    H247956   2.233   1.607   8.213 -0.0777  2.2194 -0.3308
 7921TIP3   OH247957   3.065   0.300   8.244 -0.2103 -0.7723  0.1493
 7921TIP3    H147958   3.069   0.395   8.259 -3.2417 -0.8198  2.0747
 7921TIP3    H247959   3.131   0.264   8.303  0.0169  0.0775  0.4404
 7922TIP3   OH247960   0.793   0.505   7.826 -0.3029  0.1575 -0.3113
 7922TIP3    H147961   0.842   0.424   7.842 -1.0348 -0.4428 -0.9952
 7922TIP3    H247962   0.830   0.539   7.744 -1.4827 -0.6938 -1.2373
 7923TIP3   OH247963   5.560   7.512   8.087  0.0333  0.1479 -0.8052
 7923TIP3    H147964   5.539   7.439   8.145 -1.2138  0.5433 -0.7378
 7923TIP3    H247965   5.650   7.536   8.111 -0.3913  0.1937  0.8295
 7924TIP3   OH247966   7.477   7.426   8.803 -0.4768 -0.0676  0.3314
 7924TIP3    H147967   7.493   7.484   8.729  0.4420 -1.8801 -0.9647
 7924TIP3    H247968   7.418   7.476   8.860 -0.3452  1.8005 -1.0694
 7925TIP3   OH247969   7.665   8.012   9.680 -0.2774  0.3578  0.7839
 7925TIP3    H147970   7.615   7.933   9.704  1.1196 -0.9075 -0.2662
 7925TIP3    H247971   7.699   7.993   9.592 -0.8675  2.6408 -0.0190
 7926TIP3   OH247972   0.416   7.208   8.448 -0.4664 -0.2156 -0.0982
 7926TIP3    H147973   0.394   7.154   8.373 -1.5818  0.2756 -0.1422
 7926TIP3    H247974   0.347   7.190   8.512 -0.5436  0.7385  0.0974
 7927TIP3   OH247975   4.509   5.969   9.525 -0.0868 -0.3814  0.6445
 7927TIP3    H147976   4.485   5.888   9.571 -0.2067 -0.1861  0.9315
 7927TIP3    H247977   4.492   6.038   9.589  1.5644 -0.2535  0.9834
 7928TIP3   OH247978   8.197   0.410   8.668 -0.5371  0.0636  0.8311
 7928TIP3    H147979   8.243   0.493   8.673  1.2825 -0.9280  1.3766
 7928TIP3    H247980   8.233   0.358   8.740  0.2791 -2.0682 -1.0000
 7929TIP3   OH247981   2.728   7.214   8.320 -0.0377 -0.3614 -0.2178
 7929TIP3    H147982   2.776   7.161   8.384  0.8664 -0.7608 -1.2103
 7929TIP3    H247983   2.659   7.155   8.289 -0.9352  0.0667  0.8781
 7930TIP3   OH247984   5.115   0.441   8.884 -0.4383 -0.3572 -0.2444
 7930TIP3    H147985   5.135   0.446   8.978  0.9034  0.6266 -0.5621
 7930TIP3    H247986   5.150   0.356   8.856 -0.7437 -0.6035  0.1047
 7931TIP3   OH247987   3.462   1.142   7.871  0.0644 -0.0945  1.1731
 7931TIP3    H147988   3.481   1.053   7.841 -1.2907 -0.1198  0.2884
 7931TIP3    H247989   3.545   1.189   7.862  0.1789 -0.6111 -0.8378
 7932TIP3   OH247990   5.817   3.270   9.315 -0.0842  0.1158 -0.0431
 7932TIP3    H147991   5.806   3.363   9.335  3.4073  1.3612 -2.7537
 7932TIP3    H247992   5.787   3.262   9.224  2.8519 -0.4464 -1.0652
 7933TIP3   OH247993   4.530   3.232  10.031 -0.5267 -0.5917  0.7358
 7933TIP3    H147994   4.447   3.193  10.003  0.4422 -1.3071 -1.3459
 7933TIP3    H247995   4.597   3.186   9.981  1.0039  1.1874  1.0067
 7934TIP3   OH247996   5.939   5.388   8.759  0.3222  0.5035 -0.3487
 7934TIP3    H147997   5.968   5.371   8.669 -2.5631 -4.0158 -0.7738
 7934TIP3    H247998   6.017   5.373   8.812  1.6148  1.2114 -1.9751
 7935TIP3   OH247999   1.627   5.025   8.391 -1.0609 -0.3542 -0.0607
 7935TIP3    H148000   1.570   5.070   8.328 -1.1304 -0.2908  0.0475
 7935TIP3    H248001   1.655   4.946   8.345  0.2546  0.5106 -0.8345
 7936TIP3   OH248002   3.291   2.309   9.277  0.0421 -0.6271  0.6232
 7936TIP3    H148003   3.337   2.392   9.291 -0.1646 -0.6689  1.6028
 7936TIP3    H248004   3.355   2.242   9.300 -0.1667 -0.7082  0.9744
 7937TIP3   OH248005   1.886   5.062   9.223  0.3053 -0.0783 -0.2149
 7937TIP3    H148006   1.932   4.981   9.245  0.7643  0.4486  0.8442
 7937TIP3    H248007   1.953   5.130   9.229 -0.4578  0.6201  0.7377
 7938TIP3   OH248008   5.104   6.395   9.884  0.0275 -0.1859 -0.1759
 7938TIP3    H148009   5.034   6.417   9.944  0.2923 -0.9038  0.4174
 7938TIP3    H248010   5.184   6.424   9.928  0.0682  1.3938 -1.2136
 7939TIP3   OH248011   6.231   5.028   9.491  0.8101 -0.5886  0.3645
 7939TIP3    H148012   6.194   5.099   9.438 -0.1570  0.3128  2.1696
 7939TIP3    H248013   6.197   4.948   9.451 -1.4932  0.1342  0.7099
 7940TIP3   OH248014   0.168   1.824   8.677  0.0449 -0.6553 -0.1972
 7940TIP3    H148015   0.111   1.901   8.672 -0.2154 -0.8916 -1.1739
 7940TIP3    H248016   0.202   1.814   8.588 -0.2441 -1.8969 -0.1924
 7941TIP3   OH248017   3.955   1.031   8.888 -0.5588  0.1886  0.2809
 7941TIP3    H148018   3.879   1.082   8.916 -1.0967  0.2368 -1.2153
 7941TIP3    H248019   4.012   1.093   8.844 -0.2107 -0.0884  0.3332
 7942TIP3   OH248020   3.691   4.949   8.337  0.5863  0.1979  0.3782
 7942TIP3    H148021   3.634   4.883   8.374  1.1620  0.4606  1.8139
 7942TIP3    H248022   3.632   5.018   8.306  0.0459  1.6964  4.1684
 7943TIP3   OH248023   2.693   4.348   8.940 -0.7424  0.3076  0.6803
 7943TIP3    H148024   2.688   4.413   8.869  1.1383  1.4128  1.4792
 7943TIP3    H248025   2.786   4.327   8.946 -1.2232 -1.8964  0.9977
 7944TIP3   OH248026   0.888   6.418   9.591  0.2254 -0.5482  0.1551
 7944TIP3    H148027   0.954   6.481   9.561 -1.5267  0.1070 -2.6607
 7944TIP3    H248028   0.838   6.465   9.657  0.7042 -0.0186  0.1491
 7945TIP3   OH248029   5.617   5.322   8.187 -0.3361 -0.2732  0.0141
 7945TIP3    H148030   5.555   5.291   8.253  1.5178  0.3374  2.1415
 7945TIP3    H248031   5.674   5.383   8.233  0.9239  0.3685 -2.2258
 7946TIP3   OH248032   0.629   8.256   8.428 -0.0208 -0.3474 -0.6468
 7946TIP3    H148033   0.564   8.211   8.483 -1.2500 -0.9363 -2.5054
 7946TIP3    H248034   0.645   8.338   8.475 -2.5363  0.0676 -0.3288
 7947TIP3   OH248035   8.317   7.742   8.158 -0.0138  0.2563  0.0352
 7947TIP3    H148036   8.410   7.718   8.159 -0.1173 -0.2213 -0.8694
 7947TIP3    H248037   8.301   7.770   8.068 -0.4084  1.7320  0.5440
 7948TIP3   OH248038   1.731   3.544   7.333  0.3142 -0.0019  0.5656
 7948TIP3    H148039   1.790   3.510   7.266  0.3619 -0.7505  0.9783
 7948TIP3    H248040   1.682   3.467   7.363 -1.4205  0.7084 -0.3029
 7949TIP3   OH248041   1.149   3.461   8.129  0.1968  0.0422 -0.2635
 7949TIP3    H148042   1.190   3.526   8.071  0.2874  1.8031  1.6594
 7949TIP3    H248043   1.220   3.402   8.153  1.1340  1.6208  1.0861
 7950TIP3   OH248044   2.105   6.182   9.566 -0.7568  0.8719  0.5739
 7950TIP3    H148045   2.024   6.218   9.531 -0.8240 -0.2368 -0.4837
 7950TIP3    H248046   2.097   6.087   9.554  1.2048  0.8103 -0.7689
 7951TIP3   OH248047   7.626   4.530   8.319  0.2703 -0.0413 -0.2962
 7951TIP3    H148048   7.705   4.576   8.287  0.0167  0.7628  0.2066
 7951TIP3    H248049   7.563   4.539   8.247 -0.1397  1.3617  0.1951
 7952TIP3   OH248050   2.012   1.951   9.839 -0.1226  0.4879  0.3151
 7952TIP3    H148051   1.961   1.875   9.811 -0.1324  1.3302 -2.2707
 7952TIP3    H248052   1.957   2.026   9.817  1.1454  1.3317 -0.1271
 7953TIP3   OH248053   5.853   1.373   9.030  0.6522  0.2971 -0.5724
 7953TIP3    H148054   5.787   1.372   9.099  1.3539  1.4305  0.1514
 7953TIP3    H248055   5.931   1.336   9.071  0.8410  0.1692 -1.0343
 7954TIP3   OH248056   7.438   0.182   9.552 -0.4289 -0.0520 -0.6501
 7954TIP3    H148057   7.481   0.119   9.494 -0.9746 -0.0080 -1.1115
 7954TIP3    H248058   7.347   0.154   9.554 -0.0643 -1.4253  1.9601
 7955TIP3   OH248059   7.366   4.941   8.550 -0.0430  0.2207 -0.4757
 7955TIP3    H148060   7.418   4.906   8.478 -0.6728  1.1789 -1.4335
 7955TIP3    H248061   7.424   5.002   8.595  0.0708  0.3019 -0.7339
 7956TIP3   OH248062   0.088   5.787   7.873 -0.1496  0.2967  0.0500
 7956TIP3    H148063   0.123   5.737   7.800  0.8479  0.5983  0.3123
 7956TIP3    H248064   0.137   5.758   7.949 -0.4976  0.6934  0.4357
 7957TIP3   OH248065   8.279   7.533   9.595 -0.2514  0.1906 -0.1833
 7957TIP3    H148066   8.323   7.595   9.538 -0.4183  3.2783  2.7114
 7957TIP3    H248067   8.255   7.584   9.672 -1.3616 -3.2886  2.0331
 7958TIP3   OH248068   1.861   0.476   8.987 -0.2994 -0.0050  0.2734
 7958TIP3    H148069   1.939   0.509   9.031 -0.4589 -0.4089  0.8697
 7958TIP3    H248070   1.797   0.546   8.995  0.0236  0.3662 -0.2999
 7959TIP3   OH248071   2.364   2.861   8.968 -0.1635 -0.8874  0.6861
 7959TIP3    H148072   2.293   2.823   8.917  0.3890 -1.4087  0.3003
 7959TIP3    H248073   2.418   2.907   8.904 -1.4040  1.5448  1.2594
 7960TIP3   OH248074   5.865   1.501   8.319  0.2319 -0.2194  0.2581
 7960TIP3    H148075   5.821   1.537   8.396  0.2013  2.2201 -0.8205
 7960TIP3    H248076   5.934   1.564   8.298  1.0199 -1.4364 -1.0216
 7961TIP3   OH248077   6.364   3.005  10.183 -0.6968 -0.1491  0.0446
 7961TIP3    H148078   6.391   3.084  10.230 -0.7504 -0.3240  0.3793
 7961TIP3    H248079   6.440   2.981  10.130 -0.2669 -0.5008  0.7960
 7962TIP3   OH248080   7.206   0.555   8.016 -0.2512 -0.5557 -0.5732
 7962TIP3    H148081   7.180   0.549   7.925  1.0391 -0.2002 -0.9951
 7962TIP3    H248082   7.298   0.528   8.016  0.3935  1.4770  0.2719
 7963TIP3   OH248083   5.929   3.418   9.778 -0.0851 -0.4847 -0.3729
 7963TIP3    H148084   5.853   3.398   9.723  0.3567  0.2695 -1.2662
 7963TIP3    H248085   5.924   3.354   9.849 -1.9786  0.0160 -0.0042
 7964TIP3   OH248086   4.995   3.592   8.892  0.5666  0.0213  0.2131
 7964TIP3    H148087   5.022   3.631   8.975  0.8646  0.8134 -0.2441
 7964TIP3    H248088   5.075   3.553   8.856  0.0715 -1.9710  1.1464
 7965TIP3   OH248089   7.974   5.809   8.471 -0.4057  0.4891  0.0315
 7965TIP3    H148090   7.901   5.765   8.429  0.3740 -0.9893  0.1568
 7965TIP3    H248091   7.940   5.838   8.556 -0.9400  0.1381 -0.0631
 7966TIP3   OH248092   0.812   0.719   8.857 -0.8043 -0.1055 -0.1773
 7966TIP3    H148093   0.748   0.784   8.829 -1.0244  0.5571  1.7448
 7966TIP3    H248094   0.887   0.733   8.799 -1.0689  1.4911 -0.1844
 7967TIP3   OH248095   2.415   3.350   8.358 -0.0784  0.4542  0.6064
 7967TIP3    H148096   2.344   3.354   8.293  1.1400 -0.1456 -0.8145
 7967TIP3    H248097   2.450   3.439   8.360  1.3461 -0.0035 -1.3212
 7968TIP3   OH248098   4.194   4.144   9.257  0.2620 -0.5343 -1.1083
 7968TIP3    H148099   4.255   4.171   9.326 -0.8865 -0.7239  0.0209
 7968TIP3    H248100   4.244   4.083   9.203  1.8553  1.2199 -1.7276
 7969TIP3   OH248101   6.865   6.980   9.208  0.2914  0.2433  0.1190
 7969TIP3    H148102   6.838   7.071   9.222 -1.2225 -0.3790  1.6556
 7969TIP3    H248103   6.802   6.946   9.143  3.1455  1.2227 -3.5000
 7970TIP3   OH248104   6.527   7.983   8.800 -0.2465 -0.0496  0.0375
 7970TIP3    H148105   6.494   7.995   8.889 -0.6038 -1.6537  0.1477
 7970TIP3    H248106   6.534   8.072   8.765 -1.2600  0.5378  1.2419
 7971TIP3   OH248107   3.823   1.342   9.549  0.0456 -0.0231 -0.1968
 7971TIP3    H148108   3.768   1.266   9.531  0.6645 -0.0215 -2.5222
 7971TIP3    H248109   3.765   1.405   9.592 -0.6179 -1.5758  1.2352
 7972TIP3   OH248110   4.475   8.362   8.139  0.8388 -0.2250  0.0952
 7972TIP3    H148111   4.520   8.372   8.055  2.2104  1.5687  0.9891
 7972TIP3    H248112   4.386   8.337   8.114  0.4093  2.8297 -2.1089
 7973TIP3   OH248113   4.029   1.880   7.785 -0.0460 -0.4425  0.3093
 7973TIP3    H148114   4.093   1.937   7.741 -1.1326  1.9194  1.6070
 7973TIP3    H248115   4.080   1.834   7.852  0.8963 -1.2463 -0.9084
 7974TIP3   OH248116   5.953   3.093   8.253 -0.1365  0.2416 -0.7814
 7974TIP3    H148117   5.859   3.103   8.239  0.2603  2.2721 -2.4729
 7974TIP3    H248118   5.988   3.073   8.167  0.9385 -1.2863 -0.0301
 7975TIP3   OH248119   0.490   1.974   9.242  0.3345 -0.4270  0.3769
 7975TIP3    H148120   0.498   2.025   9.161  0.6824  0.6305  1.0484
 7975TIP3    H248121   0.519   2.034   9.310  3.0787 -2.2718  0.9897
 7976TIP3   OH248122   2.010   5.581   8.430  0.9080  0.3485  0.6682
 7976TIP3    H148123   2.003   5.573   8.335 -1.4623  1.0339  0.7159
 7976TIP3    H248124   1.989   5.494   8.463  1.3704  0.2015  0.5797
 7977TIP3   OH248125   3.153   1.945   9.183 -0.5567 -0.1820 -0.1539
 7977TIP3    H148126   3.243   1.922   9.158 -0.3908 -0.6429  0.8224
 7977TIP3    H248127   3.126   1.876   9.243 -1.8612 -0.4664 -1.0310
 7978TIP3   OH248128   8.090   1.301   9.854 -0.2339  0.3274  0.2629
 7978TIP3    H148129   8.102   1.222   9.800 -0.2304 -2.6939  4.1806
 7978TIP3    H248130   7.996   1.302   9.872 -0.0486  0.4299  1.2534
 7979TIP3   OH248131   7.346   4.565   9.083 -0.5469  0.6093  0.3237
 7979TIP3    H148132   7.319   4.653   9.111 -0.8191  1.3542 -1.9947
 7979TIP3    H248133   7.437   4.575   9.055 -1.2103  0.7246 -1.9577
 7980TIP3   OH248134   2.463   3.421   7.823 -0.1320  0.2030 -0.3749
 7980TIP3    H148135   2.497   3.484   7.886 -1.1810  1.6004 -1.1625
 7980TIP3    H248136   2.499   3.449   7.739 -1.4088  0.3756 -0.8851
 7981TIP3   OH248137   3.387   8.384   8.360 -0.3202 -0.3395  0.0649
 7981TIP3    H148138   3.346   8.328   8.294 -0.3416 -1.0703  0.6880
 7981TIP3    H248139   3.409   8.325   8.432  0.3550  0.3252  0.4209
 7982TIP3   OH248140   6.425   1.621   9.009 -0.0461 -0.4471 -0.5669
 7982TIP3    H148141   6.465   1.663   8.933 -1.1551 -0.3473 -1.1095
 7982TIP3    H248142   6.443   1.681   9.082  3.0541 -1.6155 -0.1861
 7983TIP3   OH248143   1.002   5.261   9.592  0.3627  0.8235 -0.4077
 7983TIP3    H148144   1.049   5.178   9.590 -2.6683 -1.0993 -0.1000
 7983TIP3    H248145   1.061   5.321   9.637  1.4745 -2.0992  2.4652
 7984TIP3   OH248146   7.079   7.721   8.026  0.2006  0.6705  0.5417
 7984TIP3    H148147   7.011   7.768   8.073 -0.6877  0.5084 -0.5318
 7984TIP3    H248148   7.051   7.723   7.934 -0.2727 -2.5305  0.4846
 7985TIP3   OH248149   2.288   0.733   9.812 -0.1897 -0.1281  0.5082
 7985TIP3    H148150   2.373   0.692   9.825 -0.1744  0.1143  1.2489
 7985TIP3    H248151   2.308   0.821   9.781 -0.2093 -0.4730 -0.5214
 7986TIP3   OH248152   4.923   7.295   9.555  0.2311  0.0322  0.0129
 7986TIP3    H148153   5.014   7.272   9.574 -0.1641 -2.3464 -0.7131
 7986TIP3    H248154   4.896   7.233   9.487 -2.4335 -0.4583  1.3845
 7987TIP3   OH248155   3.841   4.356   8.486  0.6091  0.6745 -0.0597
 7987TIP3    H148156   3.871   4.266   8.474  0.3206  0.4863  0.5744
 7987TIP3    H248157   3.877   4.404   8.411 -1.1677 -0.4319 -1.7090
 7988TIP3   OH248158   7.863   2.292   9.617 -0.1062 -0.4910  0.2638
 7988TIP3    H148159   7.817   2.376   9.616 -0.1916 -0.5308 -1.2987
 7988TIP3    H248160   7.812   2.236   9.559  0.4274 -1.3756  0.6237
 7989TIP3   OH248161   0.904   1.208   8.051 -0.2230 -0.0090  0.1448
 7989TIP3    H148162   0.834   1.220   8.115  0.8896 -0.8780  1.5887
 7989TIP3    H248163   0.860   1.213   7.966 -1.6950  1.4791  0.9427
 7990TIP3   OH248164   5.510   7.350   9.418 -0.2293  0.3602 -0.0814
 7990TIP3    H148165   5.421   7.354   9.383 -0.5637  0.4111  0.7512
 7990TIP3    H248166   5.555   7.289   9.361 -0.7786  0.3841 -0.5560
 7991TIP3   OH248167   3.944   0.804   8.664  0.2306  0.0246 -0.0042
 7991TIP3    H148168   3.902   0.882   8.699  0.8857  1.1222 -1.5484
 7991TIP3    H248169   3.925   0.806   8.570  1.0677 -1.1549 -0.2277
 7992TIP3   OH248170   4.940   0.841   8.197  0.0920 -0.3526 -0.1434
 7992TIP3    H148171   5.027   0.804   8.214  0.3516 -0.4193 -1.5270
 7992TIP3    H248172   4.945   0.930   8.230  0.3315 -0.6926  0.7696
 7993TIP3   OH248173   0.071   1.395   9.257 -0.2067 -0.6273  0.1066
 7993TIP3    H148174   0.126   1.438   9.192 -0.5338 -0.5819 -0.1451
 7993TIP3    H248175   0.127   1.385   9.334 -0.7465  2.4472  1.0461
 7994TIP3   OH248176   6.839   2.907   9.627 -0.2823  0.2674  0.1057
 7994TIP3    H148177   6.756   2.878   9.664 -0.2254  1.2394  1.0183
 7994TIP3    H248178   6.906   2.856   9.674 -0.3199 -0.0790 -0.2092
 7995TIP3   OH248179   7.975   0.540   9.428  0.4794  0.4594 -0.4298
 7995TIP3    H148180   8.028   0.508   9.355  0.4556 -0.5749 -0.0209
 7995TIP3    H248181   8.038   0.563   9.496  0.4705  0.6781 -0.4963
 7996TIP3   OH248182   0.271   4.387   8.688  0.1236  0.2868  0.4376
 7996TIP3    H148183   0.282   4.451   8.619 -0.1983 -0.1460 -0.0267
 7996TIP3    H248184   0.307   4.428   8.766 -1.4299  1.6330  0.4947
 7997TIP3   OH248185   3.343   3.372   9.575 -0.1283 -0.2983 -0.0400
 7997TIP3    H148186   3.392   3.315   9.633 -0.7133 -0.7190  0.0571
 7997TIP3    H248187   3.288   3.424   9.633  1.3055  1.2926 -0.0325
 7998TIP3   OH248188   1.217   4.500   9.663 -0.6557  0.3017 -0.4471
 7998TIP3    H148189   1.173   4.545   9.591 -2.1893  1.9973  1.4310
 7998TIP3    H248190   1.295   4.553   9.681 -0.4422  0.0564 -0.6373
 7999TIP3   OH248191   3.046   1.758   8.738  0.6191 -0.3594  0.4099
 7999TIP3    H148192   2.974   1.731   8.795  1.8925 -0.4677  2.0435
 7999TIP3    H248193   3.029   1.714   8.655 -1.7218  0.4343  0.4012
 8000TIP3   OH248194   6.421   5.819   8.903 -0.4466 -0.0310 -0.3970
 8000TIP3    H148195   6.333   5.782   8.896 -0.4006 -0.1147 -0.5362
 8000TIP3    H248196   6.476   5.762   8.849  0.0648 -1.0977  1.1771
 8001TIP3   OH248197   3.584   3.716   8.735  0.1807  0.3517  0.0659
 8001TIP3    H148198   3.540   3.774   8.796  2.2552  0.9044  1.1232
 8001TIP3    H248199   3.662   3.685   8.782  0.9841 -0.5047 -1.7088
 8002TIP3   OH248200   7.048   1.677   9.450  0.4700  0.1265 -0.3522
 8002TIP3    H148201   7.052   1.735   9.374  2.5691  0.2422 -0.2192
 8002TIP3    H248202   7.008   1.729   9.519  0.8689  0.8993 -0.6878
 8003TIP3   OH248203   3.575   3.843   8.432  0.3966 -0.1770 -0.3703
 8003TIP3    H148204   3.524   3.856   8.512  0.2821  1.7230 -0.6903
 8003TIP3    H248205   3.587   3.932   8.397  0.9600 -0.9040 -2.1374
 8004TIP3   OH248206   3.310   0.377   9.472 -0.4076  0.1671 -0.0818
 8004TIP3    H148207   3.276   0.368   9.561  1.3188 -0.5109  0.5456
 8004TIP3    H248208   3.341   0.468   9.467 -3.0147  1.1003 -0.9753
 8005TIP3   OH248209   8.142   5.142   7.974  0.1725 -0.1567 -0.3093
 8005TIP3    H148210   8.164   5.053   7.946 -1.1006 -0.3896 -0.6323
 8005TIP3    H248211   8.227   5.186   7.982  0.8675 -1.6056  0.6100
 8006TIP3   OH248212   7.576   8.166   9.448 -0.4531 -0.2682  0.4231
 8006TIP3    H148213   7.644   8.113   9.406  0.6846 -0.4453  2.3271
 8006TIP3    H248214   7.495   8.139   9.406  0.3869 -1.7919 -0.3141
 8007TIP3   OH248215   4.446   2.674   8.297 -0.0167  0.0840 -0.1625
 8007TIP3    H148216   4.425   2.631   8.214  0.1646  1.4132 -0.9267
 8007TIP3    H248217   4.535   2.647   8.316 -0.2636 -0.6901 -0.0980
 8008TIP3   OH248218   8.266   6.744   8.849  0.3078 -0.0122 -0.1394
 8008TIP3    H148219   8.330   6.674   8.865  1.8533  1.4454  0.3760
 8008TIP3    H248220   8.252   6.784   8.934 -1.2838 -0.2430 -0.2619
 8009TIP3   OH248221   7.265   1.324   8.668  0.0371 -0.1349 -0.0933
 8009TIP3    H148222   7.270   1.253   8.603  0.9989  0.1872 -0.3855
 8009TIP3    H248223   7.341   1.379   8.649  0.0912  0.2028  1.0340
 8010TIP3   OH248224   3.110   3.008   8.759 -0.2712  0.3973 -0.1735
 8010TIP3    H148225   3.136   2.999   8.667 -0.3112 -2.6257  0.0162
 8010TIP3    H248226   3.189   3.041   8.802  0.5015 -0.3738 -0.9437
 8011TIP3   OH248227   7.265   8.205   8.199  0.1796 -0.5431 -0.1343
 8011TIP3    H148228   7.183   8.201   8.150 -0.1203  0.4628  0.2723
 8011TIP3    H248229   7.288   8.114   8.215 -0.4298 -0.8535 -0.9558
 8012TIP3   OH248230   7.780   6.409   9.786  0.1453  0.2236 -0.5763
 8012TIP3    H148231   7.840   6.338   9.807  1.9455  1.5705 -0.8836
 8012TIP3    H248232   7.835   6.488   9.789 -1.7377  1.5902 -0.3561
 8013TIP3   OH248233   2.165   0.496   8.143  0.1957 -0.1086 -0.0254
 8013TIP3    H148234   2.082   0.457   8.119 -0.1825 -0.2232  1.4152
 8013TIP3    H248235   2.174   0.571   8.084 -0.6071 -0.4716 -0.6245
 8014TIP3   OH248236   1.736   3.182   9.449  0.2660  0.4841 -0.2103
 8014TIP3    H148237   1.712   3.262   9.497  0.7332 -0.7665  2.3010
 8014TIP3    H248238   1.714   3.111   9.509 -0.1902 -1.3179 -2.3940
 8015TIP3   OH248239   2.156   1.482   9.507 -0.0325  0.1080 -0.2754
 8015TIP3    H148240   2.235   1.510   9.552  0.3712  1.1883 -1.6204
 8015TIP3    H248241   2.093   1.553   9.521  0.1485  0.5310 -1.5223
 8016TIP3   OH248242   6.736   4.252   8.338 -0.0533 -0.3486 -0.9350
 8016TIP3    H148243   6.684   4.255   8.419  0.5383  0.7182 -0.5698
 8016TIP3    H248244   6.707   4.172   8.294 -0.7996 -0.6504  0.0559
 8017TIP3   OH248245   0.734   7.391   9.456  0.7236  0.3119 -0.0013
 8017TIP3    H148246   0.750   7.370   9.548 -0.3561  1.3968  0.4731
 8017TIP3    H248247   0.641   7.370   9.443  0.5856  1.2205 -0.5278
 8018TIP3   OH248248   1.480   7.936   9.259  0.6583  0.5058  0.0424
 8018TIP3    H148249   1.474   7.864   9.196 -0.8255  1.5019 -1.0099
 8018TIP3    H248250   1.572   7.937   9.286  0.7752 -1.6045 -0.1054
 8019TIP3   OH248251   0.936   4.206   9.651  0.0258  0.1057  0.4916
 8019TIP3    H148252   0.969   4.214   9.741  1.4570  0.6562 -0.0458
 8019TIP3    H248253   0.934   4.296   9.618  0.0071 -0.1339 -0.1858
 8020TIP3   OH248254   4.928   4.145   8.164  0.0260 -0.0131  0.4062
 8020TIP3    H148255   4.908   4.149   8.258 -0.7195  0.6128  0.2273
 8020TIP3    H248256   4.903   4.056   8.138 -0.0697 -0.0841  0.7349
 8021TIP3   OH248257   7.150   2.429   8.149 -0.1482  0.5736  0.4365
 8021TIP3    H148258   7.187   2.445   8.062  1.7513  1.1219  1.2966
 8021TIP3    H248259   7.063   2.394   8.131  0.8942 -1.1871 -1.7472
 8022TIP3   OH248260   0.527   7.660   9.411 -0.0815 -0.4014 -0.1735
 8022TIP3    H148261   0.531   7.577   9.363  0.0902 -0.4025 -0.1548
 8022TIP3    H248262   0.498   7.723   9.345  0.9563 -0.2401 -0.4884
 8023TIP3   OH248263   5.971   2.788   8.929  0.1528  0.0380 -0.0127
 8023TIP3    H148264   5.950   2.709   8.978 -0.8398  1.3801  1.8747
 8023TIP3    H248265   6.064   2.780   8.908  0.1821 -1.3868  0.5926
 8024TIP3   OH248266   2.547   5.573   9.882 -0.4014  0.0536 -0.1018
 8024TIP3    H148267   2.459   5.535   9.890 -0.6952  0.1803 -2.1641
 8024TIP3    H248268   2.533   5.656   9.836  0.5868  1.2202  1.5585
 8025TIP3   OH248269   6.839   4.088   7.967 -0.5244  0.0683  0.1116
 8025TIP3    H148270   6.906   4.157   7.971  0.3684 -0.7541 -0.2507
 8025TIP3    H248271   6.797   4.100   7.882 -0.6447  0.4070  0.2164
 8026TIP3   OH248272   8.275   1.516   9.813  0.1710 -0.1737  0.3383
 8026TIP3    H148273   8.230   1.593   9.847  0.5717 -0.4351  1.5257
 8026TIP3    H248274   8.205   1.451   9.800 -0.0389  0.0590  0.3099
 8027TIP3   OH248275   6.471   5.323   8.275  0.2355 -0.4264 -0.1136
 8027TIP3    H148276   6.535   5.365   8.218 -0.4659 -1.2813 -1.5915
 8027TIP3    H248277   6.524   5.265   8.331  1.0143  1.0415  0.7254
 8028TIP3   OH248278   2.503   0.713   9.289 -0.1755 -0.5219 -0.3158
 8028TIP3    H148279   2.574   0.775   9.273 -0.5213 -0.2588 -0.8565
 8028TIP3    H248280   2.491   0.668   9.205 -0.6451 -0.5654 -0.2300
 8029TIP3   OH248281   8.004   5.054   8.475 -0.5718 -0.2287 -0.2564
 8029TIP3    H148282   7.944   4.982   8.492 -0.4048 -0.1798  0.5424
 8029TIP3    H248283   7.963   5.131   8.515  0.7090 -0.4733  1.6288
 8030TIP3   OH248284   4.350   6.761   8.252 -0.5239  0.6787  0.2250
 8030TIP3    H148285   4.313   6.758   8.164 -2.7383  1.0953  1.0789
 8030TIP3    H248286   4.360   6.854   8.271 -0.4545  0.6049  0.5570
 8031TIP3   OH248287   8.192   1.844  10.224 -0.1853  0.1962  0.5229
 8031TIP3    H148288   8.219   1.889  10.143  2.3905  0.4811  1.4494
 8031TIP3    H248289   8.159   1.914  10.280  0.5208  0.4216  0.6684
 8032TIP3   OH248290   5.935   5.869   9.001  0.1890 -0.4707  0.3220
 8032TIP3    H148291   5.852   5.904   9.033  0.5433 -0.1687  0.9103
 8032TIP3    H248292   5.976   5.829   9.077  0.9368  0.0596  0.2143
 8033TIP3   OH248293   1.137   3.512   8.596  0.7291  0.1652  0.2528
 8033TIP3    H148294   1.105   3.601   8.612  0.1345 -0.1545  0.9500
 8033TIP3    H248295   1.181   3.516   8.512  2.4873  1.5825  1.1742
 8034TIP3   OH248296   1.150   5.060   8.955 -0.5557 -0.1745  0.6882
 8034TIP3    H148297   1.244   5.064   8.939 -0.8058 -2.4307 -1.9210
 8034TIP3    H248298   1.141   5.007   9.034  0.3273 -0.8783  0.3188
 8035TIP3   OH248299   4.210   8.244   8.015 -0.6758  0.2735  0.3001
 8035TIP3    H148300   4.118   8.266   8.032 -1.3988 -1.0681 -1.6167
 8035TIP3    H248301   4.211   8.148   8.010  0.6591  0.3142 -0.5965
 8036TIP3   OH248302   1.911   5.358   9.788  0.2178 -0.0056  0.6300
 8036TIP3    H148303   1.953   5.283   9.746 -1.0573 -0.9115  0.9178
 8036TIP3    H248304   1.970   5.382   9.859  0.3001 -1.1974  0.9821
 8037TIP3   OH248305   2.250   1.819   9.179 -0.2600 -0.0577 -0.1439
 8037TIP3    H148306   2.173   1.872   9.199  0.0716  0.2287  0.4192
 8037TIP3    H248307   2.306   1.876   9.127 -0.4098 -0.2543 -0.5241
 8038TIP3   OH248308   0.808   1.766   8.856 -0.9279  0.1226 -0.0801
 8038TIP3    H148309   0.764   1.850   8.851 -1.0788  0.0617  0.1713
 8038TIP3    H248310   0.741   1.706   8.891 -0.3648  0.2439  1.2460
 8039TIP3   OH248311   7.888   7.152   9.511  0.0519  0.1939 -0.5588
 8039TIP3    H148312   7.910   7.211   9.583  0.0610 -2.2091  1.5319
 8039TIP3    H248313   7.961   7.162   9.449  0.1182  2.1957 -0.2474
 8040TIP3   OH248314   1.820   7.598   8.640 -0.7565  0.2937 -0.1461
 8040TIP3    H148315   1.838   7.674   8.586 -0.0209  0.3876  0.2239
 8040TIP3    H248316   1.724   7.595   8.646 -0.8750 -0.0540 -1.8925
 8041TIP3   OH248317   2.128   2.111   9.358  0.7162 -0.0953  0.0754
 8041TIP3    H148318   2.149   2.017   9.362  0.3953 -0.1447  0.8021
 8041TIP3    H248319   2.044   2.119   9.402  0.5036  0.4753 -0.4240
 8042TIP3   OH248320   5.235   7.448   9.606  0.2415  0.6412  0.1000
 8042TIP3    H148321   5.288   7.476   9.680 -1.2650  1.5010  0.9044
 8042TIP3    H248322   5.185   7.373   9.640  0.1729  0.5007 -0.3100
 8043TIP3   OH248323   2.453   3.620   8.772  0.0807  0.0488  0.5081
 8043TIP3    H148324   2.398   3.698   8.770  0.1266  0.0697 -0.2682
 8043TIP3    H248325   2.513   3.631   8.699  1.5960  0.3497  1.7499
 8044TIP3   OH248326   4.590   4.857  10.430 -0.1352  0.3108 -0.3993
 8044TIP3    H148327   4.632   4.815  10.505 -0.2402 -0.8266 -0.9528
 8044TIP3    H248328   4.651   4.925  10.403  1.9477 -1.9995 -1.8535
 8045TIP3   OH248329   5.408   5.474   8.049 -0.0568  0.3145  0.0380
 8045TIP3    H148330   5.480   5.430   8.094  2.2049  2.6659 -1.0042
 8045TIP3    H248331   5.380   5.542   8.111 -2.2271 -1.2298  0.8706
 8046TIP3   OH248332   5.929   0.883   8.028  0.0378 -0.7422  0.9851
 8046TIP3    H148333   5.938   0.908   8.120 -1.1043  1.0231  0.6853
 8046TIP3    H248334   6.005   0.922   7.985 -0.6657  0.5645  0.8526
 8047TIP3   OH248335   5.236   5.867   9.380  0.4216 -0.0911 -0.1847
 8047TIP3    H148336   5.193   5.936   9.431 -0.0567 -0.1394 -0.5158
 8047TIP3    H248337   5.329   5.875   9.402  0.4879  1.2044 -0.8641
 8048TIP3   OH248338   4.476   7.757   8.406  0.1281  0.2964  0.3397
 8048TIP3    H148339   4.485   7.683   8.466 -2.2859  0.7558  1.3823
 8048TIP3    H248340   4.463   7.832   8.463  0.1590  1.1412 -0.7468
 8049TIP3   OH248341   7.360   3.274   9.562 -0.0612 -0.0546 -0.0483
 8049TIP3    H148342   7.288   3.237   9.613  0.0356 -0.0302  0.1102
 8049TIP3    H248343   7.392   3.347   9.615  0.2054 -0.1861 -0.0209
 8050TIP3   OH248344   1.913   2.415   7.617  0.0515  0.2722  0.0769
 8050TIP3    H148345   1.942   2.491   7.668  0.8337 -1.6913  2.7809
 8050TIP3    H248346   1.945   2.432   7.528  0.2005  3.0430  0.5635
 8051TIP3   OH248347   5.795   4.525   7.700  0.0821  0.0210  0.1082
 8051TIP3    H148348   5.724   4.560   7.646 -2.3253  0.7898  3.4279
 8051TIP3    H248349   5.771   4.434   7.716  0.8848 -0.2616 -0.2323
 8052TIP3   OH248350   6.682   4.021   8.196 -0.2483  0.1847 -0.6003
 8052TIP3    H148351   6.725   4.012   8.111  0.5191 -2.1766 -0.0161
 8052TIP3    H248352   6.593   3.990   8.181  0.2344 -1.4277 -0.3159
 8053TIP3   OH248353   7.450   4.938   9.322 -0.3598  0.4333 -0.3924
 8053TIP3    H148354   7.466   4.975   9.408 -1.1790 -1.3260  0.5655
 8053TIP3    H248355   7.373   4.984   9.290 -0.7198  0.3276  0.3088
 8054TIP3   OH248356   7.515   7.847   9.834 -0.0617  0.3597 -0.8244
 8054TIP3    H148357   7.602   7.859   9.872  0.3322 -0.6216 -1.3744
 8054TIP3    H248358   7.519   7.760   9.794 -1.1171  0.5424 -1.3400
 8055TIP3   OH248359   0.605   0.263   8.832  0.3516 -0.4482  0.2113
 8055TIP3    H148360   0.586   0.352   8.800 -0.2994 -0.6130  0.1436
 8055TIP3    H248361   0.694   0.270   8.868  1.3762 -0.3664 -2.1059
 8056TIP3   OH248362   2.789   5.516   7.723  0.3374  0.1329 -0.4878
 8056TIP3    H148363   2.814   5.609   7.716  0.1573  0.4542  2.0764
 8056TIP3    H248364   2.704   5.511   7.680  0.3599  1.1595 -0.6807
 8057TIP3   OH248365   0.591   3.873  10.093 -0.3616 -0.3316 -0.7665
 8057TIP3    H148366   0.659   3.935  10.119  0.0723 -0.4535 -1.6021
 8057TIP3    H248367   0.638   3.797  10.060 -0.8924 -0.2356 -1.7713
 8058TIP3   OH248368   1.670   2.777   7.488 -0.0281 -0.2096 -0.3292
 8058TIP3    H148369   1.765   2.786   7.489 -0.1908  2.3238  1.1784
 8058TIP3    H248370   1.653   2.699   7.435  2.9536 -1.9902  1.1054
 8059TIP3   OH248371   7.756   0.370   8.973 -0.2992 -0.3317 -0.1732
 8059TIP3    H148372   7.703   0.329   9.041  1.6143 -1.0562  0.9438
 8059TIP3    H248373   7.811   0.299   8.940  1.1231  0.7291 -0.1457
 8060TIP3   OH248374   3.700   4.757   7.915  0.3022 -0.0637 -0.7336
 8060TIP3    H148375   3.632   4.823   7.926  0.7188  0.2176  0.3286
 8060TIP3    H248376   3.700   4.736   7.822 -0.5799  0.6314 -0.8940
 8061TIP3   OH248377   7.640   4.757   8.734 -0.4608 -0.4459  0.2458
 8061TIP3    H148378   7.558   4.804   8.747 -0.8147 -0.9890  0.0016
 8061TIP3    H248379   7.616   4.678   8.686  0.1535 -0.7880  0.4803
 8062TIP3   OH248380   1.343   5.212   8.524 -0.0959 -0.0283  0.2285
 8062TIP3    H148381   1.315   5.123   8.503 -1.0281  0.0399  1.0695
 8062TIP3    H248382   1.354   5.255   8.439 -2.0060 -0.2509 -0.1780
 8063TIP3   OH248383   3.809   0.161   9.030  0.1879 -0.4016  0.1043
 8063TIP3    H148384   3.825   0.073   8.997 -0.6231 -0.7742  0.6829
 8063TIP3    H248385   3.721   0.157   9.067  0.5584  0.3654  1.1014
 8064TIP3   OH248386   5.205   4.140   9.218 -0.0438  0.5950  0.2299
 8064TIP3    H148387   5.188   4.125   9.312 -0.8574 -1.4189 -0.1777
 8064TIP3    H248388   5.128   4.189   9.188 -0.2352  0.4284  0.4392
 8065TIP3   OH248389   6.203   5.144  10.292 -0.6443  0.0170 -0.0679
 8065TIP3    H148390   6.273   5.126  10.230  0.2945 -1.2163  1.2801
 8065TIP3    H248391   6.249   5.164  10.374 -1.8450  1.4277  0.2992
 8066TIP3   OH248392   7.478   3.957   8.037 -0.3186 -0.3599 -0.1209
 8066TIP3    H148393   7.467   3.954   7.942  0.6385 -1.2532 -0.2148
 8066TIP3    H248394   7.491   4.050   8.056 -0.4627 -0.1763 -0.8648
 8067TIP3   OH248395   5.005   4.861   8.186  0.1113  0.4488  0.6701
 8067TIP3    H148396   5.014   4.924   8.257  1.6606  0.9984  0.0321
 8067TIP3    H248397   4.916   4.826   8.196 -1.0490  3.1144  0.7343
 8068TIP3   OH248398   1.461   4.393   9.450 -0.4353  0.0896 -0.0298
 8068TIP3    H148399   1.478   4.299   9.444 -0.8823  0.0187 -0.1940
 8068TIP3    H248400   1.521   4.423   9.519  0.7579 -0.0506 -0.9717
 8069TIP3   OH248401   4.156   4.226   7.979  0.0258 -0.4294  0.0146
 8069TIP3    H148402   4.102   4.189   7.909  1.3876 -2.8673  0.1472
 8069TIP3    H248403   4.242   4.235   7.939  0.0040  1.6574  0.3510
 8070TIP3   OH248404   1.635   8.160   8.394 -0.2352  0.1824  0.5209
 8070TIP3    H148405   1.594   8.237   8.432 -1.5183  0.1017 -0.6181
 8070TIP3    H248406   1.600   8.155   8.305 -0.0362 -1.5852  0.4971
 8071TIP3   OH248407   4.854   5.514   7.783 -0.5117  0.6363  0.4459
 8071TIP3    H148408   4.841   5.608   7.766  1.1843  0.6353 -1.1381
 8071TIP3    H248409   4.947   5.506   7.806 -0.6988 -0.6403  0.8423
 8072TIP3   OH248410   0.274   5.318   8.638 -0.5288  0.6530  0.0847
 8072TIP3    H148411   0.255   5.410   8.617  1.0704  1.0969  0.4863
 8072TIP3    H248412   0.224   5.301   8.718 -2.1625  0.6430 -0.8970
 8073TIP3   OH248413   5.520   1.643   9.294  0.3762  0.0662  0.6273
 8073TIP3    H148414   5.593   1.694   9.259  0.3511 -0.1156  0.3068
 8073TIP3    H248415   5.544   1.552   9.278  0.1173  0.0027  0.5947
 8074TIP3   OH248416   3.693   8.121   8.603  0.8768  0.3020  0.4110
 8074TIP3    H148417   3.775   8.106   8.556 -0.0116 -1.5477 -0.7215
 8074TIP3    H248418   3.695   8.058   8.675 -0.1707 -0.9344 -0.5752
 8075TIP3   OH248419   3.119   6.853   8.973 -0.2532 -0.2335 -0.1368
 8075TIP3    H148420   3.188   6.802   9.015  1.7760  0.0028 -2.9211
 8075TIP3    H248421   3.164   6.925   8.930 -2.5252  1.2267 -0.2588
 8076TIP3   OH248422   5.643   3.777   7.598 -0.4388 -0.1341 -0.5767
 8076TIP3    H148423   5.554   3.775   7.634  0.1684 -2.3448  0.9649
 8076TIP3    H248424   5.638   3.722   7.520 -0.4333 -0.2173 -0.5182
 8077TIP3   OH248425   3.273   1.237   8.613  0.1868 -0.2557 -0.1900
 8077TIP3    H148426   3.319   1.162   8.575 -0.7325 -0.5561 -0.7531
 8077TIP3    H248427   3.327   1.263   8.688 -0.3531 -2.6321  1.1527
 8078TIP3   OH248428   5.930   3.640   7.343  0.2494  0.5429  0.0320
 8078TIP3    H148429   5.986   3.678   7.411  0.9863 -1.0863  0.3857
 8078TIP3    H248430   5.955   3.685   7.263  0.7944  1.0964  0.5063
 8079TIP3   OH248431   7.915   3.833   8.748 -0.0157  0.3907 -0.8784
 8079TIP3    H148432   7.869   3.817   8.666  1.3837 -0.2265 -1.5769
 8079TIP3    H248433   7.846   3.858   8.810 -1.4165 -1.4589 -1.6000
 8080TIP3   OH248434   6.640   7.932   8.048  0.1588  0.0683  0.4616
 8080TIP3    H148435   6.590   7.943   7.967  0.1648  1.2665  0.5996
 8080TIP3    H248436   6.601   7.995   8.108  0.5441 -0.3926  1.2073
 8081TIP3   OH248437   0.782   4.124   9.441  0.1295  0.5115  0.1097
 8081TIP3    H148438   0.831   4.135   9.523 -0.3077 -1.5601  0.7256
 8081TIP3    H248439   0.724   4.049   9.458 -0.3038  0.3184 -1.9545
 8082TIP3   OH248440   2.985   1.480   7.722  0.2031 -0.4013 -0.5863
 8082TIP3    H148441   2.899   1.468   7.681  0.4965  0.8097 -1.6235
 8082TIP3    H248442   3.040   1.413   7.681  0.0904 -0.2529 -0.9902
 8083TIP3   OH248443   2.437   2.223   9.429  0.1085 -0.3946  0.2413
 8083TIP3    H148444   2.452   2.266   9.345 -0.6553 -3.0821 -1.3810
 8083TIP3    H248445   2.344   2.239   9.448  0.1692 -0.1612  0.3391
 8084TIP3   OH248446   8.238   5.156   8.976 -0.6419  0.1403  0.3587
 8084TIP3    H148447   8.231   5.230   8.917 -0.3169 -1.8428 -2.3256
 8084TIP3    H248448   8.150   5.119   8.981 -0.5614 -0.0191  0.6941
 8085TIP3   OH248449   3.660   7.139   9.430 -0.5310 -0.0689 -0.0209
 8085TIP3    H148450   3.649   7.066   9.491 -3.6939  0.6819  0.5183
 8085TIP3    H248451   3.672   7.098   9.345  0.4843 -1.1607  0.6173
 8086TIP3   OH248452   1.763   1.881   8.996 -0.1603  0.5362 -0.0704
 8086TIP3    H148453   1.778   1.929   8.914  1.9603 -1.0666 -0.6995
 8086TIP3    H248454   1.674   1.848   8.988  0.9762 -2.3104 -3.3299
 8087TIP3   OH248455   2.208   8.354   9.236  0.0672  0.2773 -0.0649
 8087TIP3    H148456   2.128   8.394   9.200 -1.2888 -1.4290  0.8691
 8087TIP3    H248457   2.189   8.345   9.329  2.2723  1.7855  0.6016
 8088TIP3   OH248458   4.176   4.745   8.127  0.6753  0.0651  0.2243
 8088TIP3    H148459   4.216   4.828   8.154 -0.6072  0.9017 -0.3379
 8088TIP3    H248460   4.084   4.767   8.112  0.6129 -1.1214 -1.4194
 8089TIP3   OH248461   1.524   6.511   9.011 -0.0749  0.2770  0.5068
 8089TIP3    H148462   1.571   6.438   9.050 -0.4276 -0.5018 -0.4859
 8089TIP3    H248463   1.432   6.488   9.020 -0.2768  1.4520  1.7851
 8090TIP3   OH248464   7.153   0.301   7.770  0.2446  0.1938 -0.6488
 8090TIP3    H148465   7.091   0.370   7.797  0.4519  0.2567 -0.3250
 8090TIP3    H248466   7.230   0.349   7.740  0.0577  0.1193 -1.2528
 8091TIP3   OH248467   7.661   2.453   8.824 -0.3932 -0.0436 -0.2401
 8091TIP3    H148468   7.709   2.380   8.863  1.0059  1.4950  1.1370
 8091TIP3    H248469   7.687   2.452   8.732  1.5851  0.1212  0.2497
 8092TIP3   OH248470   2.910   6.800   7.963  0.0347 -0.2951  0.4289
 8092TIP3    H148471   2.906   6.893   7.987  2.5101 -0.0074 -0.0492
 8092TIP3    H248472   2.915   6.754   8.047 -0.0249  0.0955  0.6495
 8093TIP3   OH248473   7.449   5.574   8.214  0.3863 -0.2607  0.4927
 8093TIP3    H148474   7.485   5.650   8.260 -1.0001 -0.7906  2.6141
 8093TIP3    H248475   7.405   5.612   8.138  1.4137  0.8445  0.4199
 8094TIP3   OH248476   7.728   7.680   8.720 -0.3301  0.3146 -0.1406
 8094TIP3    H148477   7.776   7.607   8.681  0.2272  1.1291 -1.0277
 8094TIP3    H248478   7.641   7.674   8.681 -0.4811 -0.2414  0.2710
 8095TIP3   OH248479   5.381   0.285   8.236  0.0970  0.4481 -0.6108
 8095TIP3    H148480   5.437   0.350   8.194 -0.0367 -0.2686 -1.9861
 8095TIP3    H248481   5.371   0.216   8.170 -1.9121  0.2719 -0.1984
 8096TIP3   OH248482   6.380   3.360   7.763 -0.1523  0.3711  0.0106
 8096TIP3    H148483   6.285   3.354   7.769 -0.1891  0.6132 -0.2723
 8096TIP3    H248484   6.411   3.272   7.785 -0.5069 -0.0427 -1.0397
 8097TIP3   OH248485   8.274   2.480   9.348  0.5302 -0.2478  0.1566
 8097TIP3    H148486   8.333   2.466   9.422  1.2888  1.0678 -0.1687
 8097TIP3    H248487   8.187   2.486   9.388  0.9738  0.8687  1.0316
 8098TIP3   OH248488   5.206   6.681   8.943  0.0235 -0.1750 -0.0096
 8098TIP3    H148489   5.208   6.614   8.876 -1.1483 -0.2802  0.0444
 8098TIP3    H248490   5.227   6.635   9.024  1.5552 -0.0258 -0.2798
 8099TIP3   OH248491   5.503   2.907   8.625 -0.2686  0.7170 -0.1617
 8099TIP3    H148492   5.586   2.944   8.596  0.7008 -1.3579 -0.2166
 8099TIP3    H248493   5.490   2.941   8.714  0.9182  0.6540  0.0453
 8100TIP3   OH248494   0.158   6.887   8.228  0.5602  0.6333  0.3126
 8100TIP3    H148495   0.155   6.805   8.277  0.2870 -0.4373 -1.3862
 8100TIP3    H248496   0.075   6.931   8.249 -0.2190 -0.5024 -0.3038
 8101TIP3   OH248497   3.161   5.032   8.118  0.1240 -0.2485 -0.1883
 8101TIP3    H148498   3.179   5.060   8.208  1.2629 -0.3520 -0.3651
 8101TIP3    H248499   3.200   4.944   8.113  0.2921 -0.1395 -0.8567
 8102TIP3   OH248500   2.819   6.730   8.222 -0.3297 -0.6066 -0.3200
 8102TIP3    H148501   2.782   6.642   8.226  0.5484 -0.9752  0.0634
 8102TIP3    H248502   2.853   6.745   8.311  1.4394 -0.7509 -0.9445
 8103TIP3   OH248503   3.357   6.028   8.212 -0.4941 -0.1220 -0.1743
 8103TIP3    H148504   3.364   6.118   8.245 -1.6365 -0.4800  1.1340
 8103TIP3    H248505   3.296   6.035   8.138  1.1223  0.4873 -1.5256
 8104TIP3   OH248506   2.466   3.097   9.107  0.2492  0.3246  0.3229
 8104TIP3    H148507   2.386   3.136   9.143 -0.1458 -0.5100  0.3610
 8104TIP3    H248508   2.436   3.022   9.056  0.9581  0.3939 -0.2203
 8105TIP3   OH248509   5.314   7.935   9.248 -0.5357 -0.3926 -0.0700
 8105TIP3    H148510   5.344   8.017   9.285 -1.1869 -1.7846  4.0312
 8105TIP3    H248511   5.233   7.957   9.201 -0.0753  1.4016 -0.0702
 8106TIP3   OH248512   7.704   3.576   8.985 -0.5099  0.1527  0.1240
 8106TIP3    H148513   7.655   3.557   8.905 -0.3930  1.2157 -0.2128
 8106TIP3    H248514   7.714   3.671   8.985 -0.1412  0.1259  1.1922
 8107TIP3   OH248515   0.749   3.890   8.644 -0.1006  0.0492  0.1186
 8107TIP3    H148516   0.756   3.981   8.613  0.4312  0.8937  2.5000
 8107TIP3    H248517   0.821   3.845   8.601  1.1284  1.3532  0.7464
 8108TIP3   OH248518   7.603   7.776   9.252  0.0357 -0.1542 -0.0522
 8108TIP3    H148519   7.646   7.732   9.178 -0.9523 -2.3943  0.6382
 8108TIP3    H248520   7.660   7.851   9.271  2.8266 -2.0929 -0.1600
 8109TIP3   OH248521   7.256   7.578   9.935 -0.2692  0.2318 -0.1285
 8109TIP3    H148522   7.308   7.608  10.010  2.2725 -0.8738 -1.3166
 8109TIP3    H248523   7.317   7.580   9.862 -1.8717 -1.4281 -1.6074
 8110TIP3   OH248524   6.000   2.243   8.825 -0.0232 -0.8672  0.0155
 8110TIP3    H148525   5.980   2.266   8.916  0.8971  0.9228 -0.1894
 8110TIP3    H248526   5.931   2.182   8.801 -1.8097  0.5753  1.1412
 8111TIP3   OH248527   5.004   1.127   9.687 -0.2436  0.2370  0.5948
 8111TIP3    H148528   4.917   1.119   9.649 -0.5686 -1.4654  1.5470
 8111TIP3    H248529   5.016   1.044   9.734  2.5789 -0.3235 -0.9177
 8112TIP3   OH248530   0.069   1.299   8.093 -0.5077 -0.2241 -0.2946
 8112TIP3    H148531   0.066   1.205   8.075  0.2627 -0.4817  0.8250
 8112TIP3    H248532   0.110   1.305   8.179 -0.0308  1.1741 -0.6022
 8113TIP3   OH248533   5.638   7.300  10.025 -0.0426  0.6346 -0.2322
 8113TIP3    H148534   5.697   7.364   9.986 -0.2499  0.7354 -0.3852
 8113TIP3    H248535   5.672   7.286  10.113  0.4301  0.4008 -0.4524
 8114TIP3   OH248536   3.054   7.403   9.641 -0.0893 -0.5677 -0.5114
 8114TIP3    H148537   2.965   7.438   9.630 -0.2660 -0.7923  0.1245
 8114TIP3    H248538   3.089   7.398   9.552 -0.7593 -0.5834 -0.7848
 8115TIP3   OH248539   3.567   8.194   7.886  0.3222  0.6332 -0.1638
 8115TIP3    H148540   3.542   8.278   7.924  0.3986  1.2668 -1.4478
 8115TIP3    H248541   3.544   8.202   7.793  0.6216 -0.6518 -0.3666
 8116TIP3   OH248542   1.463   5.157   8.184  0.0676 -0.5126  0.1870
 8116TIP3    H148543   1.469   5.071   8.143 -2.5739 -0.4904 -0.4610
 8116TIP3    H248544   1.379   5.193   8.153  0.4951  1.7793  1.4101
 8117TIP3   OH248545   3.131   6.838   9.540  0.4304 -0.6189  0.2093
 8117TIP3    H148546   3.135   6.928   9.507  2.1564 -0.8750 -0.3389
 8117TIP3    H248547   3.095   6.788   9.467  0.1470 -0.5125  0.2703
 8118TIP3   OH248548   0.984   0.717   8.465  0.3746 -0.4068  0.0593
 8118TIP3    H148549   0.992   0.622   8.471  1.7235 -0.4284 -1.3963
 8118TIP3    H248550   0.894   0.732   8.437  0.3266 -1.3185 -0.3182
 8119TIP3   OH248551   7.084   7.857  10.420  0.4094  0.2391 -0.0005
 8119TIP3    H148552   7.140   7.783  10.445  0.9071  0.4985 -0.3398
 8119TIP3    H248553   6.996   7.818  10.412  0.5605 -0.1987  0.3811
 8120TIP3   OH248554   8.093   4.023   7.828 -0.4806 -0.7828 -0.2174
 8120TIP3    H148555   8.171   4.005   7.879 -0.7547 -2.9048 -0.4407
 8120TIP3    H248556   8.052   4.098   7.872  0.1779 -1.4532  1.6325
 8121TIP3   OH248557   4.646   1.673   7.911  0.0728  0.2402  0.4044
 8121TIP3    H148558   4.663   1.581   7.889 -1.1512 -0.0925  0.7790
 8121TIP3    H248559   4.724   1.720   7.879 -0.6694 -0.4680 -2.8306
 8122TIP3   OH248560   2.301   4.756  14.273 -0.2852  0.5079  0.5801
 8122TIP3    H148561   2.316   4.730  14.363  1.2009 -1.9645 -0.2757
 8122TIP3    H248562   2.264   4.678  14.231  1.4867  0.6807 -1.4906
 8123TIP3   OH248563   8.263   4.903   9.380  0.0698  0.0205  0.1738
 8123TIP3    H148564   8.326   4.911   9.308  0.6469  1.3516  0.7768
 8123TIP3    H248565   8.201   4.975   9.365  0.0826  0.1908  0.8700
 8124TIP3   OH248566   6.148   6.731   9.382 -0.1537 -0.2682  0.1853
 8124TIP3    H148567   6.158   6.691   9.296 -2.9955  1.1789 -0.9634
 8124TIP3    H248568   6.053   6.738   9.394  0.1764  1.6793  2.3870
 8125TIP3   OH248569   7.320   1.869   9.608  0.4085 -0.8250  0.0039
 8125TIP3    H148570   7.389   1.932   9.631  0.0186 -0.4543  0.1554
 8125TIP3    H248571   7.245   1.922   9.582 -0.2025 -1.2024  0.9402
 8126TIP3   OH248572   0.756   4.475   9.659 -0.2082 -0.1187 -0.7319
 8126TIP3    H148573   0.788   4.522   9.581 -1.1012 -0.8757 -1.5850
 8126TIP3    H248574   0.690   4.534   9.696  0.4783  0.4065 -0.3247
 8127TIP3   OH248575   3.112   4.765   8.256 -0.3439 -0.0420  0.1131
 8127TIP3    H148576   3.115   4.717   8.339 -0.6708 -0.1280  0.0789
 8127TIP3    H248577   3.136   4.700   8.190  0.9550  0.2840  0.2332
 8128TIP3   OH248578   5.477   2.931   9.089 -0.1913  0.1778  0.1628
 8128TIP3    H148579   5.429   2.869   9.143 -0.1781  0.6273  0.7016
 8128TIP3    H248580   5.558   2.948   9.138  0.3933 -0.3567 -0.6002
 8129TIP3   OH248581   2.221   8.309   8.948 -0.3880  0.3657  0.2126
 8129TIP3    H148582   2.164   8.235   8.926 -0.8322  0.7546  0.0625
 8129TIP3    H248583   2.215   8.315   9.043 -3.6101  2.7621  0.0181
 8130TIP3   OH248584   7.527   6.494   8.660 -0.4225  0.1431  0.2062
 8130TIP3    H148585   7.437   6.499   8.693 -0.3173 -0.7018  0.6509
 8130TIP3    H248586   7.524   6.538   8.575 -1.3372 -0.2197  0.0419
 8131TIP3   OH248587   0.994   2.298   9.047  0.7080 -0.2210 -0.2292
 8131TIP3    H148588   0.926   2.231   9.036  0.5966  0.1564 -2.3372
 8131TIP3    H248589   1.075   2.249   9.060  0.3811 -0.7226 -0.0640
 8132TIP3   OH248590   7.377   3.395   9.107 -0.6736  0.1664 -0.8467
 8132TIP3    H148591   7.306   3.417   9.167 -0.4319  1.4703 -0.9953
 8132TIP3    H248592   7.371   3.301   9.095 -2.1257  0.2048 -0.5419
 8133TIP3   OH248593   3.914   0.268   8.715 -0.0583  0.4951  0.0767
 8133TIP3    H148594   3.903   0.350   8.762 -1.1200  1.2320 -1.3699
 8133TIP3    H248595   3.973   0.289   8.642  1.0452 -0.4609  0.6600
 8134TIP3   OH248596   6.117   5.669  14.754  0.1605  0.1316 -0.1186
 8134TIP3    H148597   6.087   5.749  14.797  0.2700 -0.2400  0.6663
 8134TIP3    H248598   6.036   5.619  14.738  0.2775 -0.5947  1.4384
 8135TIP3   OH248599   4.387   7.470  10.176  0.1451 -0.0011 -0.1920
 8135TIP3    H148600   4.327   7.396  10.188 -1.2950  1.2575  0.6344
 8135TIP3    H248601   4.331   7.547  10.170  1.6646  1.2674  0.8864
 8136TIP3   OH248602   1.632   2.117   9.152 -0.1457 -0.3707  0.1252
 8136TIP3    H148603   1.724   2.097   9.167  0.0340  0.6460  0.4525
 8136TIP3    H248604   1.608   2.176   9.223 -0.1228  2.0702 -1.7426
 8137TIP3   OH248605   1.394   7.340   7.920  0.1756 -0.6284  0.3823
 8137TIP3    H148606   1.316   7.370   7.966 -0.2111 -0.2702 -0.4844
 8137TIP3    H248607   1.361   7.274   7.858  0.5993 -0.6941  0.2241
 8138TIP3   OH248608   6.123   7.451   8.516  0.4081 -0.1133  0.4219
 8138TIP3    H148609   6.080   7.501   8.447  0.3215 -3.4754 -2.1964
 8138TIP3    H248610   6.215   7.477   8.511  0.4402 -0.4360 -1.1361
 8139TIP3   OH248611   4.719   0.966   7.728  0.0187 -0.1667  0.3242
 8139TIP3    H148612   4.774   0.933   7.799 -0.4579  0.7327  1.1292
 8139TIP3    H248613   4.781   0.989   7.659  0.7724  1.7083  1.5637
 8140TIP3   OH248614   4.066   5.166   8.372 -0.6624 -0.1047 -0.1443
 8140TIP3    H148615   3.975   5.169   8.344 -0.6556  1.1178 -0.1125
 8140TIP3    H248616   4.077   5.080   8.412 -2.0513  0.0819  0.6897
 8141TIP3   OH248617   3.775   1.692   7.806  0.0882 -0.4173  0.6651
 8141TIP3    H148618   3.746   1.726   7.890 -0.2594  0.1157  0.3405
 8141TIP3    H248619   3.857   1.737   7.788 -0.1421 -0.0797  0.4451
 8142TIP3   OH248620   1.904   5.833   9.850 -0.9341 -0.1055 -0.3596
 8142TIP3    H148621   1.945   5.772   9.912 -1.0247  0.0207 -0.1724
 8142TIP3    H248622   1.818   5.852   9.889  0.0890  2.2069  0.9798
 8143TIP3   OH248623   8.171   6.261   8.574  0.3329  0.4792 -0.2106
 8143TIP3    H148624   8.226   6.200   8.624 -0.5397  0.6009  0.9458
 8143TIP3    H248625   8.169   6.224   8.486  1.4781 -0.0452 -0.0370
 8144TIP3   OH248626   4.608   5.792  10.187 -0.1470  0.0523 -0.6758
 8144TIP3    H148627   4.526   5.742  10.188  1.3302 -2.6415  2.4257
 8144TIP3    H248628   4.584   5.879  10.221 -1.9358 -0.1258 -1.3855
 8145TIP3   OH248629   7.808   4.869   8.534 -0.6735 -0.3363  0.2030
 8145TIP3    H148630   7.867   4.845   8.606  0.3178  0.9161 -0.1398
 8145TIP3    H248631   7.721   4.870   8.573 -0.2294 -0.3615  1.2245
 8146TIP3   OH248632   7.442   2.545   9.029 -0.4789  0.0783 -0.3516
 8146TIP3    H148633   7.497   2.598   8.971 -1.2176 -0.8776 -1.9981
 8146TIP3    H248634   7.503   2.485   9.072  0.1687  1.2551  0.4263
 8147TIP3   OH248635   2.402   1.577   9.183  0.3916 -0.1074 -0.4464
 8147TIP3    H148636   2.354   1.494   9.193  0.2335  0.0433  0.0658
 8147TIP3    H248637   2.339   1.644   9.209  1.0001  0.0651  0.6223
 8148TIP3   OH248638   8.378   0.232   7.926 -0.0735 -0.6481  0.3951
 8148TIP3    H148639   8.430   0.282   7.864  0.8706  0.1980  1.8031
 8148TIP3    H248640   8.439   0.171   7.966 -0.3051 -0.1665  1.5283
 8149TIP3   OH248641   2.219   2.235   8.557  0.2587 -0.3026 -0.0127
 8149TIP3    H148642   2.277   2.305   8.527  0.1639 -0.2888 -0.1639
 8149TIP3    H248643   2.241   2.160   8.502 -0.8153  0.0873 -1.0119
 8150TIP3   OH248644   6.129   3.383   7.814  0.0130 -0.4014  0.4084
 8150TIP3    H148645   6.057   3.345   7.865 -1.0567 -0.1045 -0.8043
 8150TIP3    H248646   6.101   3.473   7.797  0.8104 -0.1933  0.1502
 8151TIP3   OH248647   3.087   1.690   9.320 -0.1209  0.2638 -0.4557
 8151TIP3    H148648   3.181   1.696   9.332  0.0504 -2.3651  0.1577
 8151TIP3    H248649   3.056   1.636   9.394 -1.6601 -1.1924 -2.0429
 8152TIP3   OH248650   5.950   1.945   8.224  0.3075 -0.3369  0.7425
 8152TIP3    H148651   6.025   1.888   8.205 -0.3876 -0.7494 -0.9332
 8152TIP3    H248652   5.974   1.990   8.305  1.8786 -1.2800  0.8424
 8153TIP3   OH248653   7.886   7.801   9.527 -0.1000  0.4627  0.1297
 8153TIP3    H148654   7.862   7.718   9.485 -0.9677  1.4016 -1.3063
 8153TIP3    H248655   7.865   7.868   9.462  1.2551  1.7767  0.9753
 8154TIP3   OH248656   2.245   2.605   9.217 -0.5685  0.2959 -0.5469
 8154TIP3    H148657   2.163   2.625   9.170 -1.3107  0.4768  0.7671
 8154TIP3    H248658   2.251   2.673   9.284  0.0063 -0.4486  0.1711
 8155TIP3   OH248659   6.071   0.405   9.847 -0.8731 -0.0096  0.4204
 8155TIP3    H148660   6.045   0.380   9.936  0.0015 -1.4705  0.3047
 8155TIP3    H248661   6.166   0.414   9.852 -1.0184  2.1670  0.1282
 8156TIP3   OH248662   1.447   5.620   8.618 -0.1379 -0.3288  0.0870
 8156TIP3    H148663   1.476   5.711   8.606 -0.4757 -0.2077  0.1743
 8156TIP3    H248664   1.508   5.569   8.565  1.0532 -0.2111  1.2916
 8157TIP3   OH248665   7.394   1.730   8.903  0.0015 -0.2235 -0.1705
 8157TIP3    H148666   7.350   1.656   8.944 -0.0908  0.0737  0.2823
 8157TIP3    H248667   7.399   1.707   8.811  0.3783 -0.9898  0.0359
 8158TIP3   OH248668   2.438   5.642   8.630 -0.2581  0.1847 -0.8149
 8158TIP3    H148669   2.429   5.630   8.725 -1.6167  3.4046 -0.3835
 8158TIP3    H248670   2.451   5.554   8.596 -0.9608 -1.2569  2.2312
 8159TIP3   OH248671   8.192   1.706   8.883  0.0944  0.5719  0.1778
 8159TIP3    H148672   8.271   1.653   8.882  0.2824  0.7740  1.5239
 8159TIP3    H248673   8.155   1.698   8.795 -0.4218 -2.5891  0.5717
 8160TIP3   OH248674   0.107   2.279   8.301  0.0686  0.2887  0.1478
 8160TIP3    H148675   0.042   2.347   8.281  0.3130  0.3862 -0.3253
 8160TIP3    H248676   0.177   2.293   8.237  0.7720  0.4621  0.9331
 8161TIP3   OH248677   2.687   7.393   7.861  0.1282  0.0888  0.1892
 8161TIP3    H148678   2.706   7.486   7.853  1.9803 -0.2878 -0.1369
 8161TIP3    H248679   2.723   7.368   7.946  0.0382 -0.4074  0.0879
 8162TIP3   OH248680   8.076   4.127   9.291  0.0810  0.0995 -0.0225
 8162TIP3    H148681   8.143   4.073   9.333  1.0770  2.5144  1.7583
 8162TIP3    H248682   8.125   4.188   9.236 -0.8580  0.3458 -0.6073
 8163TIP3   OH248683   6.427   4.782   9.663  0.8209  0.0794  0.0543
 8163TIP3    H148684   6.436   4.711   9.727  0.1176  0.1922  0.2925
 8163TIP3    H248685   6.517   4.809   9.644  1.0727 -0.4916  0.3922
 8164TIP3   OH248686   4.712   0.176   8.236  0.6811 -1.0795  0.1726
 8164TIP3    H148687   4.650   0.126   8.290 -1.7690 -0.5279 -1.9776
 8164TIP3    H248688   4.704   0.138   8.149  3.1398 -0.7020 -0.2905
 8165TIP3   OH248689   3.907   1.338   8.079  0.1694 -0.0969  0.1662
 8165TIP3    H148690   3.973   1.319   8.012 -0.5771  0.3499 -0.7151
 8165TIP3    H248691   3.951   1.399   8.138  2.1882 -3.3257  2.3437
 8166TIP3   OH248692   0.374   7.792   8.801 -0.2298 -0.6008  0.3992
 8166TIP3    H148693   0.415   7.810   8.885 -0.5172  0.4128  0.3305
 8166TIP3    H248694   0.282   7.774   8.823 -0.5987  0.9189  0.2054
 8167TIP3   OH248695   2.707   7.151   7.726 -0.0812 -0.0396 -0.0956
 8167TIP3    H148696   2.798   7.127   7.747  0.4430 -0.8837 -2.8512
 8167TIP3    H248697   2.707   7.246   7.722  1.2980 -0.0473 -2.0226
 8168TIP3   OH248698   7.403   3.639   8.217 -0.3214  0.0246  0.4915
 8168TIP3    H148699   7.451   3.642   8.134 -0.3613 -1.9855  0.3447
 8168TIP3    H248700   7.333   3.704   8.206 -0.8903 -0.8376 -1.4469
 8169TIP3   OH248701   5.205   7.607   8.955  0.1167  0.0306  0.1290
 8169TIP3    H148702   5.285   7.605   8.903 -0.3409  1.0358 -0.6373
 8169TIP3    H248703   5.170   7.695   8.943 -1.9585 -0.8654 -0.8749
 8170TIP3   OH248704   2.591   3.645   8.512 -0.1176 -0.6749 -0.3388
 8170TIP3    H148705   2.542   3.651   8.430  1.1841 -0.6935 -1.1417
 8170TIP3    H248706   2.650   3.571   8.499  0.7662 -0.0907  0.2456
 8171TIP3   OH248707   4.796   4.116   9.536 -0.1484  1.1733 -0.1650
 8171TIP3    H148708   4.751   4.058   9.598 -0.4064  2.6317  1.0705
 8171TIP3    H248709   4.862   4.160   9.590 -0.0785  2.1498 -1.0450
 8172TIP3   OH248710   2.614   0.573   8.264 -0.5284  0.3695 -0.0705
 8172TIP3    H148711   2.577   0.655   8.233  0.4795  1.4895  1.5122
 8172TIP3    H248712   2.681   0.551   8.200  0.6562  1.9662  0.5518
 8173TIP3   OH248713   0.027   0.610   7.912 -0.6611 -0.2591  0.0436
 8173TIP3    H148714   0.059   0.659   7.989 -1.4695 -1.1941  1.0055
 8173TIP3    H248715   0.034   0.518   7.937 -3.3392 -0.5552  0.0449
 8174TIP3   OH248716   3.049   6.772   9.263  0.0101 -0.0045 -0.1583
 8174TIP3    H148717   3.033   6.861   9.232  3.1290  0.6713 -0.2047
 8174TIP3    H248718   2.979   6.720   9.224 -3.3587  2.6917  1.8066
 8175TIP3   OH248719   7.902   7.734   9.853  0.7680  0.3909  0.7147
 8175TIP3    H148720   7.829   7.774   9.900 -0.0752  3.4248 -2.6812
 8175TIP3    H248721   7.862   7.662   9.804  0.6793  0.1911  1.0787
 8176TIP3   OH248722   1.939   2.630   9.192 -0.1590 -0.2302 -0.7840
 8176TIP3    H148723   1.844   2.633   9.186 -0.3524 -0.2455  1.3552
 8176TIP3    H248724   1.958   2.541   9.224  0.7897 -1.0341 -3.3184
 8177TIP3   OH248725   5.467   5.891   8.068  0.1590  0.4089  0.6247
 8177TIP3    H148726   5.455   5.878   7.974 -0.3467 -0.2568  0.7752
 8177TIP3    H248727   5.397   5.950   8.094 -0.0080  0.1884  0.6755
 8178TIP3   OH248728   4.404   1.900   8.190 -0.3924 -0.2250 -0.8367
 8178TIP3    H148729   4.493   1.935   8.194 -0.5040 -0.0081 -0.1558
 8178TIP3    H248730   4.394   1.873   8.099  0.6023 -0.8582 -0.7828
 8179TIP3   OH248731   5.015   6.969   7.844  0.2066  0.3504  0.3486
 8179TIP3    H148732   4.920   6.972   7.840  0.1213  0.4708  2.0121
 8179TIP3    H248733   5.035   6.933   7.930  1.6853  2.4581  0.9632
 8180TIP3   OH248734   7.896   6.380   8.063  0.0171  0.3389 -0.6858
 8180TIP3    H148735   7.807   6.350   8.047 -0.3405  1.5532 -1.0565
 8180TIP3    H248736   7.888   6.442   8.136  0.6395  0.0601 -0.3699
 8181TIP3   OH248737   2.015   3.887   7.570 -0.4428  0.3461 -0.0813
 8181TIP3    H148738   1.924   3.909   7.589 -1.1360 -1.4842 -1.0184
 8181TIP3    H248739   2.014   3.792   7.554  1.1997  0.6351 -2.4378
 8182TIP3   OH248740   3.633   4.618   7.623 -0.3715  0.4656 -0.3348
 8182TIP3    H148741   3.639   4.528   7.654 -1.9706  0.8689  1.2846
 8182TIP3    H248742   3.543   4.644   7.640  0.3952  2.8308  0.5182
 8183TIP3   OH248743   7.365   2.284   8.272 -1.0162  0.2726  0.2806
 8183TIP3    H148744   7.418   2.330   8.336 -0.0575  0.5434 -0.6734
 8183TIP3    H248745   7.301   2.349   8.242 -0.2715  0.7311 -0.3702
 8184TIP3   OH248746   1.419   7.018   9.112  0.5061 -0.1962  0.0805
 8184TIP3    H148747   1.441   6.934   9.072  1.6676 -0.5331  1.3542
 8184TIP3    H248748   1.474   7.023   9.191  0.3366  1.6756  0.1359
 8185TIP3   OH248749   5.009   3.559   9.536  0.1725  0.4964  0.3954
 8185TIP3    H148750   5.101   3.568   9.512  0.1010  1.1140  0.3352
 8185TIP3    H248751   5.010   3.496   9.608  0.5362 -0.2323 -0.2316
 8186TIP3   OH248752   5.784   0.538   9.068 -1.0576  0.5450  0.6400
 8186TIP3    H148753   5.813   0.628   9.054  0.2440  0.0024 -0.4947
 8186TIP3    H248754   5.729   0.519   8.992  0.6426 -0.3319 -0.4453
 8187TIP3   OH248755   7.494   1.475   8.602 -0.1988 -0.5408 -0.3093
 8187TIP3    H148756   7.528   1.564   8.593  0.1508 -0.4930  1.3168
 8187TIP3    H248757   7.570   1.418   8.592  0.1339 -0.5022  1.6660
 8188TIP3   OH248758   2.438   7.245   7.971  0.9869 -0.3811  0.3973
 8188TIP3    H148759   2.405   7.167   7.927 -0.8273  1.5747 -1.9870
 8188TIP3    H248760   2.513   7.273   7.919  1.3890 -0.2915  1.0082
 8189TIP3   OH248761   3.869   7.189   8.809  0.4768  0.0496 -0.2674
 8189TIP3    H148762   3.798   7.231   8.761 -1.1502 -0.6902  1.3722
 8189TIP3    H248763   3.864   7.097   8.785 -0.7351 -0.4453  1.6091
 8190TIP3   OH248764   6.404   7.544   8.455  0.1549 -0.0888 -0.4079
 8190TIP3    H148765   6.461   7.570   8.383  0.4242  1.3171  0.2873
 8190TIP3    H248766   6.432   7.597   8.529 -2.1530  0.7833 -0.0718
 8191TIP3   OH248767   1.522   2.810   8.759  0.2197  0.3658 -0.1217
 8191TIP3    H148768   1.536   2.716   8.770  2.0136  0.7809  2.1529
 8191TIP3    H248769   1.498   2.840   8.847  1.3481  2.2325 -0.4027
 8192TIP3   OH248770   3.384   0.655   9.826 -0.3789  0.0479 -0.3942
 8192TIP3    H148771   3.467   0.647   9.780  0.0536 -2.5479  0.6649
 8192TIP3    H248772   3.325   0.596   9.778 -0.6030 -0.7686  0.8324
 8193TIP3   OH248773   1.797   7.815   8.464 -0.0093  0.4581  0.1048
 8193TIP3    H148774   1.783   7.906   8.491 -0.6803  0.5698 -0.5676
 8193TIP3    H248775   1.709   7.783   8.442  0.1747 -0.4719  0.6916
 8194TIP3   OH248776   0.701   4.750   8.664 -0.2677  0.6518  0.0855
 8194TIP3    H148777   0.744   4.792   8.589 -1.3188 -0.9075 -1.4929
 8194TIP3    H248778   0.627   4.806   8.684 -0.0724  1.0036 -0.1598
 8195TIP3   OH248779   7.023   5.272   8.121  0.5151 -0.2473 -0.6520
 8195TIP3    H148780   6.931   5.287   8.103  0.8863  3.4094 -0.3282
 8195TIP3    H248781   7.024   5.225   8.204 -0.9997 -1.6386 -1.3675
 8196TIP3   OH248782   2.918   4.331   8.458  0.2184  0.1804  0.0193
 8196TIP3    H148783   2.941   4.379   8.378 -0.6613 -1.0098 -0.9774
 8196TIP3    H248784   2.943   4.240   8.439 -2.6713 -0.6863 -0.1059
 8197TIP3   OH248785   0.934   6.069   8.522  0.0075 -0.3271 -0.6030
 8197TIP3    H148786   0.939   6.025   8.607 -0.6017 -0.0412 -0.4149
 8197TIP3    H248787   0.987   6.149   8.534 -0.4430 -0.0632 -0.3477
 8198TIP3   OH248788   2.524   4.409   9.162  0.2403 -0.2056 -0.0297
 8198TIP3    H148789   2.440   4.394   9.120 -0.0283 -0.9849  0.7614
 8198TIP3    H248790   2.588   4.405   9.090 -0.2066 -1.5476 -0.3696
 8199TIP3   OH248791   0.202   2.688   9.546 -0.3483  0.2559 -0.4535
 8199TIP3    H148792   0.155   2.676   9.464 -0.3369  0.6885 -0.5223
 8199TIP3    H248793   0.137   2.723   9.607 -0.2226  0.4434 -0.4260
 8200TIP3   OH248794   2.541   1.300   8.964  0.1451  0.0504 -0.3450
 8200TIP3    H148795   2.519   1.375   9.019 -1.0574 -2.2835  2.5945
 8200TIP3    H248796   2.636   1.290   8.974  0.6700  2.1664 -2.3040
 8201TIP3   OH248797   1.817   4.420   7.994  0.0304  0.2230 -0.5572
 8201TIP3    H148798   1.868   4.350   7.953 -1.8192 -1.2167 -0.5853
 8201TIP3    H248799   1.820   4.492   7.931  1.6873  0.0575 -0.7016
 8202TIP3   OH248800   5.302   6.239   8.490  0.2170 -0.4032 -0.6735
 8202TIP3    H148801   5.282   6.204   8.577  1.2189 -0.9307 -0.6383
 8202TIP3    H248802   5.219   6.276   8.459  0.1143  0.9478  1.0302
 8203TIP3   OH248803   4.174   2.451   8.116 -0.3635 -0.1681 -0.0357
 8203TIP3    H148804   4.219   2.367   8.104  2.0717  0.8110  1.4005
 8203TIP3    H248805   4.205   2.504   8.042 -0.1678  0.1132  0.2480
 8204TIP3   OH248806   6.518   6.093   8.250 -0.4939 -0.4910 -0.0088
 8204TIP3    H148807   6.432   6.105   8.209 -0.7878 -0.9122  0.4684
 8204TIP3    H248808   6.499   6.051   8.334  0.1655 -0.4078  0.1899
 8205TIP3   OH248809   5.598   0.190   7.968 -0.1027  0.5690 -0.2102
 8205TIP3    H148810   5.637   0.160   7.885 -1.9827 -2.1364 -0.2347
 8205TIP3    H248811   5.512   0.222   7.944 -0.5340  0.0800  0.6434
 8206TIP3   OH248812   4.182   4.344   8.437  0.1359 -0.3582 -0.3961
 8206TIP3    H148813   4.194   4.418   8.376 -0.8109 -0.2777 -0.4902
 8206TIP3    H248814   4.198   4.266   8.384 -1.3101 -0.3163 -0.9263
 8207TIP3   OH248815   3.425   0.271   8.032  0.0778 -0.4321  0.4769
 8207TIP3    H148816   3.455   0.336   8.096 -1.5226  0.1707  0.6517
 8207TIP3    H248817   3.451   0.307   7.947  0.5325 -0.2998  0.6720
 8208TIP3   OH248818   1.938   1.917   8.737 -0.2072 -0.0343  0.0467
 8208TIP3    H148819   1.863   1.862   8.714 -0.1078 -0.8185  1.4740
 8208TIP3    H248820   1.997   1.910   8.663  0.2569 -2.6856  0.5724
 8209TIP3   OH248821   6.221   4.019   7.424  0.5533 -0.1814 -0.3629
 8209TIP3    H148822   6.275   3.979   7.356  0.7472 -0.6164  0.0417
 8209TIP3    H248823   6.281   4.079   7.469  0.9556 -1.2726  0.6222
 8210TIP3   OH248824   3.039   2.101   8.056 -0.3912  0.5386 -0.3658
 8210TIP3    H148825   3.022   2.194   8.069  0.7967  0.5234  1.6990
 8210TIP3    H248826   3.123   2.086   8.098 -0.8102 -1.5828 -0.1741
 8211TIP3   OH248827   2.494   1.569   9.980 -0.1249  0.3063  0.0041
 8211TIP3    H148828   2.414   1.540   9.936 -0.4178  0.4333  0.4464
 8211TIP3    H248829   2.492   1.664   9.975  0.7304  0.2790 -1.2565
 8212TIP3   OH248830   7.621   5.712   7.652 -0.3023  0.0131  0.1986
 8212TIP3    H148831   7.685   5.654   7.612 -0.5494  0.1107 -0.3512
 8212TIP3    H248832   7.581   5.660   7.722  1.0909  0.2921  1.2242
 8213TIP3   OH248833   5.635   5.782  10.354  0.2201  0.4694 -0.3766
 8213TIP3    H148834   5.545   5.800  10.328  0.3944 -0.4077 -1.7109
 8213TIP3    H248835   5.673   5.736  10.279  1.0983 -1.2240  1.0135
 8214TIP3   OH248836   4.412   4.124   8.932  0.0348  0.4194 -0.1134
 8214TIP3    H148837   4.357   4.126   8.854  1.2939  1.2200 -1.0277
 8214TIP3    H248838   4.371   4.059   8.989 -0.6116 -0.5845 -1.6622
 8215TIP3   OH248839   0.943   0.724   7.690  0.1086  0.2141 -0.5432
 8215TIP3    H148840   0.993   0.722   7.771  1.8651 -1.4574 -1.5932
 8215TIP3    H248841   0.980   0.797   7.641 -0.7831  1.0673  0.0335
 8216TIP3   OH248842   4.225   1.121   8.748 -0.7256  0.3392 -0.2079
 8216TIP3    H148843   4.211   1.178   8.673 -0.1008 -0.0045 -0.5946
 8216TIP3    H248844   4.254   1.038   8.710  0.3648  0.4026  0.4304
 8217TIP3   OH248845   3.665   0.236   9.641  0.1884  0.0873  0.2615
 8217TIP3    H148846   3.627   0.236   9.730  0.4192 -0.2617  0.3618
 8217TIP3    H248847   3.701   0.324   9.631 -0.5392  0.3890  0.2099
 8218TIP3   OH248848   6.220   4.982   8.927  0.3141 -0.6652  0.0349
 8218TIP3    H148849   6.212   5.001   8.833  0.8437 -1.5163 -0.1963
 8218TIP3    H248850   6.309   4.947   8.937  0.9890  1.2057  1.1838
 8219TIP3   OH248851   2.078   0.772   9.054 -0.2600  0.4674  0.2149
 8219TIP3    H148852   2.120   0.696   9.094 -1.5156 -0.6592 -0.4928
 8219TIP3    H248853   2.038   0.819   9.127  1.8399  1.3573  0.8451
 8220TIP3   OH248854   1.301   5.683   9.111 -0.0541 -0.1839  0.0917
 8220TIP3    H148855   1.393   5.658   9.113  0.4745  1.4267 -1.4191
 8220TIP3    H248856   1.294   5.752   9.177  0.2475  0.9079 -0.9946
 8221TIP3   OH248857   2.406   0.831   7.955  0.1667  0.9439 -0.1909
 8221TIP3    H148858   2.351   0.848   7.878  1.0277 -0.6232 -1.2017
 8221TIP3    H248859   2.348   0.847   8.029 -0.2441  4.1215 -1.0357
 8222TIP3   OH248860   3.860   4.420   9.241  0.6949  0.1208 -0.0112
 8222TIP3    H148861   3.821   4.366   9.309 -0.8293  1.7175  0.4733
 8222TIP3    H248862   3.927   4.471   9.287  1.0651 -0.2418 -0.1439
 8223TIP3   OH248863   7.698   4.395   9.699 -0.3179  0.1249  0.6903
 8223TIP3    H148864   7.666   4.309   9.672  0.2451 -0.0561  0.5949
 8223TIP3    H248865   7.628   4.429   9.756 -0.8514 -0.0979  0.1784
 8224TIP3   OH248866   7.247   0.214  10.157 -0.1953  0.4301  0.6435
 8224TIP3    H148867   7.183   0.143  10.156  0.9960 -0.6847  0.8108
 8224TIP3    H248868   7.219   0.272  10.227 -0.3762 -0.6649  1.4964
 8225TIP3   OH248869   6.920   0.284  10.334 -0.3929  0.2761  0.0694
 8225TIP3    H148870   6.867   0.205  10.321 -0.9162  0.8887 -2.0192
 8225TIP3    H248871   6.855   0.353  10.349 -0.0652  0.6309 -0.1432
 8226TIP3   OH248872   4.682   1.373   7.944  0.0249  0.1402  0.3504
 8226TIP3    H148873   4.600   1.336   7.913  1.0713 -0.9567 -1.2404
 8226TIP3    H248874   4.680   1.359   8.039 -2.2106  1.4447  0.5531
 8227TIP3   OH248875   5.147   1.465   8.789  0.2844  0.0274 -0.0052
 8227TIP3    H148876   5.105   1.475   8.704 -1.4053 -2.9153  0.3333
 8227TIP3    H248877   5.235   1.434   8.769  0.7451  1.6900 -0.6717
 8228TIP3   OH248878   3.228   3.677   7.887  0.4172 -0.0139  0.3180
 8228TIP3    H148879   3.169   3.720   7.825  0.2438  0.7318  0.9770
 8228TIP3    H248880   3.176   3.666   7.967  1.0803  0.4316  0.8290
 8229TIP3   OH248881   7.662   7.431  10.614  0.3537 -0.0078 -0.3925
 8229TIP3    H148882   7.705   7.408  10.697  0.1153  1.0766  0.0391
 8229TIP3    H248883   7.576   7.390  10.621  0.0656  0.6806  0.2168
 8230TIP3   OH248884   6.524   2.922   9.966 -1.0136 -0.0831 -0.0548
 8230TIP3    H148885   6.579   2.868   9.909 -0.6079 -0.2771  0.5096
 8230TIP3    H248886   6.446   2.939   9.915 -0.9436 -0.8162 -0.4219
 8231TIP3   OH248887   6.144   2.621   8.203 -0.5160 -0.5588 -0.0133
 8231TIP3    H148888   6.104   2.696   8.246  0.4653 -0.5155  0.8673
 8231TIP3    H248889   6.185   2.572   8.275  1.1976 -0.4738 -0.8894
 8232TIP3   OH248890   2.774   1.909   8.831 -0.1974 -0.1576  0.5620
 8232TIP3    H148891   2.708   1.979   8.837  0.5895  0.7164 -0.4578
 8232TIP3    H248892   2.838   1.930   8.898  2.2954  2.6850 -2.3518
 8233TIP3   OH248893   5.067   3.407   7.872 -0.6197  0.0194 -0.3242
 8233TIP3    H148894   5.093   3.487   7.827  0.2319 -1.3542 -2.3866
 8233TIP3    H248895   5.030   3.351   7.804 -3.5967 -0.4442  1.4646
 8234TIP3   OH248896   1.932   3.156   9.732  0.1388  0.2719 -0.4236
 8234TIP3    H148897   1.931   3.161   9.636  0.0295  0.9790 -0.3872
 8234TIP3    H248898   1.957   3.244   9.760 -3.7818  1.3407  0.2919
 8235TIP3   OH248899   2.031   0.246   8.337  0.0719 -0.2468 -0.3611
 8235TIP3    H148900   2.031   0.155   8.367 -0.9741 -0.1273  0.0745
 8235TIP3    H248901   2.057   0.241   8.245 -1.6226 -1.2040 -0.8431
 8236TIP3   OH248902   1.641   2.611   9.432 -0.2655  0.0698 -0.4968
 8236TIP3    H148903   1.645   2.704   9.450 -1.3464  0.4869 -2.1570
 8236TIP3    H248904   1.666   2.603   9.340 -0.8083 -1.1934 -0.5649
 8237TIP3   OH248905   7.488   5.895   8.050 -0.0456  0.3966  0.2174
 8237TIP3    H148906   7.454   5.972   8.005 -1.8092 -0.8071 -0.6713
 8237TIP3    H248907   7.574   5.879   8.010  0.0358  1.4810 -0.0668
 8238TIP3   OH248908   2.228   3.116   9.226 -0.0222  0.0104  0.6830
 8238TIP3    H148909   2.218   3.130   9.320 -3.2097  0.1194  0.4124
 8238TIP3    H248910   2.178   3.036   9.208  0.2706  0.1646 -0.9709
 8239TIP3   OH248911   7.232   5.230   7.935 -0.0343 -0.1525  0.0176
 8239TIP3    H148912   7.168   5.225   8.006  1.2597  2.7102  1.5682
 8239TIP3    H248913   7.195   5.295   7.874  0.2555 -0.3185 -0.3404
 8240TIP3   OH248914   1.588   2.244   7.646 -0.1032 -0.3503  0.6005
 8240TIP3    H148915   1.619   2.322   7.692  0.1386 -0.1862  0.1688
 8240TIP3    H248916   1.667   2.206   7.607 -0.5434  0.7638 -1.5674
 8241TIP3   OH248917   4.029   0.022   8.616 -0.1152  0.0796  0.0653
 8241TIP3    H148918   4.000   0.113   8.626 -0.8951 -0.3131  1.7068
 8241TIP3    H248919   4.068  -0.000   8.700  3.5536  0.0257 -1.4994
 8242TIP3   OH248920   6.508   1.332   9.766  0.4193 -0.0665  0.0444
 8242TIP3    H148921   6.419   1.305   9.791  0.7668 -0.5807  0.7754
 8242TIP3    H248922   6.558   1.250   9.765  0.6999  0.1073 -1.2211
 8243TIP3   OH248923   3.911   4.429   7.773 -0.3287 -0.0483  0.0263
 8243TIP3    H148924   3.902   4.335   7.785  1.2395 -0.0285  1.9319
 8243TIP3    H248925   3.986   4.440   7.715 -0.3374  0.0431  0.0315
 8244TIP3   OH248926   4.779   5.821   7.753  0.2979  0.3801 -0.2605
 8244TIP3    H148927   4.719   5.873   7.699  1.5256  0.2669 -1.8028
 8244TIP3    H248928   4.852   5.880   7.770 -0.1120  0.4565  1.4576
 8245TIP3   OH248929   2.433   5.947   8.908 -0.4017 -0.4093  0.4868
 8245TIP3    H148930   2.476   5.862   8.900  0.2726 -0.3231  2.5803
 8245TIP3    H248931   2.478   5.990   8.981  0.4755  2.5091 -1.6300
 8246TIP3   OH248932   0.045   1.449   7.839  0.1103  0.4880  0.0668
 8246TIP3    H148933   0.053   1.405   7.923 -2.9797 -0.6367 -0.0969
 8246TIP3    H248934   0.130   1.436   7.797  0.2864 -2.9253  1.1965
 8247TIP3   OH248935   5.124   3.997   8.889  0.0555 -0.2490  0.6403
 8247TIP3    H148936   5.145   3.922   8.945 -0.6557 -0.8879  0.0666
 8247TIP3    H248937   5.085   3.958   8.810  0.7368  0.6594 -0.1597
 8248TIP3   OH248938   6.547   3.204   8.543  0.2207 -0.3288  0.3586
 8248TIP3    H148939   6.521   3.115   8.521  0.9485 -0.1194 -1.5267
 8248TIP3    H248940   6.477   3.236   8.600 -1.7683 -1.0159 -1.5650
 8249TIP3   OH248941   7.754   7.933   8.659  0.0260  0.0351  0.1780
 8249TIP3    H148942   7.750   7.838   8.668  1.1279 -0.0347 -0.0337
 8249TIP3    H248943   7.685   7.965   8.717 -1.3268 -0.9350 -0.8213
 8250TIP3   OH248944   8.133   6.509   8.678  0.3559  0.0377 -0.2150
 8250TIP3    H148945   8.156   6.428   8.632 -1.0003  1.0667 -2.8800
 8250TIP3    H248946   8.215   6.541   8.714  1.3952 -1.0985 -1.4883
 8251TIP3   OH248947   3.933   0.324   9.370  0.0321 -0.2352  0.4918
 8251TIP3    H148948   4.023   0.327   9.339 -0.3734  0.3138 -0.7198
 8251TIP3    H248949   3.917   0.232   9.391  0.3920 -0.6335 -0.8559
 8252TIP3   OH248950   6.526   1.305   8.586  0.0257 -0.4398  0.3623
 8252TIP3    H148951   6.504   1.298   8.494 -0.0382 -1.1622  0.4277
 8252TIP3    H248952   6.448   1.274   8.632  0.0788 -0.1434  0.6576
 8253TIP3   OH248953   2.004   6.166   8.735 -0.2214  0.7806  0.1325
 8253TIP3    H148954   2.091   6.175   8.774  0.3459  1.1279 -1.1596
 8253TIP3    H248955   2.018   6.107   8.661 -1.0024  1.1978 -0.3526
 8254TIP3   OH248956   5.411   8.041   7.900 -0.1681 -0.0758 -0.1003
 8254TIP3    H148957   5.492   8.049   7.849 -0.0948 -1.5682 -0.2443
 8254TIP3    H248958   5.360   8.118   7.874  0.6603  0.2042 -0.9918
 8255TIP3   OH248959   4.307   1.056   9.511  0.2022 -0.1037 -0.2728
 8255TIP3    H148960   4.215   1.079   9.518  0.3192  0.0314  1.1311
 8255TIP3    H248961   4.349   1.104   9.582  0.9515 -2.1503  0.7516
 8256TIP3   OH248962   5.251   3.434   8.101 -0.5673 -0.2736 -0.3625
 8256TIP3    H148963   5.173   3.401   8.057  0.5618 -2.9754 -0.5133
 8256TIP3    H248964   5.250   3.390   8.186  0.7279 -0.2395 -0.3200
 8257TIP3   OH248965   8.403   7.620   9.857  0.0336 -0.4125  0.6998
 8257TIP3    H148966   8.308   7.631   9.849  0.3075  0.3398 -2.7169
 8257TIP3    H248967   8.415   7.525   9.865 -0.9679 -0.5817  0.3653
 8258TIP3   OH248968   5.401   2.376   9.279  0.1834 -0.0648  0.8545
 8258TIP3    H148969   5.457   2.344   9.209 -0.1558  1.0547  0.0415
 8258TIP3    H248970   5.345   2.302   9.302  0.4935 -0.5234  0.1499
 8259TIP3   OH248971   8.241   1.911   9.951  0.1269 -0.0556  0.6688
 8259TIP3    H148972   8.319   1.858   9.938 -0.1356 -0.0491 -1.2627
 8259TIP3    H248973   8.273   2.002   9.950  0.0967 -0.0356 -0.4887
 8260TIP3   OH248974   4.820   0.293   9.393 -0.4022 -0.5324  0.5908
 8260TIP3    H148975   4.838   0.387   9.388  1.0059 -0.8303 -0.9435
 8260TIP3    H248976   4.735   0.282   9.351 -1.2160  0.1733  1.9787
 8261TIP3   OH248977   6.193   6.538   8.098  0.2577 -0.6014  0.0993
 8261TIP3    H148978   6.115   6.525   8.152  1.2849 -2.6399  1.1871
 8261TIP3    H248979   6.265   6.538   8.161  1.3675 -1.6178 -1.1362
 8262TIP3   OH248980   7.179   8.152  10.384 -0.0866 -0.3252  0.6939
 8262TIP3    H148981   7.172   8.058  10.400  0.5341 -0.5847 -0.4155
 8262TIP3    H248982   7.273   8.167  10.376  0.0786  0.9354  3.7167
 8263TIP3   OH248983   7.346   0.920   9.273  0.0622  0.3326 -0.5598
 8263TIP3    H148984   7.252   0.900   9.269  0.1390 -0.2227  0.1297
 8263TIP3    H248985   7.361   0.946   9.364  1.0160 -2.0643  0.0560
 8264TIP3   OH248986   2.396   3.718   7.543  0.1159  0.1161  0.2363
 8264TIP3    H148987   2.367   3.752   7.628 -0.4077 -2.3276  1.1154
 8264TIP3    H248988   2.317   3.720   7.489 -0.2688 -0.9637  0.7361
 8265TIP3   OH248989   7.031   6.065   7.831  0.5952 -0.0501  0.1687
 8265TIP3    H148990   6.987   6.140   7.871 -0.9573 -0.3981 -0.8094
 8265TIP3    H248991   6.998   5.990   7.880 -2.5864 -0.6557 -2.5920
 8266TIP3   OH248992   6.444   7.791   8.632  0.1867 -1.0770 -0.9687
 8266TIP3    H148993   6.471   7.871   8.675  1.3690  0.1425 -3.7213
 8266TIP3    H248994   6.433   7.727   8.703  1.8398  0.7693  1.0707
 8267TIP3   OH248995   1.168   3.855   9.287  0.1433 -0.1417 -0.3037
 8267TIP3    H148996   1.137   3.936   9.245 -0.3448  0.6605  1.5175
 8267TIP3    H248997   1.154   3.870   9.380  1.4218 -1.7762  0.1815
 8268TIP3   OH248998   0.151   2.465   9.072  0.5993 -0.0847 -0.3675
 8268TIP3    H148999   0.147   2.528   9.000 -1.3119 -0.4830 -0.6554
 8268TIP3    H249000   0.212   2.504   9.134  0.5278  1.3825 -1.1661
 8269TIP3   OH249001   0.065   7.925   7.797 -0.7146 -0.5760  0.5055
 8269TIP3    H149002   0.064   7.990   7.727 -0.3188  1.4346  2.2837
 8269TIP3    H249003   0.154   7.890   7.796 -0.9136 -1.0897 -0.4234
 8270TIP3   OH249004   2.595   0.590   9.062 -0.9143 -0.1467  0.4092
 8270TIP3    H149005   2.640   0.513   9.028  0.4926  0.3982  0.9751
 8270TIP3    H249006   2.594   0.651   8.988  2.4098  1.1549  1.2602
 8271TIP3   OH249007   4.974   5.330  10.292  0.1745  0.1955  0.0553
 8271TIP3    H149008   4.984   5.381  10.212 -0.3492 -0.1361 -0.2269
 8271TIP3    H249009   5.009   5.387  10.361  1.0129  0.3231 -0.4521
 8272TIP3   OH249010   7.288   3.490   9.831  0.3554  0.7444 -0.1555
 8272TIP3    H149011   7.368   3.485   9.777  0.6946  2.3444  0.1592
 8272TIP3    H249012   7.318   3.527   9.914 -0.2606 -1.1872  1.0004
 8273TIP3   OH249013   5.636   3.782  10.013 -0.0833 -0.4962  0.3810
 8273TIP3    H149014   5.671   3.864   9.977 -1.8129  0.2918  0.3753
 8273TIP3    H249015   5.712   3.725  10.021  0.6463 -0.2141 -3.1043
 8274TIP3   OH249016   8.017   2.924   8.755 -0.6312 -0.1916  0.0825
 8274TIP3    H149017   7.921   2.922   8.754 -0.6927  1.7339 -0.1504
 8274TIP3    H249018   8.039   3.002   8.805  0.8129 -0.0109 -0.7854
 8275TIP3   OH249019   5.129   2.199   8.777 -0.0443  0.4175  0.5715
 8275TIP3    H149020   5.160   2.287   8.799 -0.3151  0.4727  0.7454
 8275TIP3    H249021   5.084   2.209   8.694  0.3791  0.3428  0.3318
 8276TIP3   OH249022   5.061   5.634   9.359  0.2911 -0.2776 -0.3877
 8276TIP3    H149023   5.108   5.714   9.335 -0.0225 -0.3095 -1.1331
 8276TIP3    H249024   5.039   5.646   9.451 -0.9450  1.1006 -0.8293
 8277TIP3   OH249025   4.671   7.903   8.166 -0.0355 -0.2508 -0.2576
 8277TIP3    H149026   4.594   7.886   8.220 -0.6786  0.8974 -0.7734
 8277TIP3    H249027   4.745   7.887   8.224 -0.6995  0.2527  0.7625
 8278TIP3   OH249028   5.574   8.361   9.292  0.0777 -0.2580 -0.5243
 8278TIP3    H149029   5.493   8.312   9.308  0.3891 -0.1386  1.7589
 8278TIP3    H249030   5.550   8.452   9.308  0.7159 -0.2585  0.5285
 8279TIP3   OH249031   0.455   2.812   9.488 -0.4961 -0.5244 -0.4598
 8279TIP3    H149032   0.417   2.727   9.469 -1.0637 -0.6682  1.1170
 8279TIP3    H249033   0.383   2.862   9.527  0.0725  0.3562 -0.5076
 8280TIP3   OH249034   1.084   7.883   9.181 -0.5020 -0.2148 -0.0952
 8280TIP3    H149035   1.031   7.949   9.225 -0.0496  1.2927 -1.6665
 8280TIP3    H249036   1.135   7.932   9.116  0.1814 -2.0594 -1.0575
 8281TIP3   OH249037   2.088   3.774   8.585  0.5793 -0.7613 -0.0286
 8281TIP3    H149038   2.084   3.864   8.552  1.7187 -0.3412  0.9293
 8281TIP3    H249039   2.152   3.777   8.655  0.4607 -2.2905  0.1713
 8282TIP3   OH249040   8.399   3.001   9.987 -0.1826  0.2338  0.2953
 8282TIP3    H149041   8.337   3.022   9.917  0.5890  0.7739 -0.2318
 8282TIP3    H249042   8.352   2.937  10.041 -0.1593 -1.5440 -1.6719
 8283TIP3   OH249043   2.693   1.165   9.232  0.2837  0.0360  0.3204
 8283TIP3    H149044   2.673   1.073   9.248 -3.0524  0.4849 -0.7203
 8283TIP3    H249045   2.732   1.167   9.145 -0.0653 -0.3536  0.1545
 8284TIP3   OH249046   5.422   0.561   8.980  0.0327 -0.2557 -0.1443
 8284TIP3    H149047   5.365   0.609   8.920  0.4129  0.2542 -0.1006
 8284TIP3    H249048   5.393   0.587   9.068 -0.7171 -1.2239 -0.0851
 8285TIP3   OH249049   2.224   3.344   9.022  0.5235  0.5108 -0.1002
 8285TIP3    H149050   2.293   3.377   9.079 -0.6274  2.0881  0.4515
 8285TIP3    H249051   2.181   3.275   9.074  0.2484  1.1034  0.4673
 8286TIP3   OH249052   5.103   4.265   9.664 -0.3022  0.5459  0.3896
 8286TIP3    H149053   5.143   4.313   9.737  3.3823 -0.6271 -0.6691
 8286TIP3    H249054   5.067   4.334   9.607 -0.1427  1.6663  1.5885
 8287TIP3   OH249055   6.040   6.428   8.881 -0.0705 -0.6087  0.4472
 8287TIP3    H149056   5.975   6.497   8.894 -0.8719 -1.6677  2.6277
 8287TIP3    H249057   6.082   6.450   8.798 -0.2574  2.5055  1.0490
 8288TIP3   OH249058   4.204   2.120   9.177  0.2248 -0.2582  0.6568
 8288TIP3    H149059   4.269   2.055   9.204  0.2814 -0.7025 -0.4781
 8288TIP3    H249060   4.246   2.166   9.105 -0.6390 -0.4276  0.0258
 8289TIP3   OH249061   4.033   2.350   8.911 -1.0928 -0.4295  0.0018
 8289TIP3    H149062   4.123   2.359   8.944 -1.6517  1.1002  1.1952
 8289TIP3    H249063   4.038   2.380   8.820 -0.3669 -0.5892 -0.0218
 8290TIP3   OH249064   8.269   1.551   8.366  0.1634  0.9536  0.2042
 8290TIP3    H149065   8.284   1.478   8.425 -0.7009 -0.3137 -1.0719
 8290TIP3    H249066   8.340   1.613   8.385 -0.0009  0.5377  2.4092
 8291TIP3   OH249067   1.923   3.634   7.494 -0.7338  0.4780  0.0579
 8291TIP3    H149068   1.844   3.619   7.442  0.1532 -1.5590 -0.8248
 8291TIP3    H249069   1.908   3.587   7.576  0.3480 -1.8638 -0.9904
 8292TIP3   OH249070   2.776   5.616   8.730 -0.2058  0.3251 -0.8744
 8292TIP3    H149071   2.825   5.551   8.781 -0.1886  2.0202  1.4208
 8292TIP3    H249072   2.775   5.580   8.641  1.3950 -1.8829 -0.1056
 8293TIP3   OH249073   6.541   6.965   9.237 -0.3116 -0.3747 -0.0276
 8293TIP3    H149074   6.533   6.954   9.142 -2.1579  1.2095 -0.1105
 8293TIP3    H249075   6.571   7.055   9.248 -0.7595 -0.3307  0.9030
 8294TIP3   OH249076   4.145   4.243   9.640  0.3165 -0.1981 -0.0896
 8294TIP3    H149077   4.121   4.317   9.584  0.2886  0.4783  0.8009
 8294TIP3    H249078   4.066   4.223   9.689  0.5463 -0.3080  0.2394
 8295TIP3   OH249079   7.865   0.243   9.447  0.1673  0.0110 -0.0123
 8295TIP3    H149080   7.898   0.321   9.402 -1.6947 -0.2662 -2.0393
 8295TIP3    H249081   7.941   0.186   9.455  1.0833  1.1053 -0.5831
 8296TIP3   OH249082   1.259   2.536   8.147 -0.0877 -0.2677  0.3114
 8296TIP3    H149083   1.179   2.578   8.179 -0.5866 -0.6464 -0.3958
 8296TIP3    H249084   1.304   2.505   8.226 -0.5808  0.0501  0.7239
 8297TIP3   OH249085   6.878   0.282   8.053  0.4657 -1.3004  0.6810
 8297TIP3    H149086   6.830   0.273   8.135 -1.5503 -2.1101 -0.4984
 8297TIP3    H249087   6.889   0.376   8.042  0.5087 -1.1695  1.7325
 8298TIP3   OH249088   1.980   4.902   7.765  0.5747 -0.0976  0.2410
 8298TIP3    H149089   2.041   4.901   7.691 -0.2170  2.4521 -0.5469
 8298TIP3    H249090   2.001   4.982   7.813 -0.3758 -0.5853  1.5274
 8299TIP3   OH249091   6.642   4.685   8.418  0.0516 -0.0459  0.2504
 8299TIP3    H149092   6.551   4.655   8.417  0.5251 -1.5363  0.0684
 8299TIP3    H249093   6.669   4.674   8.509 -0.2299  1.3486  0.5248
 8300TIP3   OH249094   6.481   3.526   8.447  0.0192  0.4315 -0.0780
 8300TIP3    H149095   6.518   3.440   8.426 -3.0426 -1.3073  0.8681
 8300TIP3    H249096   6.472   3.569   8.362 -0.1207 -1.0098 -0.8353
 8301TIP3   OH249097   0.297   2.999   9.599  0.6663 -0.0487 -0.0972
 8301TIP3    H149098   0.338   3.083   9.580  0.2727  0.5973  1.6939
 8301TIP3    H249099   0.250   3.013   9.682 -0.2118 -1.7580 -0.2492
 8302TIP3   OH249100   0.894   8.347   9.659 -0.4896 -0.6991 -0.3213
 8302TIP3    H149101   0.967   8.338   9.597 -0.3659 -1.1836 -0.1190
 8302TIP3    H249102   0.821   8.301   9.617 -0.6897 -0.1776 -0.5421
 8303TIP3   OH249103   7.479   6.349   9.351  0.1988 -0.0999  0.0266
 8303TIP3    H149104   7.517   6.435   9.366 -1.9528  1.3892 -2.4068
 8303TIP3    H249105   7.549   6.298   9.312  1.5799  0.3961  1.7374
 8304TIP3   OH249106   1.095   6.097   8.206 -0.2971 -0.4493 -0.2973
 8304TIP3    H149107   1.061   6.040   8.275 -0.5878  0.7605  0.5916
 8304TIP3    H249108   1.028   6.164   8.194  0.7451  0.6710 -0.1304
 8305TIP3   OH249109   8.097   8.205   8.836 -0.1319  0.2409 -0.3253
 8305TIP3    H149110   8.016   8.159   8.813 -0.9512  1.3965  0.1621
 8305TIP3    H249111   8.099   8.201   8.932  1.5960 -1.7659 -0.3932
 8306TIP3   OH249112   7.832   3.998   9.302  0.0656  0.3429  0.1206
 8306TIP3    H149113   7.919   4.034   9.289  0.0298 -0.4306 -3.0393
 8306TIP3    H249114   7.840   3.905   9.282 -1.8691  0.6979 -3.0028
 8307TIP3   OH249115   6.068   8.196   7.980 -0.3695  0.0224 -0.4646
 8307TIP3    H149116   6.064   8.179   7.886  1.9935 -1.5915 -0.3535
 8307TIP3    H249117   6.087   8.289   7.987 -0.5529  0.1540 -1.5693
 8308TIP3   OH249118   3.086   4.646   8.494  0.6240 -0.0161 -1.2075
 8308TIP3    H149119   2.996   4.639   8.526  0.5386 -0.1039 -1.4654
 8308TIP3    H249120   3.138   4.662   8.573  0.6260 -1.8877 -0.7870
 8309TIP3   OH249121   7.126   3.897  10.075  0.2251 -0.4048  0.3921
 8309TIP3    H149122   7.140   3.914  10.168 -0.9587 -0.1970  0.5374
 8309TIP3    H249123   7.078   3.814  10.073 -2.7826  1.2064  0.1791
 8310TIP3   OH249124   1.906   6.063   8.348  0.4986  0.0995 -0.8003
 8310TIP3    H149125   1.852   5.984   8.349  1.1940 -0.4511 -2.5416
 8310TIP3    H249126   1.847   6.133   8.377 -0.2458 -0.9587  0.3452
 8311TIP3   OH249127   1.552   7.740   8.373 -0.7505 -0.4917 -0.4034
 8311TIP3    H149128   1.549   7.661   8.319  1.3186 -0.8512 -0.1110
 8311TIP3    H249129   1.500   7.804   8.326 -1.8847 -1.8145 -1.0145
 8312TIP3   OH249130   5.546   2.424   8.599  0.4310  0.5277 -0.0504
 8312TIP3    H149131   5.534   2.478   8.521 -0.7970  1.0667  0.4747
 8312TIP3    H249132   5.550   2.335   8.566  0.0813  0.7617 -0.7445
 8313TIP3   OH249133   3.429   0.222   8.658  0.0728  0.0226  0.3826
 8313TIP3    H149134   3.503   0.161   8.662 -1.6777 -2.8613 -4.0782
 8313TIP3    H249135   3.358   0.177   8.704 -0.7559 -0.6866 -1.4795
 8314TIP3   OH249136   2.926   2.079   8.633 -0.3373 -0.0260 -0.0413
 8314TIP3    H149137   2.915   2.009   8.697 -0.1588 -1.8983 -1.9681
 8314TIP3    H249138   3.019   2.101   8.639 -0.4637  0.3343  0.8134
 8315TIP3   OH249139   4.729   6.291   8.001 -0.3836 -0.3379  0.0250
 8315TIP3    H149140   4.715   6.228   8.073  0.9650  0.1468  0.7492
 8315TIP3    H249141   4.660   6.271   7.939  0.0104 -2.5914  0.2089
 8316TIP3   OH249142   1.897   1.559   7.908 -0.3287  0.3244  0.2039
 8316TIP3    H149143   1.946   1.491   7.862  2.9176  3.0309 -0.7898
 8316TIP3    H249144   1.816   1.568   7.858  1.0049 -0.0480 -2.2194
 8317TIP3   OH249145   5.801   0.620   8.178  0.1498 -0.0891 -0.0308
 8317TIP3    H149146   5.778   0.704   8.139  1.3762  0.1720 -0.2433
 8317TIP3    H249147   5.776   0.555   8.112  0.8697  0.2471 -0.6490
 8318TIP3   OH249148   4.534   1.146   9.720 -0.6938  0.2041 -0.5646
 8318TIP3    H149149   4.482   1.168   9.797 -2.2066  0.2353 -1.5477
 8318TIP3    H249150   4.553   1.230   9.679  0.6776  0.2366  0.1142
 8319TIP3   OH249151   6.318   1.037   9.072  0.1937 -0.7774  0.3564
 8319TIP3    H149152   6.263   1.011   9.145  0.8204 -0.0759  1.0966
 8319TIP3    H249153   6.407   1.042   9.109  0.3518  0.7036 -0.1418
 8320TIP3   OH249154   5.791   7.213   8.157 -0.2284 -0.2672  0.3007
 8320TIP3    H149155   5.802   7.142   8.094  0.1570  1.5746 -1.8164
 8320TIP3    H249156   5.697   7.225   8.163 -0.2745 -0.5668  0.2122
 8321TIP3   OH249157   7.271   3.573   8.913 -0.1487  0.2838  0.4675
 8321TIP3    H149158   7.196   3.545   8.860  0.6938  0.8131 -1.0475
 8321TIP3    H249159   7.301   3.492   8.956  0.3490 -0.5795 -1.4155
 8322TIP3   OH249160   1.845   7.379   8.455  0.6421 -0.0896  0.4314
 8322TIP3    H149161   1.769   7.322   8.469  1.1869 -1.0531 -0.4423
 8322TIP3    H249162   1.835   7.448   8.520  0.0866 -1.3050  1.6823
 8323TIP3   OH249163   2.223   7.951   7.996  0.2652  0.5286  0.1175
 8323TIP3    H149164   2.296   8.004   7.966  1.3615 -0.4946  0.8953
 8323TIP3    H249165   2.230   7.869   7.948 -2.1612  1.4158 -2.0324
 8324TIP3   OH249166   4.996   2.676   8.584  0.3518 -0.6051  0.3517
 8324TIP3    H149167   5.068   2.630   8.541  1.8943  1.6339  0.3743
 8324TIP3    H249168   4.929   2.609   8.598  1.6521 -2.3602 -1.3868
 8325TIP3   OH249169   5.529   4.687   8.901 -0.6818 -0.8606 -0.0145
 8325TIP3    H149170   5.536   4.665   8.993  2.1383 -0.1238  0.0453
 8325TIP3    H249171   5.575   4.616   8.855 -1.4794 -0.8861 -0.7922
 8326TIP3   OH249172   5.876   4.775   8.586  0.0236  0.0739 -0.1539
 8326TIP3    H149173   5.919   4.765   8.671  0.8869  1.0482 -0.4598
 8326TIP3    H249174   5.838   4.689   8.568  2.0043 -0.9004  0.0386
 8327TIP3   OH249175   2.113   4.131   8.104  0.5181  0.1174 -0.1168
 8327TIP3    H149176   2.086   4.048   8.065 -0.4183 -0.1169  0.9970
 8327TIP3    H249177   2.176   4.167   8.041  2.4379 -2.3029  0.2666
 8328TIP3   OH249178   2.296   4.673   8.037 -0.2760 -0.3599 -0.2668
 8328TIP3    H149179   2.313   4.762   8.006 -2.1085 -0.0285 -0.3987
 8328TIP3    H249180   2.371   4.622   8.004  0.3153  0.9339 -0.9983
 8329TIP3   OH249181   0.391   5.770   8.967  0.5461 -0.3279  0.9571
 8329TIP3    H149182   0.396   5.858   8.930  0.2269 -0.0701  1.5189
 8329TIP3    H249183   0.451   5.718   8.913  0.9482  0.2916  0.7928
 8330TIP3   OH249184   3.597   3.212   7.689 -0.3253  0.2206  0.7956
 8330TIP3    H149185   3.582   3.171   7.604  0.8569 -0.4221  0.8803
 8330TIP3    H249186   3.539   3.287   7.690  0.6018  1.0204 -1.1381
 8331TIP3   OH249187   3.209   6.542   9.456  0.7666  0.4884  0.0509
 8331TIP3    H149188   3.123   6.586   9.460  0.4267  0.1261 -2.0822
 8331TIP3    H249189   3.220   6.503   9.543 -2.0700 -0.9678 -0.1200
 8332TIP3   OH249190   5.851   5.250   8.446 -0.9265 -0.1105 -0.3961
 8332TIP3    H149191   5.849   5.154   8.442 -2.4371 -0.2190  1.2779
 8332TIP3    H249192   5.934   5.274   8.405  0.0134 -2.2081  0.1098
 8333TIP3   OH249193   3.692   2.968   8.055  0.1465  0.2508  0.5732
 8333TIP3    H149194   3.707   2.995   8.146  0.9702 -1.6901  1.0617
 8333TIP3    H249195   3.651   2.882   8.062 -0.4213  0.3733 -0.9087
 8334TIP3   OH249196   4.879   5.758   8.098  0.0312 -0.3608  0.0732
 8334TIP3    H149197   4.810   5.732   8.036 -0.3182 -1.2041  0.7973
 8334TIP3    H249198   4.834   5.767   8.182  0.8177 -1.0348  0.5793
 8335TIP3   OH249199   1.665   5.510   8.831  0.2297  0.0474 -0.0960
 8335TIP3    H149200   1.699   5.587   8.786  1.9489  0.2642  1.4509
 8335TIP3    H249201   1.658   5.443   8.763  0.0536  1.1545 -1.1906
 8336TIP3   OH249202   6.300   5.868  15.242 -0.5313  0.0496 -0.1490
 8336TIP3    H149203   6.374   5.810  15.225 -0.0534  0.8581 -0.9150
 8336TIP3    H249204   6.224   5.809  15.246 -0.3298 -0.5061 -2.6799
 8337TIP3   OH249205   0.262   3.263   8.317 -0.5213 -0.1600 -0.1873
 8337TIP3    H149206   0.345   3.248   8.362  0.3672  1.4504 -1.1814
 8337TIP3    H249207   0.248   3.183   8.266  2.8046  1.0554 -3.5122
 8338TIP3   OH249208   1.395   3.425   8.969 -0.5500 -0.0918  0.7150
 8338TIP3    H149209   1.426   3.336   8.954 -2.1517 -0.5869  0.0496
 8338TIP3    H249210   1.312   3.429   8.921  0.6444  2.5405 -1.3500
 8339TIP3   OH249211   6.189   6.308   7.965 -0.2803 -0.2081  0.5959
 8339TIP3    H149212   6.234   6.340   7.887 -3.6238 -0.5316 -1.6967
 8339TIP3    H249213   6.172   6.386   8.017 -1.0370  0.5912 -0.7967
 8340TIP3   OH249214   6.887   7.090   8.180 -0.3400  0.1870  0.0320
 8340TIP3    H149215   6.967   7.141   8.169 -0.6090  0.2878 -1.6216
 8340TIP3    H249216   6.823   7.153   8.213  0.4341 -0.0804  2.2214
 8341TIP3   OH249217   5.618   5.408   9.786  0.5074  0.2718 -0.2120
 8341TIP3    H149218   5.692   5.374   9.737  0.0765 -0.2936 -0.4857
 8341TIP3    H249219   5.581   5.331   9.829 -0.4909  0.3766 -0.8535
 8342TIP3   OH249220   8.308   6.581   8.320  0.2087 -0.6564  0.0347
 8342TIP3    H149221   8.338   6.657   8.369 -0.6707  1.7341 -2.8863
 8342TIP3    H249222   8.214   6.574   8.341  0.4647 -1.5416  0.9725
 8343TIP3   OH249223   1.458   3.509   9.238  0.0152 -0.0764  0.0813
 8343TIP3    H149224   1.449   3.505   9.142  1.8799  0.9249 -0.1778
 8343TIP3    H249225   1.444   3.418   9.266 -0.7295 -0.3657 -1.1076
 8344TIP3   OH249226   3.670   7.501  10.329  0.5932 -0.3620 -0.1994
 8344TIP3    H149227   3.606   7.429  10.326 -0.1789  0.3235 -0.7347
 8344TIP3    H249228   3.644   7.559  10.257  0.9612  0.6585  0.4690
 8345TIP3   OH249229   4.823   7.041   9.888 -0.3059  0.1234  0.2273
 8345TIP3    H149230   4.757   7.110   9.895 -0.4662  0.5626 -3.5168
 8345TIP3    H249231   4.906   7.086   9.905 -0.6409  0.5667  0.7177
 8346TIP3   OH249232   1.085   0.968   7.748  0.4669 -0.1004 -0.2561
 8346TIP3    H149233   1.032   1.024   7.805  2.5479  0.9047  0.8028
 8346TIP3    H249234   1.147   0.926   7.807  1.1430 -0.8942 -1.4921
 8347TIP3   OH249235   0.111   7.810   8.437 -0.1166 -0.1428 -0.2968
 8347TIP3    H149236   0.027   7.775   8.468 -1.1717  2.2916 -0.1037
 8347TIP3    H249237   0.126   7.767   8.353 -0.8324 -1.6379  0.2944
 8348TIP3   OH249238   8.430   6.363  15.042 -0.4112 -0.2881 -0.0357
 8348TIP3    H149239   8.487   6.353  14.966  1.0281  0.1886  0.9571
 8348TIP3    H249240   8.466   6.304  15.108 -0.8640  0.2528  0.7188
 8349TIP3   OH249241   2.123   4.955   9.864  0.1892  0.0168 -0.1423
 8349TIP3    H149242   2.191   4.900   9.827  1.2828  1.3617 -0.2065
 8349TIP3    H249243   2.064   4.894   9.909  0.9098 -1.2559 -0.8806
 8350TIP3   OH249244   4.245   7.035   8.620  0.4524 -0.0791 -0.0762
 8350TIP3    H149245   4.273   6.945   8.633  0.0762  0.1259  2.8070
 8350TIP3    H249246   4.311   7.087   8.665 -1.5437  0.7559  2.0699
 8351TIP3   OH249247   0.837   7.602   9.314 -0.1233 -0.2436  0.4983
 8351TIP3    H149248   0.783   7.548   9.372 -0.0542  1.4413  2.2353
 8351TIP3    H249249   0.920   7.610   9.360  1.3762 -1.9610 -1.6673
 8352TIP3   OH249250   1.300   7.251   9.410  0.3390 -0.1496 -0.0433
 8352TIP3    H149251   1.255   7.192   9.471  0.0768  1.5705  1.5218
 8352TIP3    H249252   1.385   7.210   9.395  0.2038 -0.8759  1.0683
 8353TIP3   OH249253   7.265   1.271   9.406 -0.3758 -0.6023  0.2936
 8353TIP3    H149254   7.178   1.244   9.436 -0.5836 -0.0749  0.1832
 8353TIP3    H249255   7.249   1.316   9.323  0.0323 -0.7228  0.1445
 8354TIP3   OH249256   0.571   4.828   9.103  0.3660  0.5481 -0.0992
 8354TIP3    H149257   0.661   4.859   9.099  0.2697  0.8939  0.3546
 8354TIP3    H249258   0.551   4.823   9.197  0.8587 -2.2456 -0.0332
 8355TIP3   OH249259   7.968   4.234   8.003 -0.3963  0.1952 -0.5169
 8355TIP3    H149260   7.927   4.319   7.990 -0.5423 -0.0978 -2.1672
 8355TIP3    H249261   8.019   4.244   8.083 -0.9053  1.6322 -0.3436
 8356TIP3   OH249262   3.828   8.285   8.096 -0.2848 -0.0369  0.2690
 8356TIP3    H149263   3.741   8.300   8.131 -0.0216 -0.5563  1.1975
 8356TIP3    H249264   3.887   8.330   8.156  0.1067  0.0480 -0.1700
 8357TIP3   OH249265   6.678   4.884   9.648 -0.6839 -0.2836 -0.4003
 8357TIP3    H149266   6.761   4.844   9.623 -0.8330 -1.1467  0.4089
 8357TIP3    H249267   6.683   4.973   9.614  0.8135 -0.1318  0.1264
 8358TIP3   OH249268   7.545   2.030   9.653 -0.1924 -0.1557  0.2608
 8358TIP3    H149269   7.583   2.093   9.592  0.7140  0.2940  1.2561
 8358TIP3    H249270   7.620   1.990   9.696 -0.7208  1.9676  3.5035
 8359TIP3   OH249271   7.599   3.311  10.054 -0.1957  0.3359  0.4432
 8359TIP3    H149272   7.550   3.388  10.025 -0.2462  0.2474  0.2923
 8359TIP3    H249273   7.691   3.340  10.051 -0.1306  0.0695 -0.6349
 8360TIP3   OH249274   1.592   0.525   9.425  0.0317 -0.1717  0.6832
 8360TIP3    H149275   1.582   0.596   9.361 -1.4650 -0.5545  0.4497
 8360TIP3    H249276   1.578   0.567   9.510  1.0740  0.1541  0.7123
 8361TIP3   OH249277   2.342   2.053   7.516  0.6007 -0.3676 -0.0820
 8361TIP3    H149278   2.399   2.011   7.452  0.2552  0.1017 -0.7189
 8361TIP3    H249279   2.376   2.142   7.524 -1.3885  0.7296 -2.3161
 8362TIP3   OH249280   3.061   5.895   8.893 -0.2377 -0.6918  0.1288
 8362TIP3    H149281   3.031   5.928   8.978  0.2088 -1.5394  0.6322
 8362TIP3    H249282   3.126   5.829   8.915  2.1032  1.1176 -0.9091
 8363TIP3   OH249283   3.388   2.972   7.944 -0.5869  0.0914 -0.5807
 8363TIP3    H149284   3.342   3.046   7.904  0.6977  1.9129  1.1135
 8363TIP3    H249285   3.393   2.994   8.037  1.1282 -1.4391 -0.2448
 8364TIP3   OH249286   6.990   4.190   8.280 -0.0092  0.2093 -0.1362
 8364TIP3    H149287   7.020   4.199   8.189  0.8598  0.2032  0.1395
 8364TIP3    H249288   6.903   4.228   8.280  0.1096  0.5121 -0.9061
 8365TIP3   OH249289   7.543   2.877   9.047 -1.0713  1.0228  0.0642
 8365TIP3    H149290   7.606   2.946   9.028 -1.2333  0.8957 -0.9399
 8365TIP3    H249291   7.563   2.807   8.985 -0.9940  0.2070  0.9829
 8366TIP3   OH249292   7.258   7.546   8.192  0.2318  0.6239  0.5084
 8366TIP3    H149293   7.244   7.561   8.285 -0.3107  2.3722  0.1891
 8366TIP3    H249294   7.221   7.623   8.150  0.8973  0.0926 -1.1282
 8367TIP3   OH249295   5.829   0.017   8.812 -0.1728 -0.3113 -0.2953
 8367TIP3    H149296   5.820  -0.077   8.797 -0.6037 -0.4577  0.7550
 8367TIP3    H249297   5.839   0.055   8.725  0.7820 -1.4043 -0.6780
 8368TIP3   OH249298   7.225   1.272   8.921 -0.2697 -0.3285  0.4714
 8368TIP3    H149299   7.135   1.240   8.913 -1.3279  1.8460  2.5685
 8368TIP3    H249300   7.251   1.294   8.832 -2.4573  0.5312 -0.0068
 8369TIP3   OH249301   0.586   0.543   8.329 -0.7790  0.1895 -0.0672
 8369TIP3    H149302   0.606   0.624   8.376 -1.9695  0.7318 -0.4496
 8369TIP3    H249303   0.669   0.516   8.290 -0.0911  0.5220  1.1237
 8370TIP3   OH249304   5.768   5.236   9.142 -0.3265 -0.4513  0.5068
 8370TIP3    H149305   5.780   5.244   9.048  1.1028  1.3671  0.7780
 8370TIP3    H249306   5.805   5.150   9.164  0.8408 -0.2155 -0.4154
 8371TIP3   OH249307   4.632   0.119   9.310 -0.3658  0.2588 -0.0137
 8371TIP3    H149308   4.689   0.043   9.325  0.4243  0.8335 -0.0221
 8371TIP3    H249309   4.637   0.134   9.216  1.7288  1.9819  0.2866
 8372TIP3   OH249310   3.229   6.082   9.386  0.1453 -0.1436  0.0567
 8372TIP3    H149311   3.266   6.059   9.471 -2.3521 -1.7408  0.8194
 8372TIP3    H249312   3.144   6.120   9.406  1.1593  3.4155 -1.6105
 8373TIP3   OH249313   6.867   6.715   8.416  0.0718  1.0401 -0.5558
 8373TIP3    H149314   6.893   6.713   8.508 -0.3888  1.6824 -0.4061
 8373TIP3    H249315   6.860   6.623   8.391 -1.4444  0.8220  0.5261
 8374TIP3   OH249316   0.940   1.517   7.867 -0.3020 -0.3628 -0.1304
 8374TIP3    H149317   0.920   1.550   7.779  3.5995 -1.3818 -1.6159
 8374TIP3    H249318   0.921   1.423   7.862 -0.9731 -0.2629  0.4605
 8375TIP3   OH249319   7.244   1.740   8.335 -0.4054  0.3683 -0.5675
 8375TIP3    H149320   7.229   1.779   8.249  1.4205 -0.6491 -1.3996
 8375TIP3    H249321   7.336   1.714   8.334 -0.7262 -1.0148  1.1604
 8376TIP3   OH249322   0.472   6.232   7.955  0.1894  0.0821 -0.5820
 8376TIP3    H149323   0.430   6.149   7.933  1.1424 -0.7461  0.6547
 8376TIP3    H249324   0.430   6.260   8.036 -1.1117  1.5643 -1.6897
 8377TIP3   OH249325   4.615   0.875   8.903 -0.1257 -0.0217  0.2025
 8377TIP3    H149326   4.653   0.957   8.933 -0.4167  0.3872 -0.5236
 8377TIP3    H249327   4.535   0.865   8.955 -0.0186  0.0773  0.3892
 8378TIP3   OH249328   3.565   8.283  10.056 -0.0758 -0.0943 -0.3438
 8378TIP3    H149329   3.540   8.195  10.029 -0.8718 -0.0947  0.3718
 8378TIP3    H249330   3.641   8.270  10.113 -1.7226 -0.5807  1.8803
 8379TIP3   OH249331   4.855   4.143   7.785 -0.2026 -0.3708 -0.2149
 8379TIP3    H149332   4.852   4.173   7.694 -1.8513 -0.8679 -0.3560
 8379TIP3    H249333   4.800   4.205   7.833  0.1505 -0.4752  0.3272
 8380TIP3   OH249334   3.405   1.837   9.089 -0.5189 -0.0896  0.1926
 8380TIP3    H149335   3.470   1.873   9.149 -0.4501  0.0016  0.0632
 8380TIP3    H249336   3.385   1.750   9.125  0.3082 -0.4676 -0.2380
 8381TIP3   OH249337   0.546   3.682   8.733  0.1592 -0.0454 -0.6531
 8381TIP3    H149338   0.466   3.725   8.706  0.1519 -0.4384 -1.2843
 8381TIP3    H249339   0.521   3.590   8.747 -0.0319  0.2918  1.5678
 8382TIP3   OH249340   1.855   1.609   8.475 -0.3252  0.1059  0.5331
 8382TIP3    H149341   1.865   1.635   8.384 -0.0008  1.7975  1.0119
 8382TIP3    H249342   1.829   1.517   8.472  1.4868 -0.4020 -1.2001
 8383TIP3   OH249343   6.462   8.433   8.654  0.1893 -0.0495 -0.9199
 8383TIP3    H149344   6.401   8.414   8.725  0.6864 -0.5886 -0.6269
 8383TIP3    H249345   6.538   8.377   8.671  0.0930 -0.6098 -2.1737
 8384TIP3   OH249346   0.410   7.269   9.542  0.1536  0.3318  0.2653
 8384TIP3    H149347   0.448   7.183   9.525 -0.1437  0.0899  0.7998
 8384TIP3    H249348   0.425   7.318   9.461  1.1426  0.0760  0.2719
 8385TIP3   OH249349   3.387   2.918   9.240  0.5148 -0.4657  0.2797
 8385TIP3    H149350   3.317   2.877   9.291 -1.0368  1.2160 -0.4007
 8385TIP3    H249351   3.401   3.003   9.281 -0.2965  0.6436 -1.5928
 8386TIP3   OH249352   7.546   4.968   9.072 -0.1106  0.1921  0.1684
 8386TIP3    H149353   7.509   4.934   9.153  0.3314  0.0969  0.3326
 8386TIP3    H249354   7.492   4.929   9.003  0.8134 -1.4543  0.3084
 8387TIP3   OH249355   3.725   8.413   8.497  0.3275 -0.1909 -0.2469
 8387TIP3    H149356   3.744   8.319   8.501 -1.8808 -0.6518  0.8148
 8387TIP3    H249357   3.715   8.440   8.588  1.5222  1.2545 -0.4982
 8388TIP3   OH249358   3.216   0.521   8.912  0.0325 -0.6644  0.4128
 8388TIP3    H149359   3.165   0.446   8.883  1.6324 -1.9814  0.8089
 8388TIP3    H249360   3.194   0.591   8.850  0.1415 -2.1123 -1.3499
 8389TIP3   OH249361   2.869   6.698   9.590  0.6971 -0.5191 -0.7395
 8389TIP3    H149362   2.834   6.764   9.530  1.3581 -1.7815 -2.6037
 8389TIP3    H249363   2.874   6.742   9.675  0.6122  1.6348 -1.8007
 8390TIP3   OH249364   0.248   2.660   7.648 -0.4211 -0.0603  0.3082
 8390TIP3    H149365   0.321   2.685   7.705 -1.3512  0.0777  1.4880
 8390TIP3    H249366   0.177   2.638   7.709 -1.3309 -0.2886 -0.8016
 8391TIP3   OH249367   6.651   0.878   8.775 -0.0719  0.6318  0.4475
 8391TIP3    H149368   6.590   0.831   8.718 -1.3035  1.6686  0.8736
 8391TIP3    H249369   6.685   0.811   8.834  0.3983 -0.2531 -0.7790
 8392TIP3   OH249370   7.102   7.133   8.783 -0.1079  0.1810  0.3190
 8392TIP3    H149371   7.011   7.105   8.773 -0.3492  0.1350  2.1993
 8392TIP3    H249372   7.132   7.090   8.863  1.9138 -0.5815 -0.7703
 8393TIP3   OH249373   1.891   1.138   8.348 -0.0620 -1.0185  0.6205
 8393TIP3    H149374   1.979   1.107   8.328  0.1596 -0.8212  1.2985
 8393TIP3    H249375   1.834   1.082   8.295  0.5349 -0.2428 -0.9062
 8394TIP3   OH249376   6.135   6.311  10.430  0.3774  0.3007  0.0834
 8394TIP3    H149377   6.119   6.378  10.496 -0.0118 -0.1619  0.4665
 8394TIP3    H249378   6.049   6.273  10.413  0.3527  0.8927 -1.2227
 8395TIP3   OH249379   0.707   8.385   9.106  0.0338 -0.5532 -0.6078
 8395TIP3    H149380   0.704   8.295   9.073  0.1739  0.1850 -2.8009
 8395TIP3    H249381   0.621   8.400   9.146 -0.0953 -1.5480 -0.4942
 8396TIP3   OH249382   1.009   2.660   7.636 -0.1553  0.1894  0.4490
 8396TIP3    H149383   1.032   2.570   7.659  2.3908  0.6244 -0.1056
 8396TIP3    H249384   0.934   2.652   7.577 -0.0868 -1.5464  0.5586
 8397TIP3   OH249385   7.091   4.217   9.737  0.5664  0.5831  0.1253
 8397TIP3    H149386   7.142   4.256   9.666 -0.0013  1.3256  0.1194
 8397TIP3    H249387   7.156   4.172   9.791  1.4757  2.8699  1.0410
 8398TIP3   OH249388   0.615   4.876   7.758 -0.7243  0.9774  0.2399
 8398TIP3    H149389   0.560   4.805   7.792 -1.1259  2.1764  2.2863
 8398TIP3    H249390   0.611   4.866   7.663 -0.9979 -1.5284  0.4475
 8399TIP3   OH249391   7.837   0.020   9.744  0.2241 -0.2382  0.5027
 8399TIP3    H149392   7.852  -0.066   9.705  0.2008 -0.8366  1.7706
 8399TIP3    H249393   7.743   0.024   9.759  0.1155  0.3387 -0.2619
 8400TIP3   OH249394   6.221   7.594   8.255  0.0967  0.0586  0.4062
 8400TIP3    H149395   6.291   7.600   8.320 -0.0001  0.4045  0.4778
 8400TIP3    H249396   6.257   7.634   8.176 -0.1220  0.4949  0.5283
 8401TIP3   OH249397   1.207   7.687   9.324  0.0823  0.4327  0.4541
 8401TIP3    H149398   1.150   7.663   9.397  0.2690  0.2485  0.5404
 8401TIP3    H249399   1.177   7.774   9.298  0.6357  0.9179  1.3790
 8402TIP3   OH249400   0.529   7.994   9.323  0.1888  0.5130 -0.2287
 8402TIP3    H149401   0.596   7.929   9.300  0.1935 -0.0038  1.1156
 8402TIP3    H249402   0.577   8.062   9.370  0.4389  2.3052 -2.8777
 8403TIP3   OH249403   0.663   4.333   9.196  0.3115 -0.2887  0.0694
 8403TIP3    H149404   0.601   4.394   9.235  1.2438 -0.7224  2.4160
 8403TIP3    H249405   0.617   4.249   9.198  0.5034 -0.3828  0.6308
 8404TIP3   OH249406   2.840   4.589   7.388  0.5489  0.3159 -0.0311
 8404TIP3    H149407   2.831   4.535   7.310  2.8996  1.3689 -1.1457
 8404TIP3    H249408   2.924   4.562   7.426  0.5524  1.4036  0.7977
 8405TIP3   OH249409   4.513   7.983   8.551  0.1632  0.0386 -0.6829
 8405TIP3    H149410   4.609   7.993   8.550  0.0706  0.9851 -1.2982
 8405TIP3    H249411   4.482   8.064   8.591 -0.3815 -0.3320 -0.3493
 8406TIP3   OH249412   3.812   4.633   8.264 -0.2464  0.4300  0.1731
 8406TIP3    H149413   3.862   4.710   8.292 -0.3739  1.3984 -1.9987
 8406TIP3    H249414   3.830   4.627   8.170 -1.8665 -0.9894 -0.0794
 8407TIP3   OH249415   3.868   7.543   8.982  0.0286 -0.5852 -0.8135
 8407TIP3    H149416   3.903   7.618   9.028 -0.1201 -1.6954  1.2319
 8407TIP3    H249417   3.918   7.539   8.900  1.5452  0.4494  0.0169
 8408TIP3   OH249418   7.929   0.559   8.785  0.2759  0.9309  0.3765
 8408TIP3    H149419   7.928   0.556   8.881 -0.3833 -1.1907  0.3510
 8408TIP3    H249420   8.020   0.538   8.762  0.0416 -0.3063  0.5342
 8409TIP3   OH249421   0.872   6.322   8.464  0.1074  0.0885 -0.1118
 8409TIP3    H149422   0.868   6.411   8.498  0.2774 -0.2628  0.8647
 8409TIP3    H249423   0.787   6.284   8.485  0.8072 -0.6721  1.5138
 8410TIP3   OH249424   5.041   5.290   9.963 -0.5022  0.0637 -0.4443
 8410TIP3    H149425   5.122   5.265   9.919 -0.9265 -0.7552 -0.7933
 8410TIP3    H249426   4.974   5.235   9.922 -0.9639 -0.4986  1.0027
 8411TIP3   OH249427   6.826   8.163   8.977  0.2276 -0.0556  0.1993
 8411TIP3    H149428   6.745   8.149   8.927 -0.9319  1.0717  1.6632
 8411TIP3    H249429   6.880   8.219   8.922 -0.0556 -0.6790 -0.7229
 8412TIP3   OH249430   0.186   7.295   8.090  0.0678  0.3008 -0.0159
 8412TIP3    H149431   0.109   7.256   8.048  0.3837 -0.4168  0.0382
 8412TIP3    H249432   0.232   7.338   8.018  0.3522 -0.5069 -0.3376
 8413TIP3   OH249433   5.402   3.677   7.543  0.7390  0.1609  0.3692
 8413TIP3    H149434   5.367   3.589   7.559 -2.8580  1.0897 -1.3400
 8413TIP3    H249435   5.379   3.726   7.622  1.8192 -0.1077  0.8795
 8414TIP3   OH249436   4.198   1.028   9.024  0.3307 -0.6843 -0.6207
 8414TIP3    H149437   4.144   1.024   8.945 -1.0865 -1.1744  0.3342
 8414TIP3    H249438   4.135   1.028   9.097  1.5844 -0.0487  0.5200
 8415TIP3   OH249439   6.611   3.536   9.837  0.1384 -0.1690 -0.2137
 8415TIP3    H149440   6.648   3.459   9.881  0.4773 -0.4608 -0.9878
 8415TIP3    H249441   6.584   3.594   9.908  0.5676 -0.6803  0.3766
 8416TIP3   OH249442   4.208   0.740   8.683 -0.4967  0.3104  0.3932
 8416TIP3    H149443   4.266   0.815   8.671  0.6863 -0.4509  1.1612
 8416TIP3    H249444   4.120   0.777   8.680  0.0709  1.8215  1.4204
 8417TIP3   OH249445   3.656   0.380   9.282 -0.2137  0.1841 -0.1197
 8417TIP3    H149446   3.699   0.320   9.342  0.7284  0.3048 -0.6511
 8417TIP3    H249447   3.589   0.327   9.239 -0.7117  0.0284  0.8134
 8418TIP3   OH249448   6.328   5.488   7.991  0.3791  0.2690 -0.7471
 8418TIP3    H149449   6.407   5.433   7.990  1.2125  1.4231 -1.3507
 8418TIP3    H249450   6.273   5.450   7.923  0.6326 -0.2511 -0.6717
 8419TIP3   OH249451   5.073   4.073   8.464  0.3933 -0.8027  0.4606
 8419TIP3    H149452   5.158   4.085   8.506  0.5290 -1.7224  0.4746
 8419TIP3    H249453   5.036   3.996   8.507 -0.0530 -0.9447 -0.1650
 8420TIP3   OH249454   3.293   1.860   8.095  0.5969  0.8256  0.4255
 8420TIP3    H149455   3.265   1.844   8.005  0.5234 -0.9823  0.7406
 8420TIP3    H249456   3.272   1.779   8.142  1.1330  1.5319  1.9544
 8421TIP3   OH249457   5.842   4.723   7.933 -0.3946  0.4175 -0.2366
 8421TIP3    H149458   5.829   4.653   7.870 -0.1282  0.6191 -0.5188
 8421TIP3    H249459   5.781   4.703   8.004  0.2665 -0.5507  0.0740
 8422TIP3   OH249460   1.861   8.395   8.073 -0.0169 -0.3369 -0.0738
 8422TIP3    H149461   1.864   8.409   8.168 -0.7309  0.0451 -0.0931
 8422TIP3    H249462   1.952   8.387   8.046  0.3718  1.9012  0.3273
 8423TIP3   OH249463   8.131   4.621   8.071  0.0289 -0.3701 -0.1758
 8423TIP3    H149464   8.156   4.653   8.158 -0.7342  2.9034 -1.0431
 8423TIP3    H249465   8.049   4.574   8.085  0.0744 -0.1492  0.9220
 8424TIP3   OH249466   3.797   2.489   9.186 -0.7914 -0.3813  0.6151
 8424TIP3    H149467   3.846   2.553   9.236 -0.4279 -0.9274  0.9626
 8424TIP3    H249468   3.713   2.532   9.167  0.3111  1.1283 -1.2302
 8425TIP3   OH249469   8.336   0.646   8.614  0.1145  0.1263 -0.4970
 8425TIP3    H149470   8.253   0.673   8.575 -0.4034  0.5971  0.8657
 8425TIP3    H249471   8.384   0.727   8.627  1.1508 -0.1996 -1.9663
 8426TIP3   OH249472   0.500   7.017   9.436 -0.1012  0.2943 -0.1981
 8426TIP3    H149473   0.406   7.015   9.420  0.0561  1.4278 -1.3663
 8426TIP3    H249474   0.540   7.007   9.350  0.8692 -0.2971  0.2908
 8427TIP3   OH249475   4.302   0.330   9.145 -0.2360  0.0520 -0.0028
 8427TIP3    H149476   4.210   0.313   9.128 -0.2173 -0.6399  0.5235
 8427TIP3    H249477   4.315   0.422   9.121 -1.3594  0.5385  1.1506
 8428TIP3   OH249478   1.137   7.879   8.373  0.2279 -0.1128 -0.1376
 8428TIP3    H149479   1.124   7.873   8.467  0.7757  0.2240 -0.0329
 8428TIP3    H249480   1.049   7.880   8.336 -0.0572  1.6671  0.4989
 8429TIP3   OH249481   7.464   6.351   9.770  0.2306 -0.1601 -0.5595
 8429TIP3    H149482   7.537   6.401   9.806  1.1827 -0.7300 -1.6369
 8429TIP3    H249483   7.450   6.280   9.833  0.1293  0.3581  0.0078
 8430TIP3   OH249484   3.256   1.592   7.980  0.6144  0.3533  0.4002
 8430TIP3    H149485   3.178   1.536   7.975  0.6134  0.4535 -3.3642
 8430TIP3    H249486   3.328   1.531   7.993  0.3242 -0.2347 -0.6731
 8431TIP3   OH249487   1.614   3.183   8.243  0.4285 -0.3905 -0.2662
 8431TIP3    H149488   1.537   3.225   8.280  1.1838  0.3041  0.5708
 8431TIP3    H249489   1.582   3.139   8.164 -0.6864  0.4386 -0.3024
 8432TIP3   OH249490   3.337   6.708   9.029 -0.9313 -0.5455 -0.1980
 8432TIP3    H149491   3.340   6.730   8.936  2.8512  0.2515 -0.0650
 8432TIP3    H249492   3.305   6.618   9.032 -0.8863 -0.6780 -2.3130
 8433TIP3   OH249493   6.072   1.042   7.851 -0.8101  0.0588  0.0890
 8433TIP3    H149494   6.003   1.104   7.874 -0.1459  0.8252  0.0500
 8433TIP3    H249495   6.053   1.017   7.761  0.0550  1.8007 -0.6288
 8434TIP3   OH249496   4.661   6.112   9.017 -0.3420  0.0746  0.8593
 8434TIP3    H149497   4.717   6.137   9.090 -1.0025  0.8120  1.1246
 8434TIP3    H249498   4.599   6.050   9.054  1.1411 -1.8482  0.2565
 8435TIP3   OH249499   0.211   1.120   7.829 -0.0598  0.1506 -0.4174
 8435TIP3    H149500   0.177   1.042   7.785 -0.6861  0.9655 -1.4071
 8435TIP3    H249501   0.172   1.116   7.916 -0.6020 -0.3166 -0.6681
 8436TIP3   OH249502   6.731   7.146   7.878 -0.7363 -0.0475 -0.1719
 8436TIP3    H149503   6.738   7.052   7.892 -1.4153  0.2759  3.1172
 8436TIP3    H249504   6.766   7.185   7.958 -1.1144  2.5034 -1.1421
 8437TIP3   OH249505   2.885   1.401   8.759 -0.2936 -0.5982 -0.1433
 8437TIP3    H149506   2.880   1.481   8.811  0.4399 -0.4699 -0.2614
 8437TIP3    H249507   2.931   1.427   8.680  0.5008 -1.2715  0.0891
 8438TIP3   OH249508   4.346   5.670  10.161 -0.2528 -0.3895 -0.4725
 8438TIP3    H149509   4.361   5.576  10.151 -0.2784 -0.3180 -1.2431
 8438TIP3    H249510   4.256   5.683  10.130 -0.5946 -0.2421  0.5266
 8439TIP3   OH249511   0.384   0.103   7.978  0.2701 -0.6045 -0.3282
 8439TIP3    H149512   0.446   0.104   8.050 -0.7975 -0.2492  0.6185
 8439TIP3    H249513   0.369   0.195   7.958 -2.9432 -0.3799  2.2022
 8440TIP3   OH249514   0.327   3.105   8.066  0.3022  0.1646 -0.0904
 8440TIP3    H149515   0.235   3.106   8.040 -0.5521  4.1903  2.2726
 8440TIP3    H249516   0.368   3.175   8.015  1.7643 -0.6336 -0.0758
 8441TIP3   OH249517   1.797   3.045   8.391 -0.1537 -0.4741  0.3086
 8441TIP3    H149518   1.739   3.101   8.339  1.0931  0.6867  0.1261
 8441TIP3    H249519   1.752   3.036   8.475 -1.4095 -1.0287 -0.3958
 8442TIP3   OH249520   0.605   1.250   9.673 -0.1319  0.1456 -0.0330
 8442TIP3    H149521   0.545   1.322   9.654 -0.0980  0.5699  1.4019
 8442TIP3    H249522   0.692   1.290   9.673  0.3496 -0.6203 -2.9782
 8443TIP3   OH249523   1.994   4.245   9.181 -0.4047 -0.0295 -0.0538
 8443TIP3    H149524   1.962   4.157   9.203  3.2098 -1.7659 -0.9550
 8443TIP3    H249525   1.929   4.280   9.121 -1.0069 -3.0068 -1.3018
 8444TIP3   OH249526   0.347   6.202   8.233 -0.0835  0.2688 -0.0817
 8444TIP3    H149527   0.284   6.163   8.173 -1.8786 -0.1604  1.9754
 8444TIP3    H249528   0.309   6.287   8.255  1.6698  1.4098 -1.2035
 8445TIP3   OH249529   8.407   2.930   9.181 -0.1518  0.9424  0.0390
 8445TIP3    H149530   8.312   2.918   9.185  0.1514 -2.2299  0.5616
 8445TIP3    H249531   8.425   2.944   9.088 -0.8886 -2.2870 -0.7011
 8446TIP3   OH249532   1.955   2.254   8.660 -0.0053 -0.3334 -0.0002
 8446TIP3    H149533   2.042   2.233   8.626  0.0940 -0.7697  0.5207
 8446TIP3    H249534   1.903   2.272   8.582  0.5179 -0.1953 -0.3223
 8447TIP3   OH249535   6.547   6.084  10.455  0.0526  0.7342 -0.4118
 8447TIP3    H149536   6.570   5.991  10.450 -0.9626  0.4619 -0.3056
 8447TIP3    H249537   6.452   6.085  10.464 -0.0403  1.8143 -1.2612
 8448TIP3   OH249538   5.842   1.157   9.390 -0.2041 -0.0634 -0.3617
 8448TIP3    H149539   5.862   1.104   9.314  1.9549  0.2653 -0.0748
 8448TIP3    H249540   5.872   1.245   9.367 -1.3418  0.4889  0.1484
 8449TIP3   OH249541   5.702   0.229   9.333 -0.3531 -0.1588  0.8949
 8449TIP3    H149542   5.707   0.185   9.248 -0.9403 -2.0157  1.7722
 8449TIP3    H249543   5.682   0.320   9.311  3.9118  0.5222 -1.1332
 8450TIP3   OH249544   5.539   0.496   8.170  0.0100  0.2826 -0.2312
 8450TIP3    H149545   5.607   0.475   8.106 -1.9165 -1.1577 -1.9448
 8450TIP3    H249546   5.547   0.590   8.184  0.3168  0.7151 -2.8851
 8451TIP3   OH249547   2.273   5.377   8.069  0.1488  0.0840  0.1104
 8451TIP3    H149548   2.331   5.351   8.140 -1.6732 -2.3308  0.8394
 8451TIP3    H249549   2.210   5.437   8.109 -1.1775 -1.6617  0.7235
 8452TIP3   OH249550   0.883   5.068   9.266 -0.0858  0.1858 -0.4136
 8452TIP3    H149551   0.889   4.985   9.314 -2.3040  0.5990  0.7045
 8452TIP3    H249552   0.798   5.104   9.292  0.0456  1.9599 -2.2688
 8453TIP3   OH249553   1.247   4.434   8.130  0.3786 -0.0422  0.3002
 8453TIP3    H149554   1.241   4.338   8.129  1.4362 -0.1277  0.6690
 8453TIP3    H249555   1.231   4.458   8.222  2.5475 -0.0866  0.7496
 8454TIP3   OH249556   7.508   5.255   8.853  0.0653  0.2362 -0.4205
 8454TIP3    H149557   7.484   5.340   8.890  2.4310  1.1475 -0.8226
 8454TIP3    H249558   7.513   5.196   8.928  2.2997  1.4478  0.4547
 8455TIP3   OH249559   7.233   7.408   9.437 -0.3326 -0.3525 -0.0021
 8455TIP3    H149560   7.300   7.476   9.438  1.0720 -1.5409  3.8618
 8455TIP3    H249561   7.161   7.443   9.490 -0.9284 -0.7269 -0.5416
 8456TIP3   OH249562   3.145   0.872   8.794 -0.2630 -0.1834 -0.4670
 8456TIP3    H149563   3.058   0.891   8.761 -0.0517 -0.3559 -1.1511
 8456TIP3    H249564   3.194   0.843   8.717  0.1115 -1.0661  0.0876
 8457TIP3   OH249565   8.361   3.713   9.303 -0.1537  0.5436  0.0448
 8457TIP3    H149566   8.309   3.660   9.363  0.0328 -1.7367 -1.6413
 8457TIP3    H249567   8.414   3.769   9.359  1.1270 -2.4888  2.1259
 8458TIP3   OH249568   1.155   6.132   7.925 -0.3945  0.0640 -0.0183
 8458TIP3    H149569   1.229   6.075   7.904  0.4459  0.5255  1.5039
 8458TIP3    H249570   1.123   6.100   8.009 -2.9898 -1.1213 -1.3367
 8459TIP3   OH249571   7.754   5.673   8.412 -0.3939 -0.4782  0.2962
 8459TIP3    H149572   7.699   5.752   8.409 -0.2298 -0.3228  1.0454
 8459TIP3    H249573   7.754   5.640   8.323  0.2624  0.8711 -0.2294
 8460TIP3   OH249574   2.490   8.230   9.814 -0.4609 -0.6531  0.4834
 8460TIP3    H149575   2.539   8.227   9.731 -1.5659  1.5717 -0.3245
 8460TIP3    H249576   2.514   8.149   9.859  0.6850 -1.6159 -1.7213
 8461TIP3   OH249577   5.444   6.245   9.000  0.0286  0.1320  0.5907
 8461TIP3    H149578   5.442   6.183   8.927  0.5381  0.0531  0.6425
 8461TIP3    H249579   5.469   6.328   8.960  0.1573  0.1224  0.6514
 8462TIP3   OH249580   5.006   6.718   8.553 -0.3364  0.2900 -0.6347
 8462TIP3    H149581   5.049   6.677   8.627 -2.5519 -0.3262  0.3912
 8462TIP3    H249582   5.018   6.656   8.481 -1.4348 -1.0141  0.2422
 8463TIP3   OH249583   7.448   7.350   8.205 -0.4693  0.0833 -0.2359
 8463TIP3    H149584   7.398   7.427   8.179  0.9588  1.8643  1.8473
 8463TIP3    H249585   7.456   7.358   8.301  0.4882 -2.1888 -0.0631
 8464TIP3   OH249586   8.247   1.274   7.585 -0.6000  0.0597 -0.1045
 8464TIP3    H149587   8.184   1.345   7.570  0.1711  0.9579  0.7579
 8464TIP3    H249588   8.326   1.318   7.616  0.4326 -1.0572 -1.0327
 8465TIP3   OH249589   0.960   6.304   7.779 -0.2904 -0.1240  0.1091
 8465TIP3    H149590   0.998   6.388   7.755 -0.1850 -0.4401 -0.8514
 8465TIP3    H249591   1.034   6.250   7.806 -0.3188 -0.0397  0.3663
 8466TIP3   OH249592   7.877   3.370   9.094  0.3593  0.0742 -0.9870
 8466TIP3    H149593   7.839   3.290   9.132  0.9758  1.0502  2.0083
 8466TIP3    H249594   7.802   3.419   9.060 -0.4128 -0.4297 -0.0677
 8467TIP3   OH249595   2.182   8.187   8.619 -0.0515  0.7093  0.7361
 8467TIP3    H149596   2.155   8.102   8.654  0.3049  1.0310  1.8379
 8467TIP3    H249597   2.209   8.169   8.529 -1.3728 -0.0757  0.4840
 8468TIP3   OH249598   7.696   7.845   8.230 -0.0550 -0.1016  0.4181
 8468TIP3    H149599   7.744   7.927   8.215 -0.1521 -0.4089 -1.9025
 8468TIP3    H249600   7.614   7.857   8.183 -0.5316 -1.1301  0.9692
 8469TIP3   OH249601   2.529   2.109   7.945 -0.2687 -0.3172 -0.2144
 8469TIP3    H149602   2.462   2.084   7.882  0.8672 -2.6060 -0.6094
 8469TIP3    H249603   2.594   2.157   7.893  0.5931 -2.0702 -0.8346
 8470TIP3   OH249604   6.818   6.909   9.872  0.1146 -0.1478 -0.0649
 8470TIP3    H149605   6.871   6.843   9.828 -0.3468  0.2518 -1.2616
 8470TIP3    H249606   6.737   6.912   9.822 -0.0194  1.0543  0.1908
 8471TIP3   OH249607   3.180   4.432   9.333  0.7075  0.0839 -0.4033
 8471TIP3    H149608   3.152   4.347   9.369  1.7589 -0.1093  0.0136
 8471TIP3    H249609   3.271   4.417   9.306  1.5509  1.5613  1.4120
 8472TIP3   OH249610   0.953   6.587   8.545 -0.1030  0.2572 -0.6681
 8472TIP3    H149611   0.993   6.615   8.463  0.8972  1.8591  0.3023
 8472TIP3    H249612   0.917   6.667   8.583 -0.5180 -0.4401  0.4773
 8473TIP3   OH249613   5.145   3.679   8.032  0.3527  0.2479  0.0741
 8473TIP3    H149614   5.211   3.611   8.015  0.4230 -0.1456  1.7223
 8473TIP3    H249615   5.169   3.751   7.973  1.8587 -0.1516  0.1396
 8474TIP3   OH249616   7.076   6.060   8.785 -0.7314  1.0158 -0.3133
 8474TIP3    H149617   7.159   6.096   8.819 -0.1074 -0.8515  0.2569
 8474TIP3    H249618   7.098   6.028   8.698 -0.0048 -2.0302  0.8481
 8475TIP3   OH249619   6.194   0.674   7.945  0.0875  0.3182 -0.4585
 8475TIP3    H149620   6.235   0.759   7.955  1.0393  0.1441 -2.3847
 8475TIP3    H249621   6.231   0.620   8.015 -0.2052  1.3385  0.5108
 8476TIP3   OH249622   5.819   2.650   9.928  0.4286 -0.0284 -0.2303
 8476TIP3    H149623   5.829   2.567   9.880 -0.1789 -0.3358  0.1703
 8476TIP3    H249624   5.896   2.701   9.903 -0.0634 -0.0201 -1.8471
 8477TIP3   OH249625   6.047   6.772   8.994 -0.5068 -0.1475  0.7082
 8477TIP3    H149626   6.079   6.844   9.048 -0.0364  0.5568 -0.4758
 8477TIP3    H249627   6.091   6.694   9.028 -0.2080  0.2816  1.3160
 8478TIP3   OH249628   2.238   0.740   8.626 -0.1160  0.0760  0.2074
 8478TIP3    H149629   2.265   0.654   8.659  0.8228  0.3447  0.1729
 8478TIP3    H249630   2.202   0.785   8.703  0.7815  0.1898  0.5757
 8479TIP3   OH249631   5.618   2.580   8.367 -0.2599  0.1446  0.3517
 8479TIP3    H149632   5.608   2.638   8.292  2.1356 -0.8267 -0.8145
 8479TIP3    H249633   5.636   2.494   8.329 -0.6516 -0.7297  2.0409
 8480TIP3   OH249634   8.315   4.008   7.995 -0.3453 -0.1166  0.0748
 8480TIP3    H149635   8.395   4.059   8.007 -1.0695  0.7751  1.3548
 8480TIP3    H249636   8.255   4.041   8.062 -1.7606 -0.8345 -0.7909
 8481TIP3   OH249637   7.891   1.774   9.182  0.5377  0.5822 -0.2135
 8481TIP3    H149638   7.837   1.712   9.133 -0.5453  1.1764  0.1955
 8481TIP3    H249639   7.863   1.764   9.273  1.9189  0.1103  0.2011
 8482TIP3   OH249640   6.296   2.172   8.436  0.9911 -0.2388 -0.0231
 8482TIP3    H149641   6.269   2.261   8.411  1.1691 -0.4167 -0.8832
 8482TIP3    H249642   6.262   2.161   8.525 -0.4877  0.0881 -0.5095
 8483TIP3   OH249643   8.155   4.442   8.461  0.4037  0.3547  0.6901
 8483TIP3    H149644   8.173   4.527   8.502 -1.5931  0.8718  0.5824
 8483TIP3    H249645   8.110   4.392   8.529  1.0761 -0.4449  0.5638
 8484TIP3   OH249646   3.769   8.138   9.112  0.0422  0.3701  0.1459
 8484TIP3    H149647   3.865   8.141   9.113  0.0362  0.6305  0.8709
 8484TIP3    H249648   3.747   8.048   9.137  0.0974  0.1915 -0.4443
 8485TIP3   OH249649   5.443   4.819   7.796  0.2752  0.9939 -0.1900
 8485TIP3    H149650   5.429   4.734   7.838  2.8339  0.9518  0.7550
 8485TIP3    H249651   5.370   4.873   7.826 -0.8892 -0.5695 -0.0693
 8486TIP3   OH249652   1.249   3.944   8.375  0.2011 -0.0451  0.0750
 8486TIP3    H149653   1.324   3.947   8.433 -0.7068 -0.0176  1.2881
 8486TIP3    H249654   1.278   3.893   8.300  1.5679  0.3834  0.3014
 8487TIP3   OH249655   7.380   3.109   9.122 -0.1650  0.1065  0.4910
 8487TIP3    H149656   7.435   3.130   9.198  1.2888 -1.5675 -0.0312
 8487TIP3    H249657   7.425   3.036   9.079 -1.6334  0.1625 -1.2670
 8488TIP3   OH249658   6.736   7.306   8.244 -0.0891 -0.4224 -0.1277
 8488TIP3    H149659   6.682   7.310   8.165 -1.4344 -1.5590  0.6818
 8488TIP3    H249660   6.776   7.392   8.250  0.1520 -0.3495 -2.1031
 8489TIP3   OH249661   4.246   1.912   8.897 -0.7128  0.4790 -0.4694
 8489TIP3    H149662   4.173   1.853   8.882  1.2845 -2.0241 -0.9321
 8489TIP3    H249663   4.258   1.911   8.992 -0.3522 -0.3200 -0.5172
 8490TIP3   OH249664   5.498   6.228   7.910 -0.1625 -0.1203  0.3583
 8490TIP3    H149665   5.554   6.233   7.988  1.6626  0.7409 -0.9285
 8490TIP3    H249666   5.524   6.147   7.866 -1.6911 -0.9788  0.9490
 8491TIP3   OH249667   5.852   8.437   8.499 -0.0610 -0.2471 -0.0923
 8491TIP3    H149668   5.941   8.406   8.516  0.1631  1.1487  1.4808
 8491TIP3    H249669   5.863   8.511   8.440 -0.1766 -0.1281  0.0347
 8492TIP3   OH249670   6.672   0.232  10.110  0.5007 -0.8806  0.0304
 8492TIP3    H149671   6.664   0.326  10.126 -1.4553 -1.0382  0.1466
 8492TIP3    H249672   6.587   0.207  10.074  1.9087 -2.0831 -2.7805
 8493TIP3   OH249673   5.670   0.085   8.224  0.8175  0.1781  0.2535
 8493TIP3    H149674   5.661   0.117   8.134  0.7957  0.7452  0.4547
 8493TIP3    H249675   5.607   0.014   8.231  0.6616  0.2810 -0.1113
 8494TIP3   OH249676   2.598   6.958   7.872  0.3990  0.2288 -0.0577
 8494TIP3    H149677   2.637   7.014   7.805 -0.9351 -1.0776 -2.0295
 8494TIP3    H249678   2.643   6.874   7.863  0.5897  0.1912  1.0963
 8495TIP3   OH249679   1.144   2.308   8.351 -0.2459 -0.1024  0.3043
 8495TIP3    H149680   1.162   2.214   8.356  0.1007 -0.0335  0.3473
 8495TIP3    H249681   1.132   2.324   8.257  2.8902  0.3849 -0.1358
 8496TIP3   OH249682   6.844   2.593   9.711 -0.2022 -0.2870  0.5570
 8496TIP3    H149683   6.873   2.506   9.738  1.1692  0.2035  0.7690
 8496TIP3    H249684   6.851   2.591   9.615  0.2083 -0.3011  0.5824
 8497TIP3   OH249685   6.123   5.466   9.473  0.1626  0.1423 -0.1620
 8497TIP3    H149686   6.134   5.552   9.513 -1.2785  0.8964 -1.2967
 8497TIP3    H249687   6.110   5.406   9.547 -0.6114  1.1882  0.5738
 8498TIP3   OH249688   5.231   0.902   8.220 -0.1846  0.1375 -0.5346
 8498TIP3    H149689   5.308   0.956   8.202 -0.5169  0.2801 -1.5660
 8498TIP3    H249690   5.267   0.818   8.251  0.3367  0.7576  0.6122
 8499TIP3   OH249691   7.012   7.181   9.956  0.1359 -0.7436 -0.6428
 8499TIP3    H149692   7.057   7.261   9.983  0.5832 -1.0041 -0.6034
 8499TIP3    H249693   6.939   7.211   9.902 -1.1888 -0.1582  1.3588
 8500TIP3   OH249694   2.400   6.349   8.132 -0.7882 -0.3373  0.3415
 8500TIP3    H149695   2.332   6.388   8.187 -1.3003 -1.2076  0.3423
 8500TIP3    H249696   2.357   6.275   8.090 -0.1710 -0.1657 -0.6059
 8501TIP3   OH249697   5.594   3.064   7.825  0.2541 -0.0922  0.1433
 8501TIP3    H149698   5.531   3.098   7.889  1.6296  0.5642  1.2255
 8501TIP3    H249699   5.586   3.122   7.749  0.7564  1.1132  0.9718
 8502TIP3   OH249700   4.264   5.977   9.419  0.2685  0.1760  0.0152
 8502TIP3    H149701   4.230   5.991   9.508 -0.6525  1.1462 -0.4647
 8502TIP3    H249702   4.356   6.004   9.424 -0.4750  3.0509  0.0480
 8503TIP3   OH249703   2.166   4.553   7.381 -0.8380 -0.0083 -0.2690
 8503TIP3    H149704   2.143   4.611   7.453 -0.8458 -0.2693 -0.0609
 8503TIP3    H249705   2.088   4.553   7.325 -0.6095  0.6748 -0.6026
 8504TIP3   OH249706   7.115   3.440  10.152  0.2296 -0.7963 -0.0250
 8504TIP3    H149707   7.051   3.507  10.177 -0.3366 -1.7845  1.3766
 8504TIP3    H249708   7.071   3.389  10.084 -1.0044 -2.1272  1.6650
 8505TIP3   OH249709   5.691   2.312   8.016  0.6836  0.0183 -0.1839
 8505TIP3    H149710   5.667   2.219   8.016  0.2874  0.1137  0.1923
 8505TIP3    H249711   5.787   2.312   8.014  0.7562 -0.4388  1.4773
 8506TIP3   OH249712   0.862   0.026   8.670 -0.1037  0.5758 -0.3994
 8506TIP3    H149713   0.886   0.058   8.757 -1.6255  0.3171  0.1532
 8506TIP3    H249714   0.768   0.044   8.664  0.0866  1.1244 -2.2388
 8507TIP3   OH249715   5.368   0.129   9.334  0.6302 -0.2013  0.2096
 8507TIP3    H149716   5.387   0.083   9.416 -0.0654 -1.3032 -0.2224
 8507TIP3    H249717   5.276   0.155   9.342  0.3741 -0.8719 -0.4696
 8508TIP3   OH249718   1.853   7.093   9.519  0.0009  0.0448 -0.2017
 8508TIP3    H149719   1.895   7.168   9.562  0.2339 -0.5747  0.6833
 8508TIP3    H249720   1.771   7.081   9.568  0.2432 -0.6384  0.0493
 8509TIP3   OH249721   5.095   0.207   9.394 -0.4180  0.4539  0.1745
 8509TIP3    H149722   5.118   0.293   9.430 -0.2865  1.1001 -1.3915
 8509TIP3    H249723   5.010   0.221   9.351 -0.9751 -0.5036  0.9068
 8510TIP3   OH249724   8.405   3.997   8.308  0.1594 -0.5010  0.2332
 8510TIP3    H149725   8.318   4.029   8.284 -0.2727 -0.7692  1.3671
 8510TIP3    H249726   8.388   3.926   8.370  1.1566 -1.4722 -0.5780
 8511TIP3   OH249727   2.344   6.884   8.120 -0.0528  0.1197  0.0670
 8511TIP3    H149728   2.297   6.946   8.064 -2.7361 -1.7243  0.0403
 8511TIP3    H249729   2.407   6.842   8.062  0.8236  1.8022 -0.2415
 8512TIP3   OH249730   8.080   6.705   9.453 -0.5563 -0.1036 -0.7115
 8512TIP3    H149731   8.091   6.618   9.492  0.8647  0.5618  0.4814
 8512TIP3    H249732   8.166   6.726   9.418  0.6066  2.6923  3.1710
 8513TIP3   OH249733   3.238   0.171   8.400  0.9642  0.1506  0.2133
 8513TIP3    H149734   3.287   0.110   8.345  1.3934  0.5738  0.1237
 8513TIP3    H249735   3.232   0.127   8.485 -2.3099 -1.9191 -0.8800
 8514TIP3   OH249736   3.039   4.971   8.584 -0.1458  0.1880 -0.5485
 8514TIP3    H149737   3.023   5.063   8.562  0.8586  0.8933  1.4051
 8514TIP3    H249738   2.953   4.929   8.577 -0.8724  1.5616 -0.3069
 8515TIP3   OH249739   7.546   6.112   8.395  0.6984 -0.5882 -0.5125
 8515TIP3    H149740   7.556   6.207   8.391  0.8775 -0.6486 -1.7345
 8515TIP3    H249741   7.497   6.097   8.476  0.1025  0.5945 -0.6301
 8516TIP3   OH249742   3.432   6.849   8.339 -0.0744  0.0551 -0.3262
 8516TIP3    H149743   3.420   6.943   8.351 -1.3808 -0.2519  1.0655
 8516TIP3    H249744   3.510   6.828   8.390 -0.2995  0.2567  0.1095
 8517TIP3   OH249745   8.418   5.250   7.934 -0.1022  0.3694  0.9679
 8517TIP3    H149746   8.465   5.308   7.994 -0.2285  0.3613  1.0766
 8517TIP3    H249747   8.379   5.310   7.870 -0.9374  0.4958  1.5596
 8518TIP3   OH249748   2.121   6.784   7.869  0.2661 -0.5814 -0.0781
 8518TIP3    H149749   2.098   6.694   7.843 -0.4208 -0.7571  1.0846
 8518TIP3    H249750   2.039   6.822   7.899  0.9830 -0.4192  1.8433
 8519TIP3   OH249751   7.941   4.610   7.767 -0.2848  0.1889 -0.3590
 8519TIP3    H149752   8.033   4.636   7.773  0.0564 -1.3128  1.7678
 8519TIP3    H249753   7.934   4.569   7.680  0.5167  2.0718 -1.3697
 8520TIP3   OH249754   1.589   5.047   9.766 -0.3669 -0.0131 -0.4099
 8520TIP3    H149755   1.609   5.091   9.848  0.1220  0.9552 -1.0342
 8520TIP3    H249756   1.636   4.964   9.771 -0.5084 -0.0496  0.3704
 8521TIP3   OH249757   2.975   6.293   9.082  0.3961  0.2766 -0.0796
 8521TIP3    H149758   3.054   6.283   9.134 -0.1741  1.4970  1.0895
 8521TIP3    H249759   2.971   6.387   9.063 -1.1729  0.3843  0.6037
 8522TIP3   OH249760   4.413   2.785   9.147  0.1916 -0.5721  0.4548
 8522TIP3    H149761   4.407   2.839   9.068  1.7353 -0.0627  0.6605
 8522TIP3    H249762   4.464   2.838   9.208  0.1307 -1.5093  1.3377
 8523TIP3   OH249763   6.378   6.580   8.291 -0.3358 -0.4815  0.3910
 8523TIP3    H149764   6.357   6.510   8.353 -0.6423 -0.3484  0.4385
 8523TIP3    H249765   6.363   6.661   8.340  0.4565 -0.3804  0.4801
 8524TIP3   OH249766   3.240   6.221   9.149 -0.1406 -0.1503  0.5164
 8524TIP3    H149767   3.248   6.178   9.235  2.0404  0.7431  0.8184
 8524TIP3    H249768   3.301   6.174   9.093 -0.3815  0.2877 -0.1258
 8525TIP3   OH249769   1.530   3.663   8.506  1.0836 -0.3247  0.2651
 8525TIP3    H149770   1.486   3.703   8.581  0.7465 -0.3230  0.0630
 8525TIP3    H249771   1.589   3.731   8.474  1.6194 -0.5024  0.8528
 8526TIP3   OH249772   3.306   4.520   8.298 -0.2030 -0.0634  0.1883
 8526TIP3    H149773   3.380   4.562   8.256 -0.4314  0.8351  0.6477
 8526TIP3    H249774   3.314   4.544   8.391 -1.0393  0.0293  0.2503
 8527TIP3   OH249775   4.998   3.204   8.811 -0.8488 -0.1134  0.9450
 8527TIP3    H149776   4.976   3.114   8.787  0.1796 -0.2096  0.3335
 8527TIP3    H249777   4.994   3.205   8.907  0.3635 -1.1444  1.0248
 8528TIP3   OH249778   6.301   7.731   9.601  0.2734  0.0856  0.2950
 8528TIP3    H149779   6.300   7.679   9.681  1.5707  0.7391  0.7668
 8528TIP3    H249780   6.278   7.820   9.630 -1.7509 -0.1246 -0.4704
 8529TIP3   OH249781   3.861   2.215   8.685 -0.0776 -0.9355  0.0743
 8529TIP3    H149782   3.788   2.272   8.709  0.5041 -0.6044  1.1270
 8529TIP3    H249783   3.836   2.128   8.718  0.4361 -0.6104  1.4025
 8530TIP3   OH249784   7.775   2.087   8.445  0.0587 -0.4272  0.4004
 8530TIP3    H149785   7.764   2.166   8.499  0.4893 -1.3708  1.9308
 8530TIP3    H249786   7.715   2.100   8.371 -0.7719  0.7966  1.2495
 8531TIP3   OH249787   2.392   4.372   8.506 -0.1842  0.1003 -0.3784
 8531TIP3    H149788   2.371   4.412   8.422  0.7658  2.1771  0.3229
 8531TIP3    H249789   2.320   4.311   8.522 -2.2211  2.1828 -1.0953
 8532TIP3   OH249790   1.816   2.138   7.568 -0.4108 -0.4432  0.0482
 8532TIP3    H149791   1.872   2.061   7.582  1.7810  0.5586 -2.4982
 8532TIP3    H249792   1.865   2.210   7.607  0.2004  0.4592 -2.2468
 8533TIP3   OH249793   2.241   4.037   9.211 -0.0953 -0.0827 -0.4277
 8533TIP3    H149794   2.155   4.001   9.189 -0.5544  0.2064  0.7565
 8533TIP3    H249795   2.223   4.127   9.239  0.3357 -0.5048  1.3806
 8534TIP3   OH249796   0.461   6.088   8.518  0.2795  0.0324 -0.1122
 8534TIP3    H149797   0.539   6.144   8.512  0.7433 -0.6776 -1.0140
 8534TIP3    H249798   0.388   6.149   8.510  0.7472  0.6672  0.3274
 8535TIP3   OH249799   8.325   4.826   8.195 -0.2923 -0.2689 -0.2403
 8535TIP3    H149800   8.285   4.830   8.282 -0.6832 -0.8826 -0.3925
 8535TIP3    H249801   8.369   4.911   8.186 -0.8108  0.0624  0.2816
 8536TIP3   OH249802   7.986   1.475   8.982  0.1650  0.5109 -0.0173
 8536TIP3    H149803   8.055   1.433   8.930 -0.1125  0.4454 -0.3351
 8536TIP3    H249804   7.905   1.452   8.936 -0.0128  1.1450 -0.0216
 8537TIP3   OH249805   1.207   1.834   8.576 -0.0449  0.3144 -0.0077
 8537TIP3    H149806   1.152   1.841   8.654 -0.5908 -0.4201 -0.3156
 8537TIP3    H249807   1.185   1.912   8.524 -0.0603  0.5344  0.3236
 8538TIP3   OH249808   0.732   1.270   9.385 -0.1845  0.1490 -0.3376
 8538TIP3    H149809   0.760   1.288   9.474  1.9534  1.0247 -1.1238
 8538TIP3    H249810   0.706   1.178   9.386 -0.7397  0.2934  1.2917
 8539TIP3   OH249811   2.376   1.235   8.631 -0.0740  0.2606  0.2384
 8539TIP3    H149812   2.322   1.204   8.559  1.1032 -0.6338 -0.2926
 8539TIP3    H249813   2.435   1.299   8.592  0.8596 -0.5405  0.2806
 8540TIP3   OH249814   1.322   4.118   7.435 -0.1339  0.5103  0.3492
 8540TIP3    H149815   1.235   4.147   7.463 -0.7215  0.4709 -1.3703
 8540TIP3    H249816   1.317   4.022   7.435  0.4133  0.4486  1.6792
 8541TIP3   OH249817   4.731   3.608   8.495 -0.1770 -0.7018 -0.5200
 8541TIP3    H149818   4.689   3.522   8.495 -1.3073 -0.1704 -0.1304
 8541TIP3    H249819   4.787   3.607   8.417 -1.0917 -1.3670 -1.1970
 8542TIP3   OH249820   3.046   4.916   9.634 -0.1079 -0.0468  0.0150
 8542TIP3    H149821   3.011   4.828   9.622 -2.2619  0.8577 -0.8680
 8542TIP3    H249822   3.141   4.905   9.628 -0.3100 -2.3055  0.0932
 8543TIP3   OH249823   6.339   7.259   8.360 -0.9257  0.1605 -0.3921
 8543TIP3    H149824   6.365   7.241   8.450 -1.1285 -1.4328 -0.6192
 8543TIP3    H249825   6.325   7.353   8.357  0.0744  0.3862  0.9752
 8544TIP3   OH249826   7.148   3.418   9.257  0.7204  0.2992 -0.2088
 8544TIP3    H149827   7.091   3.438   9.330  2.4289 -0.1705  1.3432
 8544TIP3    H249828   7.103   3.349   9.209 -0.7150  1.0546  0.0179
 8545TIP3   OH249829   6.868   7.642   8.684  0.3004  0.4418  0.3201
 8545TIP3    H149830   6.826   7.688   8.757 -0.3594 -0.7822  0.7386
 8545TIP3    H249831   6.924   7.577   8.726  1.7638  1.2859 -0.2527
 8546TIP3   OH249832   0.291   1.976   7.494 -0.4093 -0.3691 -0.3351
 8546TIP3    H149833   0.290   2.022   7.410 -2.8220  0.2660 -0.0288
 8546TIP3    H249834   0.363   2.017   7.542 -0.5102  0.9192 -1.2344
 8547TIP3   OH249835   1.897   2.195   8.026  0.0088  0.2491 -0.1773
 8547TIP3    H149836   1.954   2.272   8.034  1.2335 -0.7393  1.3369
 8547TIP3    H249837   1.812   2.230   8.002  0.7675  1.9905 -0.4611
 8548TIP3   OH249838   1.653   3.059   7.558 -0.0869  0.2043  0.2576
 8548TIP3    H149839   1.674   2.975   7.516 -1.0531 -0.3228  0.7945
 8548TIP3    H249840   1.736   3.107   7.557  0.5346 -0.8274  0.0981
 8549TIP3   OH249841   7.268   3.914   8.201 -0.2097 -0.2272 -0.0758
 8549TIP3    H149842   7.329   3.941   8.133  0.0236 -0.0682  0.1964
 8549TIP3    H249843   7.184   3.951   8.173  0.3856  2.2184  1.0948
 8550TIP3   OH249844   4.626   6.960  13.821 -0.3334 -0.3591  0.5652
 8550TIP3    H149845   4.590   6.987  13.906  1.7082 -0.3493  1.4999
 8550TIP3    H249846   4.717   6.935  13.841  0.6678  0.9943 -1.8352
 8551TIP3   OH249847   2.565   2.598   8.824  0.1125  0.3816 -0.3118
 8551TIP3    H149848   2.533   2.515   8.858 -2.3053  1.0415 -0.8040
 8551TIP3    H249849   2.650   2.610   8.867 -0.2029 -1.5529  0.9846
 8552TIP3   OH249850   7.195   2.954   7.710  0.1577 -0.6121  0.0118
 8552TIP3    H149851   7.113   2.921   7.674  0.9225 -0.9506 -1.5325
 8552TIP3    H249852   7.228   2.883   7.765 -0.2241 -0.7684  0.0390
 8553TIP3   OH249853   5.008   3.363   8.253 -0.2601  0.4878  0.2306
 8553TIP3    H149854   4.933   3.326   8.300 -0.7174  1.1020  0.0127
 8553TIP3    H249855   5.068   3.392   8.321 -0.3148  0.1750  0.4113
 8554TIP3   OH249856   0.312   4.180   9.679  0.4060 -0.0195  0.1706
 8554TIP3    H149857   0.333   4.112   9.614  0.5107  0.4689 -0.3118
 8554TIP3    H249858   0.265   4.133   9.748 -0.8852 -0.3223 -0.8727
 8555TIP3   OH249859   6.809   3.258   9.664 -0.0348 -0.2988 -0.3985
 8555TIP3    H149860   6.888   3.301   9.698 -0.6383  1.6995 -1.3505
 8555TIP3    H249861   6.787   3.192   9.731  1.9772 -0.3779  0.2484
 8556TIP3   OH249862   7.751   1.122   8.054  0.1909 -0.1729  0.0251
 8556TIP3    H149863   7.709   1.042   8.083  0.6424 -0.8475 -1.1090
 8556TIP3    H249864   7.679   1.183   8.036 -0.1835 -0.5554  0.2397
 8557TIP3   OH249865   7.577   5.133   8.625  0.1537 -0.1279  0.4969
 8557TIP3    H149866   7.645   5.176   8.574 -1.5397  1.1490 -0.8009
 8557TIP3    H249867   7.591   5.163   8.714  2.0599 -0.9417  0.5078
 8558TIP3   OH249868   3.309   6.771   8.754 -0.8238 -0.4910  0.5083
 8558TIP3    H149869   3.394   6.769   8.709 -0.9400  0.0296  0.2438
 8558TIP3    H249870   3.269   6.687   8.733 -1.2519  0.0838 -1.1507
 8559TIP3   OH249871   2.067   2.890   9.122  0.6343  0.2091 -0.3155
 8559TIP3    H149872   2.107   2.841   9.050  2.0433 -0.8491  1.1116
 8559TIP3    H249873   1.989   2.841   9.146  0.6558  0.0661 -0.5453
 8560TIP3   OH249874   7.857   6.684   9.304 -0.2990 -0.0293  0.5999
 8560TIP3    H149875   7.939   6.686   9.354 -0.2237  0.5620  0.4554
 8560TIP3    H249876   7.849   6.772   9.266 -0.2925 -0.5036 -0.5387
 8561TIP3   OH249877   7.677   1.791   9.428  0.2101 -0.0623 -0.0909
 8561TIP3    H149878   7.657   1.708   9.470  1.6981 -1.1101 -1.3185
 8561TIP3    H249879   7.592   1.828   9.404 -0.4472 -1.8394 -0.6344
 8562TIP3   OH249880   3.736   7.822  15.007  0.7341 -0.5605  0.1385
 8562TIP3    H149881   3.662   7.805  15.066  1.0036  0.6390  0.8483
 8562TIP3    H249882   3.806   7.765  15.039  0.5127 -0.7893  0.2261
 8563TIP3   OH249883   8.442   6.589   8.633 -0.0325 -0.7950 -0.4180
 8563TIP3    H149884   8.482   6.655   8.689 -3.5391  0.3977  0.9668
 8563TIP3    H249885   8.472   6.505   8.668  1.6671 -0.0247  0.0725
 8564TIP3   OH249886   5.691   1.016   7.935  0.4777  0.4849 -0.5920
 8564TIP3    H149887   5.762   0.970   7.980 -0.0799  0.1121 -0.0851
 8564TIP3    H249888   5.674   1.092   7.990  0.4613  0.5578 -0.6979
 8565TIP3   OH249889   2.749   3.686   8.191 -0.3199  0.6118  0.1576
 8565TIP3    H149890   2.736   3.779   8.208  1.1752  0.5538  1.9350
 8565TIP3    H249891   2.843   3.673   8.196 -0.4775 -0.9748 -0.2522
 8566TIP3   OH249892   0.658   4.831   7.468  0.1975  0.2941  0.4715
 8566TIP3    H149893   0.732   4.835   7.408  0.3647  0.8247  0.7062
 8566TIP3    H249894   0.581   4.836   7.412  0.3270 -0.9587  0.1728
 8567TIP3   OH249895   2.631   6.642   9.155 -0.1007  0.0641  0.0862
 8567TIP3    H149896   2.635   6.737   9.155  0.5981  0.0503  0.7427
 8567TIP3    H249897   2.628   6.618   9.248  0.6927 -0.5691 -0.0388
 8568TIP3   OH249898   4.889   7.096   9.346  0.1125  0.7015  0.1647
 8568TIP3    H149899   4.856   7.022   9.295 -1.7861  1.3648  0.3377
 8568TIP3    H249900   4.972   7.120   9.305  0.6732 -1.3773 -0.0066
 8569TIP3   OH249901   6.040   7.102   8.664  0.4128 -0.2068 -0.3981
 8569TIP3    H149902   6.002   7.092   8.577 -0.3368 -1.6677  0.0679
 8569TIP3    H249903   5.991   7.175   8.704  0.1757 -0.0987 -0.8842
 8570TIP3   OH249904   2.704   2.554   9.184  0.0733 -0.0504 -0.5227
 8570TIP3    H149905   2.630   2.606   9.154  0.9463  0.6516 -1.5487
 8570TIP3    H249906   2.781   2.601   9.151  0.9541 -0.9946  0.1314
 8571TIP3   OH249907   2.629   0.360   9.567 -0.2666 -0.2119 -0.2249
 8571TIP3    H149908   2.630   0.389   9.475  0.0059  1.1938  0.2003
 8571TIP3    H249909   2.712   0.392   9.603 -0.8835  0.2949  0.8050
 8572TIP3   OH249910   7.360   0.524   7.746  0.2427  0.2078  0.0267
 8572TIP3    H149911   7.396   0.512   7.833 -0.5211  0.3815  0.3755
 8572TIP3    H249912   7.431   0.565   7.696 -0.1313  2.5668  1.2643
 8573TIP3   OH249913   1.184   7.452   8.044  0.6555 -0.4257 -0.0228
 8573TIP3    H149914   1.109   7.477   7.990  0.3389  0.0770  0.6290
 8573TIP3    H249915   1.146   7.399   8.114  0.8909 -0.1019  0.3539
 8574TIP3   OH249916   5.510   5.541   9.061 -0.3026 -0.7566  0.7199
 8574TIP3    H149917   5.549   5.539   9.148  0.2598  0.4889  0.5209
 8574TIP3    H249918   5.584   5.536   9.001 -0.6917 -1.6453  0.3064
 8575TIP3   OH249919   2.181   4.259   8.372 -0.2074 -0.1904  0.1641
 8575TIP3    H149920   2.201   4.336   8.318 -2.7650  0.5914  0.1926
 8575TIP3    H249921   2.147   4.195   8.310  1.3872 -1.1390  0.2253
 8576TIP3   OH249922   7.002   7.337   9.161  0.0288  0.2784 -0.1600
 8576TIP3    H149923   7.001   7.313   9.254 -0.4304 -0.0551 -0.2523
 8576TIP3    H249924   6.918   7.380   9.146  0.3209  0.8186 -0.2995
 8577TIP3   OH249925   3.041   5.471   9.802  0.4509  0.0006 -0.3790
 8577TIP3    H149926   3.063   5.559   9.772 -0.5386  0.6462  0.6627
 8577TIP3    H249927   3.039   5.418   9.723  3.6981  0.2603 -0.7593
 8578TIP3   OH249928   4.109   1.410   8.847 -0.2837 -0.0680  0.4863
 8578TIP3    H149929   4.064   1.394   8.929  0.9942 -0.2341  1.1865
 8578TIP3    H249930   4.148   1.326   8.824  1.1112  0.4367  0.8395
 8579TIP3   OH249931   3.917   6.339   9.019 -0.4357  0.3688  0.3728
 8579TIP3    H149932   3.898   6.323   9.112  1.4135  2.9278  1.2914
 8579TIP3    H249933   3.839   6.385   8.987 -1.4370 -1.2446  0.3642
 8580TIP3   OH249934   2.637   6.491   8.210 -0.0618 -0.1422  0.2168
 8580TIP3    H149935   2.657   6.453   8.296  1.3639  0.5796  0.2290
 8580TIP3    H249936   2.565   6.437   8.176 -0.9665 -0.1549  2.0430
 8581TIP3   OH249937   8.307   0.126   9.526 -0.8400  0.7597  0.3098
 8581TIP3    H149938   8.306   0.078   9.609  1.8728  2.0470  1.2247
 8581TIP3    H249939   8.372   0.080   9.473 -0.7254  1.4096 -0.1201
 8582TIP3   OH249940   8.437   0.979  10.055  0.2361  0.2619  0.1837
 8582TIP3    H149941   8.358   1.004  10.006 -0.6380 -0.5300  1.1551
 8582TIP3    H249942   8.432   0.884  10.061  1.4169  0.1856  0.0399
 8583TIP3   OH249943   5.865   0.667   8.577 -0.2387  0.1083  0.3786
 8583TIP3    H149944   5.770   0.658   8.572 -0.2147 -0.2559  0.5120
 8583TIP3    H249945   5.898   0.595   8.523 -0.0206 -1.0643  2.0245
 8584TIP3   OH249946   4.720   0.170   9.054  0.3952 -0.1826  0.6955
 8584TIP3    H149947   4.775   0.248   9.053 -0.6626  0.7166  3.5264
 8584TIP3    H249948   4.656   0.185   8.985  0.9555  0.8452  0.3760
 8585TIP3   OH249949   7.771   2.710   8.249 -0.0237  0.0771  0.3035
 8585TIP3    H149950   7.767   2.806   8.240 -1.5119 -0.0699 -1.0749
 8585TIP3    H249951   7.712   2.690   8.321  0.6713  0.2026  0.9271
 8586TIP3   OH249952   6.240   8.169   8.694  0.2178 -0.4794  0.0112
 8586TIP3    H149953   6.286   8.200   8.616  1.4395 -0.1340  0.8364
 8586TIP3    H249954   6.198   8.248   8.730  0.6570 -0.3979  0.3540
 8587TIP3   OH249955   6.532   3.312   9.196  0.3241  0.3318  0.6046
 8587TIP3    H149956   6.515   3.276   9.109 -1.1015 -1.0726  1.3925
 8587TIP3    H249957   6.607   3.370   9.185  0.7423 -0.5199 -1.3718
 8588TIP3   OH249958   0.264   6.154   8.930  0.2973 -0.0938  0.0745
 8588TIP3    H149959   0.246   6.157   9.024  1.4111  1.8668  0.2719
 8588TIP3    H249960   0.325   6.081   8.919  2.6770  1.5975  1.3910
 8589TIP3   OH249961   0.889   0.078   8.922  0.4066 -1.2707 -0.0506
 8589TIP3    H149962   0.917   0.023   8.995  0.7466  0.1762  0.9486
 8589TIP3    H249963   0.793   0.076   8.926  0.3415  1.0964  2.3348
 8590TIP3   OH249964   3.993   8.345   8.336  0.1370 -0.3531  0.5925
 8590TIP3    H149965   4.075   8.392   8.321  0.3574 -0.2733  1.8907
 8590TIP3    H249966   3.931   8.414   8.363 -0.8885 -0.1425 -2.0763
 8591TIP3   OH249967   6.591   2.403   9.167 -0.0252 -0.7577  0.2347
 8591TIP3    H149968   6.680   2.370   9.176 -0.1777 -0.8132  1.7229
 8591TIP3    H249969   6.543   2.363   9.240 -1.1333 -0.2884 -0.2181
 8592TIP3   OH249970   8.112   5.381   8.217  0.3663  0.2708 -0.1128
 8592TIP3    H149971   8.198   5.409   8.245  0.6509 -0.8892  0.2377
 8592TIP3    H249972   8.067   5.356   8.297  0.2932 -0.6721 -0.4332
 8593TIP3   OH249973   5.641   0.484   8.853  0.2202  0.0762 -0.0135
 8593TIP3    H149974   5.658   0.565   8.805 -0.8631  0.9603  1.0248
 8593TIP3    H249975   5.561   0.502   8.903 -0.8383 -2.1066 -0.7968
 8594TIP3   OH249976   6.149   3.147   9.676  0.2351  0.0804 -0.4901
 8594TIP3    H149977   6.128   3.145   9.582  0.2641 -0.3089 -0.4925
 8594TIP3    H249978   6.120   3.233   9.705  0.6586  0.3859 -0.9584
 8595TIP3   OH249979   7.213   8.423   9.593 -0.2722 -0.4235 -0.5283
 8595TIP3    H149980   7.230   8.354   9.529  2.1792  0.1959 -0.6135
 8595TIP3    H249981   7.169   8.378   9.665 -0.8667 -1.5936 -1.5851
 8596TIP3   OH249982   0.307   8.323   9.422  0.0162  0.1159  0.3486
 8596TIP3    H149983   0.317   8.337   9.516  1.0162 -0.0794  0.2834
 8596TIP3    H249984   0.391   8.351   9.385 -0.7618  1.2347 -0.6124
 8597TIP3   OH249985   1.234   3.755   8.187  0.1273  0.5323 -0.0453
 8597TIP3    H149986   1.283   3.739   8.107 -0.3415  1.4670 -0.5265
 8597TIP3    H249987   1.250   3.677   8.241 -0.1663 -0.4427 -1.3361
 8598TIP3   OH249988   6.656   7.391   8.757  0.8230  0.3545  0.1820
 8598TIP3    H149989   6.685   7.394   8.666 -0.0037 -0.2722 -0.1157
 8598TIP3    H249990   6.737   7.390   8.808  1.3455  3.2635 -0.4032
 8599TIP3   OH249991   2.023   5.916   9.080 -0.4548 -0.2881 -0.2250
 8599TIP3    H149992   2.032   5.861   9.002  0.0066 -0.1358 -0.2785
 8599TIP3    H249993   2.078   5.873   9.145  0.1596  0.2911 -0.3641
 8600TIP3   OH249994   6.313   5.956   8.576 -0.0572  0.6798  0.3122
 8600TIP3    H149995   6.260   5.940   8.654  1.8782  0.3497  1.6588
 8600TIP3    H249996   6.283   6.040   8.543 -1.9764  0.0989  0.4777
 8601TIP3   OH249997   3.532   1.184   8.449 -0.0303  0.1888  0.0137
 8601TIP3    H149998   3.574   1.229   8.376  1.5141  0.6599  1.1296
 8601TIP3    H249999   3.599   1.183   8.518 -0.5320 -2.4028  0.5937
 8602TIP3   OH250000   5.272   2.847   8.099  0.2479  0.0282 -0.4635
 8602TIP3    H150001   5.202   2.852   8.164  0.2140 -1.2101 -0.3717
 8602TIP3    H250002   5.262   2.925   8.046  0.5652  1.3239  1.2996
 8603TIP3   OH250003   1.277   6.956   9.468 -0.1032 -0.1247 -0.0539
 8603TIP3    H150004   1.284   6.890   9.399  0.2930 -1.8980  1.6028
 8603TIP3    H250005   1.198   6.933   9.516  1.6002 -1.3182  2.3689
 8604TIP3   OH250006   4.524   8.025   7.978  0.5989 -0.5530 -0.2227
 8604TIP3    H150007   4.591   8.001   8.043  1.6295  0.8186 -0.7502
 8604TIP3    H250008   4.443   8.025   8.028  1.2762 -0.2209  0.9232
 8605TIP3   OH250009   3.855   6.895   9.513 -0.1287 -0.1647  0.4198
 8605TIP3    H150010   3.940   6.871   9.549  1.5017  2.0392 -1.6910
 8605TIP3    H250011   3.806   6.930   9.587  0.1319 -2.8156  1.9811
 8606TIP3   OH250012   8.314   0.091   8.689  0.0988  0.0194  0.2165
 8606TIP3    H150013   8.338   0.021   8.748  1.4757  0.9391  0.8004
 8606TIP3    H250014   8.271   0.157   8.744 -1.6405 -0.5345 -0.4071
 8607TIP3   OH250015   6.823   2.774   9.401 -0.6273  0.2216  0.4903
 8607TIP3    H150016   6.836   2.836   9.473  1.1122 -0.1984  0.6000
 8607TIP3    H250017   6.781   2.825   9.332  0.2330  1.3851  0.7950
 8608TIP3   OH250018   0.376   1.296   8.168  0.4950  0.2731  0.3557
 8608TIP3    H150019   0.406   1.343   8.246  1.3766 -1.4151  1.0859
 8608TIP3    H250020   0.369   1.363   8.100  0.8495  1.5820  1.5679
 8609TIP3   OH250021   4.196   8.042   9.242 -0.1270 -0.3659 -0.0041
 8609TIP3    H150022   4.285   8.019   9.267 -0.4132 -0.3768  1.0408
 8609TIP3    H250023   4.140   7.992   9.301 -0.7833  1.4094  0.9765
 8610TIP3   OH250024   3.725   2.542   7.838 -0.3720 -0.3029  0.2859
 8610TIP3    H150025   3.706   2.513   7.927 -2.3756 -0.1628 -0.0392
 8610TIP3    H250026   3.673   2.483   7.783 -1.8978  1.7510 -0.5739
 8611TIP3   OH250027   2.980   1.445   9.172 -0.6230  0.3541 -0.1281
 8611TIP3    H150028   3.017   1.498   9.243 -2.0784 -0.1624  1.0663
 8611TIP3    H250029   3.052   1.437   9.109  1.3221 -0.5976  2.0396
 8612TIP3   OH250030   0.423   2.003   8.744  0.3212  0.1231  0.2227
 8612TIP3    H150031   0.424   2.093   8.712 -0.2186  0.0673  0.0447
 8612TIP3    H250032   0.332   1.976   8.738  0.6178 -0.7658 -0.6556
 8613TIP3   OH250033   0.739   8.377   8.138 -0.5338 -0.6237  0.0860
 8613TIP3    H150034   0.660   8.421   8.168 -0.1403 -0.7167  1.2865
 8613TIP3    H250035   0.804   8.392   8.207  0.8700  0.4196 -1.3568
 8614TIP3   OH250036   7.100   6.341   8.562  0.0812  0.4881 -0.2136
 8614TIP3    H150037   7.011   6.328   8.593  0.9054 -1.3285  1.6233
 8614TIP3    H250038   7.095   6.324   8.468 -1.6295  1.2307 -0.2911
 8615TIP3   OH250039   1.326   5.057   9.331 -0.4730  0.6064  0.2418
 8615TIP3    H150040   1.382   5.088   9.260  1.5796 -0.5163  1.2784
 8615TIP3    H250041   1.321   5.131   9.392  0.8821  0.3592  0.6824
 8616TIP3   OH250042   6.748   0.126   8.241 -0.9984 -0.0862  0.8105
 8616TIP3    H150043   6.677   0.105   8.303 -1.0161 -0.0057  0.8173
 8616TIP3    H250044   6.748   0.053   8.180 -1.7462  0.4021  0.2159
 8617TIP3   OH250045   8.345   2.253   8.892 -0.2551 -0.2404  0.3019
 8617TIP3    H150046   8.428   2.207   8.884 -0.0240  0.2802 -0.3603
 8617TIP3    H250047   8.282   2.198   8.846 -0.3232 -0.7384  0.9803
 8618TIP3   OH250048   8.394   4.285   8.095 -0.0136  0.0820  0.3914
 8618TIP3    H150049   8.329   4.340   8.138 -1.7019 -1.4783 -0.0345
 8618TIP3    H250050   8.476   4.302   8.142 -0.7743  1.8875  1.1263
 8619TIP3   OH250051   2.030   2.726   7.696  0.2226  0.1985 -0.0838
 8619TIP3    H150052   2.022   2.727   7.791  1.7326  1.6406  0.0736
 8619TIP3    H250053   2.112   2.773   7.678 -0.1998  0.2647 -2.1145
 8620TIP3   OH250054   3.138   6.547   8.714 -0.0855 -0.5835 -0.0777
 8620TIP3    H150055   3.185   6.489   8.774 -0.5577 -0.5527  0.3281
 8620TIP3    H250056   3.104   6.489   8.646 -0.7570 -0.8308  0.4528
 8621TIP3   OH250057   3.413   4.007   8.958  0.2068 -0.2581  0.4273
 8621TIP3    H150058   3.383   3.946   9.025  0.0469 -0.9058 -0.2188
 8621TIP3    H250059   3.340   4.067   8.945  0.6651  0.5873  1.6449
 8622TIP3   OH250060   3.981   5.554   8.921  0.2477  0.1608 -0.4426
 8622TIP3    H150061   3.919   5.481   8.914  1.6553 -1.0094 -1.3670
 8622TIP3    H250062   4.066   5.514   8.906  1.3247  1.6097  1.4526
 8623TIP3   OH250063   5.322   6.650   9.702 -0.0313 -0.2172 -0.2861
 8623TIP3    H150064   5.295   6.579   9.645  0.6852  1.5030 -2.9519
 8623TIP3    H250065   5.243   6.673   9.751 -0.4627 -2.2682  0.0587
 8624TIP3   OH250066   6.978   6.343   8.087 -0.1562 -0.1872 -0.5100
 8624TIP3    H150067   6.959   6.426   8.043 -2.5048 -0.9844 -1.1354
 8624TIP3    H250068   6.893   6.313   8.120  1.1510 -0.6656  2.8326
 8625TIP3   OH250069   5.062   1.692   8.933 -0.0752 -0.8865  0.5113
 8625TIP3    H150070   5.014   1.753   8.878 -0.7758  0.2630  2.3331
 8625TIP3    H250071   5.085   1.620   8.874 -0.9310  0.1991 -1.2208
 8626TIP3   OH250072   0.111   2.994   8.448  0.3989  0.1167 -0.0838
 8626TIP3    H150073   0.131   3.032   8.534  2.6415 -0.2348 -0.4041
 8626TIP3    H250074   0.165   2.916   8.442 -0.9972 -0.8269 -1.1692
 8627TIP3   OH250075   7.750   0.228   8.652  0.0186 -0.1627  0.0686
 8627TIP3    H150076   7.830   0.233   8.705 -0.6811  1.6786  1.0517
 8627TIP3    H250077   7.764   0.153   8.595  2.4150  0.0512  0.2656
 8628TIP3   OH250078   2.047   5.146   9.665 -0.0944  0.7842  0.7265
 8628TIP3    H150079   2.114   5.149   9.596 -1.2457  0.6923 -0.4166
 8628TIP3    H250080   2.069   5.068   9.717  2.0761  2.0381  1.8536
 8629TIP3   OH250081   0.394   0.696  10.478  0.6601 -0.0561  0.2563
 8629TIP3    H150082   0.471   0.751  10.495  0.2021  0.5532  0.3705
 8629TIP3    H250083   0.429   0.606  10.477  1.6829  0.3228 -1.4836
 8630TIP3   OH250084   0.013   2.032   9.209  0.0281 -1.0504  0.2846
 8630TIP3    H150085  -0.001   2.124   9.229  0.4463 -1.3801  2.3759
 8630TIP3    H250086   0.108   2.023   9.202 -0.0550 -1.1787 -0.7373
 8631TIP3   OH250087   1.541   4.140   8.284  0.1569 -0.1553  0.0536
 8631TIP3    H150088   1.458   4.183   8.305  0.6432  1.5923 -1.3650
 8631TIP3    H250089   1.606   4.186   8.337  0.7549  1.3133 -1.8427
 8632TIP3   OH250090   2.458   8.062   8.949 -0.1018  0.3707  0.0609
 8632TIP3    H150091   2.377   8.032   8.990  1.2464 -0.7473  2.1048
 8632TIP3    H250092   2.463   8.014   8.867 -1.1210 -0.1353  0.2814
 8633TIP3   OH250093   5.925   6.197   8.272 -0.0034 -0.2743  0.6310
 8633TIP3    H150094   5.908   6.231   8.360  1.2917  0.8778  0.4665
 8633TIP3    H250095   5.985   6.124   8.285 -0.1663 -0.3926  0.7281
 8634TIP3   OH250096   1.193   3.921   9.554  0.4440  0.1499  0.4812
 8634TIP3    H150097   1.156   3.866   9.623 -0.0153  1.1327  1.0450
 8634TIP3    H250098   1.282   3.940   9.584 -0.2725  1.9182  1.6775
 8635TIP3   OH250099   8.181   0.094   7.680 -0.2083  0.0132 -0.1853
 8635TIP3    H150100   8.110   0.055   7.630  0.2467 -1.0793 -0.0074
 8635TIP3    H250101   8.146   0.104   7.768 -0.3277 -0.0017 -0.2316
 8636TIP3   OH250102   2.013   3.564   8.232 -0.0134 -0.6581  0.3633
 8636TIP3    H150103   1.980   3.477   8.255 -1.1296 -1.0113 -2.2574
 8636TIP3    H250104   1.973   3.622   8.296 -1.8840 -1.7015  0.2253
 8637TIP3   OH250105   0.677   0.627   9.480  0.0942  0.3475 -0.3030
 8637TIP3    H150106   0.627   0.562   9.432  0.6432 -0.4809  0.2070
 8637TIP3    H250107   0.719   0.577   9.551  1.6226  1.0009 -0.7105
 8638TIP3   OH250108   3.372   7.990   8.211  0.3299 -0.5380 -0.2168
 8638TIP3    H150109   3.311   8.061   8.229 -1.5582 -2.3329  0.9641
 8638TIP3    H250110   3.394   7.955   8.298  0.8114 -1.6665 -0.7729
 8639TIP3   OH250111   5.423   7.717   9.103 -0.4398 -0.2751  0.2104
 8639TIP3    H150112   5.402   7.806   9.129  0.7743 -0.1475  0.8515
 8639TIP3    H250113   5.351   7.664   9.136 -0.3201  0.2581  1.3866
 8640TIP3   OH250114   5.061   5.541  10.425  0.2266  0.2261  0.2927
 8640TIP3    H150115   5.032   5.627  10.396  4.4715  1.8772  0.1689
 8640TIP3    H250116   5.124   5.559  10.495  1.0007 -2.8051  0.5174
 8641TIP3   OH250117   4.533   3.763   7.833 -0.1866 -0.5173 -0.1148
 8641TIP3    H150118   4.514   3.852   7.863 -0.1894 -0.4072 -0.4447
 8641TIP3    H250119   4.450   3.717   7.840 -0.2291 -0.4418 -0.1254
 8642TIP3   OH250120   3.236   0.103   8.098  0.2816  0.7715 -0.4648
 8642TIP3    H150121   3.309   0.163   8.083 -0.7119  1.6686 -2.0057
 8642TIP3    H250122   3.169   0.158   8.140 -0.2718  0.4944 -0.9753
 8643TIP3   OH250123   4.486   5.461   8.420 -0.2874 -0.6492 -0.0317
 8643TIP3    H150124   4.433   5.484   8.496  0.1384  0.1580  0.0331
 8643TIP3    H250125   4.577   5.471   8.449 -0.1215  0.0492 -0.7402
 8644TIP3   OH250126   2.906   6.418   9.583  0.7678  0.2985  0.1884
 8644TIP3    H150127   2.937   6.407   9.673  1.8248 -0.2278 -0.2299
 8644TIP3    H250128   2.900   6.513   9.571  0.3872  0.3678  0.8870
 8645TIP3   OH250129   0.273   3.626   8.680 -0.3187  0.1502 -0.4610
 8645TIP3    H150130   0.187   3.608   8.719 -0.0991  0.8617  0.3920
 8645TIP3    H250131   0.254   3.652   8.590 -0.7729 -2.5748 -1.2674
 8646TIP3   OH250132   8.008   3.900   8.448  0.4942  0.1101  0.2270
 8646TIP3    H150133   8.029   3.821   8.498  2.1996 -0.1954 -0.8914
 8646TIP3    H250134   7.912   3.905   8.450  0.2402 -2.6019 -0.5705
 8647TIP3   OH250135   6.687   0.239   7.860 -0.4142  0.8684  0.5756
 8647TIP3    H150136   6.729   0.291   7.792 -0.5980 -1.4959 -1.4687
 8647TIP3    H250137   6.758   0.213   7.918  1.9627 -4.7199 -3.8543
 8648TIP3   OH250138   4.402   0.560   9.004  0.7321  0.0074  0.2701
 8648TIP3    H150139   4.370   0.537   8.916  0.1970  2.0610 -0.1412
 8648TIP3    H250140   4.384   0.654   9.011  1.5171  0.0435  2.2829
 8649TIP3   OH250141   1.039   7.280   8.948  0.0988 -0.2286 -0.0234
 8649TIP3    H150142   1.086   7.314   8.873 -0.6901 -0.9343 -0.8675
 8649TIP3    H250143   1.103   7.226   8.995  0.2987 -0.7013 -0.8276
 8650TIP3   OH250144   5.487   4.857   9.757 -0.0349 -0.2701  0.1459
 8650TIP3    H150145   5.478   4.767   9.724  0.8361 -1.1939  2.2698
 8650TIP3    H250146   5.451   4.854   9.846  2.1402  0.8711  1.1474
 8651TIP3   OH250147   5.081   0.293   7.963  0.1257 -0.2340  0.2810
 8651TIP3    H150148   5.028   0.332   8.033 -0.6100  0.3949 -0.5989
 8651TIP3    H250149   5.023   0.228   7.923  0.9918 -1.5515  1.0752
 8652TIP3   OH250150   2.568   0.726   8.764 -0.1781  0.6936  0.1583
 8652TIP3    H150151   2.511   0.802   8.749  1.4456  1.8830 -0.3130
 8652TIP3    H250152   2.635   0.758   8.823 -0.7843 -1.1059  1.9154
 8653TIP3   OH250153   6.170   0.572   8.231 -0.2175  0.3489  0.6262
 8653TIP3    H150154   6.160   0.528   8.315 -2.4231  1.4356  1.0135
 8653TIP3    H250155   6.111   0.647   8.236  0.5230  1.1499 -1.4430
 8654TIP3   OH250156   3.486   0.868   7.825 -0.3641  0.2364 -0.2297
 8654TIP3    H150157   3.442   0.784   7.838  1.0628 -0.1898  2.5197
 8654TIP3    H250158   3.559   0.848   7.766 -1.3810  0.1100 -1.4987
 8655TIP3   OH250159   1.636   5.776   8.301  0.4690 -0.4531 -0.3466
 8655TIP3    H150160   1.555   5.766   8.251  0.3226  0.3430 -0.2857
 8655TIP3    H250161   1.662   5.686   8.324 -0.2681 -0.7267 -0.5616
 8656TIP3   OH250162   3.895   4.731   8.885 -0.2706 -0.1210 -0.2911
 8656TIP3    H150163   3.928   4.643   8.905 -0.7160 -0.1527  0.3357
 8656TIP3    H250164   3.801   4.719   8.876 -0.6916  0.6702  2.2157
 8657TIP3   OH250165   0.786   6.102   8.021 -0.0965 -0.2705 -0.2117
 8657TIP3    H150166   0.763   6.060   8.104  1.4398 -2.8792 -0.9943
 8657TIP3    H250167   0.840   6.176   8.046 -0.6483 -0.2966  1.1493
 8658TIP3   OH250168   1.480   2.918   9.017 -0.4243  0.5780  0.6782
 8658TIP3    H150169   1.478   2.902   9.112 -0.2498 -1.2372  0.4040
 8658TIP3    H250170   1.388   2.920   8.991 -0.4615 -1.0498  0.5896
 8659TIP3   OH250171   0.517   4.020   8.450 -0.4573  0.7018 -0.2599
 8659TIP3    H150172   0.530   3.925   8.457  2.8497  0.8498 -2.2160
 8659TIP3    H250173   0.588   4.057   8.502 -0.9214  2.0735 -0.5849
 8660TIP3   OH250174   1.514   0.185   8.550 -0.4556 -0.1435 -0.2324
 8660TIP3    H150175   1.586   0.234   8.511  0.0623 -1.5906 -1.1765
 8660TIP3    H250176   1.437   0.239   8.533 -0.1750 -0.4410 -2.8822
 8661TIP3   OH250177   4.136   5.271   8.123  0.0542  0.2289  0.1312
 8661TIP3    H150178   4.082   5.247   8.198  0.9714 -0.0375  0.7352
 8661TIP3    H250179   4.074   5.286   8.052 -0.7221 -2.4093  0.1177
 8662TIP3   OH250180   2.060   4.456   8.912 -0.2869 -0.2648  0.0609
 8662TIP3    H150181   1.968   4.447   8.940 -0.2795  0.6036  0.4162
 8662TIP3    H250182   2.055   4.470   8.818 -0.5055 -0.4875  0.0386
 8663TIP3   OH250183   5.337   7.425   9.165  0.3958 -0.1004 -0.1749
 8663TIP3    H150184   5.281   7.478   9.109  0.7762  1.0732  0.5007
 8663TIP3    H250185   5.426   7.441   9.132  0.3782 -1.7466 -1.0847
 8664TIP3   OH250186   0.954   4.094   9.203 -0.0881 -0.1901 -0.1993
 8664TIP3    H150187   0.894   4.104   9.277  0.4747 -1.4088  0.4577
 8664TIP3    H250188   0.987   4.183   9.187 -0.3815  0.1313  0.8837
 8665TIP3   OH250189   7.141   5.691   9.416 -0.0865  0.0429  0.0120
 8665TIP3    H150190   7.145   5.676   9.510  1.1104  0.6658  0.0775
 8665TIP3    H250191   7.143   5.786   9.406  1.7082 -0.0277 -0.6753
 8666TIP3   OH250192   0.502   1.493   8.387 -0.3353 -0.1276  1.0380
 8666TIP3    H150193   0.591   1.494   8.420 -0.1566 -1.8881  0.7321
 8666TIP3    H250194   0.458   1.564   8.432  1.5382  1.6493  0.2102
 8667TIP3   OH250195   7.089   4.396   8.483 -0.2650  0.2830  0.0052
 8667TIP3    H150196   7.077   4.369   8.392  0.5139  0.1922 -0.0827
 8667TIP3    H250197   7.122   4.317   8.527  1.1017  0.7894 -0.0418
 8668TIP3   OH250198   2.143   6.499   8.524 -0.2977 -0.1665  0.6614
 8668TIP3    H150199   2.218   6.440   8.525  0.0401  0.2415  0.0442
 8668TIP3    H250200   2.172   6.576   8.574  0.6157  1.0555 -1.6011
 8669TIP3   OH250201   6.767   6.201   8.196 -0.3999  0.0333  0.2412
 8669TIP3    H150202   6.811   6.134   8.143 -0.1758  0.2614  0.1381
 8669TIP3    H250203   6.674   6.178   8.192 -0.2222 -0.9059  1.0837
 8670TIP3   OH250204   1.066   4.088   8.866  0.2235 -0.2848 -0.2972
 8670TIP3    H150205   1.011   4.033   8.922  1.2803  0.0316  1.1058
 8670TIP3    H250206   1.099   4.156   8.924  1.9775 -0.3763 -1.1167
 8671TIP3   OH250207   5.200   1.324   9.695  0.1349 -0.7178  0.0996
 8671TIP3    H150208   5.287   1.284   9.685  0.8598  0.4416  1.3495
 8671TIP3    H250209   5.139   1.252   9.683  1.2592 -1.5123 -1.0833
 8672TIP3   OH250210   8.203   2.288  10.109 -0.2496  0.1473 -0.0849
 8672TIP3    H150211   8.147   2.287  10.031  0.5517  1.3227 -0.7112
 8672TIP3    H250212   8.280   2.237  10.083  0.2434  0.9599 -0.2646
 8673TIP3   OH250213   6.277   5.098   9.753  0.0455  1.1698 -0.0552
 8673TIP3    H150214   6.275   5.054   9.668 -1.7513  2.2742 -0.6437
 8673TIP3    H250215   6.357   5.067   9.795  1.5293  1.3556 -2.5557
 8674TIP3   OH250216   5.706   7.632   9.166 -0.4651  0.2596  0.1504
 8674TIP3    H150217   5.630   7.679   9.132  0.0376  0.8505 -0.1916
 8674TIP3    H250218   5.702   7.546   9.124 -1.5430 -0.1191  0.9911
 8675TIP3   OH250219   8.344   7.635   8.523  0.0626  0.1139  0.2693
 8675TIP3    H150220   8.377   7.579   8.453  1.2297  1.1771 -0.0651
 8675TIP3    H250221   8.251   7.646   8.503 -0.1612 -1.4959  0.2345
 8676TIP3   OH250222   2.110   3.243   8.664 -0.0768 -0.2976 -0.1271
 8676TIP3    H150223   2.140   3.162   8.622  0.1537 -0.1015 -0.3366
 8676TIP3    H250224   2.189   3.295   8.675 -0.5227  0.9617 -2.2767
 8677TIP3   OH250225   1.368   1.886  10.197 -0.8225 -0.1649  0.2627
 8677TIP3    H150226   1.437   1.829  10.230 -0.3962  0.1726 -0.0372
 8677TIP3    H250227   1.410   1.937  10.128 -1.2201  0.4587  0.4755
 8678TIP3   OH250228   8.364   1.238   9.578  0.1777  0.3669 -0.5169
 8678TIP3    H150229   8.450   1.244   9.536  0.6308  0.5073  0.4104
 8678TIP3    H250230   8.347   1.144   9.584  0.5075  0.3255 -0.2178
 8679TIP3   OH250231   6.309   6.326   9.133  0.0656 -0.3714 -0.1066
 8679TIP3    H150232   6.392   6.301   9.174 -0.1564 -1.2039 -0.1426
 8679TIP3    H250233   6.329   6.332   9.040 -0.1723 -1.7780 -0.2699
 8680TIP3   OH250234   4.902   4.789   9.893 -0.1773  0.2887 -0.3182
 8680TIP3    H150235   4.848   4.828   9.824  0.3232  0.3424 -0.6892
 8680TIP3    H250236   4.925   4.702   9.860  0.5131  0.5211 -0.4690
 8681TIP3   OH250237   2.461   4.498   7.387  0.3163  0.1836 -0.3789
 8681TIP3    H150238   2.500   4.559   7.449 -1.1809 -0.5054  1.3090
 8681TIP3    H250239   2.376   4.537   7.365  0.4140 -0.0668 -1.2622
 8682TIP3   OH250240   2.662   4.623   9.024 -0.5386 -0.3407  0.0968
 8682TIP3    H150241   2.624   4.667   8.949 -1.6113 -0.9039  0.2900
 8682TIP3    H250242   2.588   4.607   9.083  0.0162 -1.3424  0.5464
 8683TIP3   OH250243   6.183   0.883   8.318  0.1798 -0.0063 -0.3701
 8683TIP3    H150244   6.235   0.962   8.333 -0.7918  0.9558 -1.7865
 8683TIP3    H250245   6.094   0.915   8.304 -0.5883 -1.5237  0.7853
 8684TIP3   OH250246   6.948   4.823   9.488 -1.1035 -0.1833  0.6895
 8684TIP3    H150247   6.914   4.849   9.402  0.7314 -1.6657 -0.5669
 8684TIP3    H250248   6.949   4.727   9.485  2.3448 -0.2608  0.8885
 8685TIP3   OH250249   7.941   0.985   8.937  0.4109 -0.0201  0.1449
 8685TIP3    H150250   7.860   0.946   8.971 -0.1960 -0.6424 -1.8903
 8685TIP3    H250251   8.011   0.936   8.980 -0.3320 -2.1659 -0.9660
 8686TIP3   OH250252   3.486   5.073   8.162  0.1685 -0.1525 -0.1275
 8686TIP3    H150253   3.392   5.071   8.145 -0.0299  1.1959  0.6628
 8686TIP3    H250254   3.526   5.082   8.075 -0.5316  1.1183 -0.3336
 8687TIP3   OH250255   5.745   7.986   8.863 -0.4488 -0.3822 -0.8139
 8687TIP3    H150256   5.691   7.983   8.942  0.3977  0.1991 -0.1937
 8687TIP3    H250257   5.787   7.899   8.860 -2.0007 -1.1363 -1.7467
 8688TIP3   OH250258   4.512   0.233   8.901 -0.2144 -0.3441 -0.2272
 8688TIP3    H150259   4.432   0.277   8.930  0.4431  1.0866 -0.4867
 8688TIP3    H250260   4.543   0.287   8.829  0.3741 -1.5439 -0.8834
 8689TIP3   OH250261   0.844   2.921   8.386  0.0813  0.0005 -0.2287
 8689TIP3    H150262   0.858   2.845   8.441 -2.0271  0.4273  1.0221
 8689TIP3    H250263   0.748   2.929   8.379  0.1765  2.8364  0.1972
 8690TIP3   OH250264   3.009   1.084  10.013  0.2239  0.4949 -0.0834
 8690TIP3    H150265   2.945   1.025   9.975  1.0665 -0.0407 -0.7113
 8690TIP3    H250266   2.961   1.166  10.027 -0.5748  0.1235 -0.5818
 8691TIP3   OH250267   1.279   6.421   8.864 -0.0589 -0.5303 -0.1596
 8691TIP3    H150268   1.209   6.371   8.822 -0.6022  0.4430 -0.4164
 8691TIP3    H250269   1.316   6.474   8.794  0.6212 -0.6653  0.0838
 8692TIP3   OH250270   6.653   5.949   9.558 -0.1620 -0.2484 -0.0974
 8692TIP3    H150271   6.648   5.915   9.468 -2.8327  0.8037 -0.4605
 8692TIP3    H250272   6.658   5.870   9.613 -0.5742 -0.9988 -1.1046
 8693TIP3   OH250273   6.839   0.365   9.490  0.9628 -0.0107 -0.3753
 8693TIP3    H150274   6.858   0.427   9.561 -2.0813 -0.2720  0.8375
 8693TIP3    H250275   6.880   0.283   9.518  0.3455  0.0593  0.8156
 8694TIP3   OH250276   5.619   1.881   8.341 -0.0106 -0.2801  0.3043
 8694TIP3    H150277   5.630   1.860   8.248 -3.2644  0.1794 -0.2973
 8694TIP3    H250278   5.576   1.804   8.378 -1.3395  0.6302  0.7285
 8695TIP3   OH250279   7.057   5.971   9.383 -0.1629  0.1784  0.1090
 8695TIP3    H150280   6.985   6.033   9.368  0.6520  0.6897 -2.1778
 8695TIP3    H250281   7.125   6.024   9.425 -0.8867 -0.2012  1.8629
 8696TIP3   OH250282   0.066   5.847   8.233 -0.6289 -0.3703 -0.4958
 8696TIP3    H150283   0.133   5.884   8.175 -0.5621 -1.3589 -1.0710
 8696TIP3    H250284   0.001   5.917   8.241 -0.1265  0.1598 -0.9207
 8697TIP3   OH250285   5.208   5.124   8.697 -0.4905 -0.1545 -0.3418
 8697TIP3    H150286   5.292   5.085   8.673 -0.4083  0.3688 -0.9374
 8697TIP3    H250287   5.201   5.203   8.642 -1.3972 -0.2221 -0.3476
 8698TIP3   OH250288   5.532   3.988   8.929  0.2313  0.4647 -0.2453
 8698TIP3    H150289   5.514   3.900   8.896 -0.4948  0.5742 -0.1586
 8698TIP3    H250290   5.621   4.007   8.899 -0.3464  0.5251 -2.0748
 8699TIP3   OH250291   3.529   0.396   7.783 -0.3461  0.2967 -0.5962
 8699TIP3    H150292   3.524   0.373   7.690 -1.2393 -1.1092 -0.2284
 8699TIP3    H250293   3.595   0.337   7.819 -0.0506  0.7920 -0.3073
 8700TIP3   OH250294   0.642   8.192   9.476  0.1878 -0.5239  0.2943
 8700TIP3    H150295   0.715   8.235   9.430 -0.3108 -0.6695 -0.6682
 8700TIP3    H250296   0.659   8.208   9.568  2.1861 -1.7409  0.1819
 8701TIP3   OH250297   5.851   0.246   7.798 -0.7494 -0.4122  0.0204
 8701TIP3    H150298   5.879   0.158   7.820 -2.2723 -0.8415  0.3430
 8701TIP3    H250299   5.902   0.269   7.720  1.0192 -0.8330  0.9988
 8702TIP3   OH250300   6.788   0.989   8.419  0.0395  0.4849 -0.5725
 8702TIP3    H150301   6.853   0.924   8.393 -0.6148  0.0842 -1.2235
 8702TIP3    H250302   6.706   0.957   8.383 -0.9566 -0.1321  2.0424
 8703TIP3   OH250303   6.487   2.555   9.558  0.5004  0.6819 -0.1628
 8703TIP3    H150304   6.518   2.590   9.475 -0.4125  1.2661 -0.2723
 8703TIP3    H250305   6.449   2.470   9.536  0.8302  0.5537 -0.2376
 8704TIP3   OH250306   8.205   1.384   8.578 -0.1178  0.0249  0.3634
 8704TIP3    H150307   8.266   1.441   8.624  1.1139 -1.9333  1.2948
 8704TIP3    H250308   8.158   1.337   8.647 -0.6617 -0.5461 -0.3695
 8705TIP3   OH250309   6.485   7.989   9.460  0.2932 -0.4866  0.5537
 8705TIP3    H150310   6.470   8.038   9.541 -0.5790 -0.8226  0.6069
 8705TIP3    H250311   6.397   7.964   9.431  0.3986  1.3227 -1.5792
 8706TIP3   OH250312   8.236   4.952   8.417 -0.0849  0.6870  0.0691
 8706TIP3    H150313   8.313   5.008   8.408  1.3455 -1.1958 -0.2317
 8706TIP3    H250314   8.169   5.009   8.453  1.8692  2.1041  1.7198
 8707TIP3   OH250315   7.652   3.651   8.302  0.7142  0.4064 -0.4765
 8707TIP3    H150316   7.567   3.664   8.260  0.9834 -0.6623 -1.3970
 8707TIP3    H250317   7.712   3.633   8.230  1.4607 -0.1204  0.2619
 8708TIP3   OH250318   7.785   7.513   9.703  0.0126 -0.0252 -0.1924
 8708TIP3    H150319   7.741   7.464   9.634 -0.0278  0.4086 -0.4770
 8708TIP3    H250320   7.875   7.479   9.703  0.1485  0.3224 -0.7991
 8709TIP3   OH250321   2.555   6.900   9.119 -0.1042  0.1105 -0.0009
 8709TIP3    H150322   2.525   6.964   9.184 -0.9794 -0.0206 -0.2599
 8709TIP3    H250323   2.474   6.865   9.081  0.3561  1.0841 -2.0543
 8710TIP3   OH250324   5.297   3.052   9.619 -0.5901  0.6163  0.0372
 8710TIP3    H150325   5.355   3.047   9.695  1.2638 -3.1802 -1.3793
 8710TIP3    H250326   5.220   3.000   9.643 -0.3850  0.1262 -0.3435
 8711TIP3   OH250327   4.216   8.249   8.587 -0.1476  0.4389 -0.7806
 8711TIP3    H150328   4.189   8.201   8.665  1.7390  0.6620  0.0620
 8711TIP3    H250329   4.147   8.314   8.574  0.6570  2.1104  2.2506
 8712TIP3   OH250330   1.292   1.453   8.255 -0.0200  0.0125 -0.4726
 8712TIP3    H150331   1.320   1.361   8.266 -1.4648 -0.3226  0.7376
 8712TIP3    H250332   1.241   1.453   8.175 -1.1231 -0.5670  0.1930
 8713TIP3   OH250333   0.582   0.066   9.884  0.4310  0.0648 -0.1011
 8713TIP3    H150334   0.669   0.105   9.884  0.4004  0.1315  0.0200
 8713TIP3    H250335   0.523   0.140   9.874  0.2572  0.2803  2.1143
 8714TIP3   OH250336   0.118   6.273   7.714  0.2812 -0.1393 -0.0654
 8714TIP3    H150337   0.071   6.355   7.731 -1.7309 -1.1343 -0.5110
 8714TIP3    H250338   0.086   6.213   7.782  0.2571 -1.1044 -0.9163
 8715TIP3   OH250339   8.284   3.017   8.396 -0.3280  0.5075  0.2880
 8715TIP3    H150340   8.278   3.066   8.314 -0.2675  2.7091  1.4965
 8715TIP3    H250341   8.377   2.995   8.404 -0.2882  0.5219 -0.1134
 8716TIP3   OH250342   2.241   6.452   8.894 -0.0484  0.3851 -0.6195
 8716TIP3    H150343   2.214   6.363   8.870  1.3044  0.3321 -2.1328
 8716TIP3    H250344   2.319   6.440   8.948  0.0910  0.6435 -0.7621
 8717TIP3   OH250345   7.501   3.556   9.988  0.2126 -0.0069 -0.0613
 8717TIP3    H150346   7.577   3.601   9.950  0.2143  1.4315  1.5231
 8717TIP3    H250347   7.483   3.604  10.069 -2.5990 -0.1019 -0.5365
 8718TIP3   OH250348   7.976   7.517   9.492 -0.7092  0.2892 -0.2086
 8718TIP3    H150349   8.064   7.552   9.476 -0.5494 -0.5666 -1.3296
 8718TIP3    H250350   7.988   7.422   9.495 -1.6433  0.1353 -0.7751
 8719TIP3   OH250351   1.225   6.525   9.344 -0.1761  0.5186 -0.4087
 8719TIP3    H150352   1.241   6.431   9.358 -0.2618  0.6439  0.5679
 8719TIP3    H250353   1.169   6.551   9.417 -0.7084  1.1949 -1.0453
 8720TIP3   OH250354   7.519   3.138   9.374  0.3134  0.0916  0.3127
 8720TIP3    H150355   7.455   3.179   9.433  0.2361  0.2553  0.1155
 8720TIP3    H250356   7.577   3.090   9.432 -0.0136 -0.0915  0.4921
 8721TIP3   OH250357   4.301   3.793   8.286  0.9086 -0.0053 -0.0739
 8721TIP3    H150358   4.207   3.779   8.284  0.8372  0.4318  0.1783
 8721TIP3    H250359   4.328   3.761   8.372  1.3447 -2.2810 -0.9732
 8722TIP3   OH250360   5.037   4.029  10.095  0.3238  0.9502  0.0725
 8722TIP3    H150361   5.129   4.027  10.120  0.8937  1.1394 -1.8405
 8722TIP3    H250362   5.038   4.017  10.000 -1.7522 -1.0530  0.2213
 8723TIP3   OH250363   2.216   7.968   9.088 -0.0763  0.2162 -0.3012
 8723TIP3    H150364   2.137   8.012   9.055  0.6006  1.1970 -0.6829
 8723TIP3    H250365   2.207   7.971   9.183 -0.1655  0.9680 -0.3277
 8724TIP3   OH250366   1.055   5.070   8.296 -0.0111 -0.1853  0.3584
 8724TIP3    H150367   1.018   5.154   8.323 -2.4643 -0.9851 -0.3418
 8724TIP3    H250368   1.098   5.088   8.213 -0.4806  0.3939  0.2380
 8725TIP3   OH250369   7.033   5.000   9.773 -0.1595  0.3363 -0.4336
 8725TIP3    H150370   7.116   4.957   9.791 -0.3584  0.3389  0.5154
 8725TIP3    H250371   6.988   4.941   9.712 -1.4052 -2.0736  2.5362
 8726TIP3   OH250372   5.649   4.484   8.754  0.3405  0.1695 -0.1411
 8726TIP3    H150373   5.722   4.481   8.816 -1.4691 -2.0920  2.1072
 8726TIP3    H250374   5.687   4.519   8.673  3.3378  1.2046  1.5696
 8727TIP3   OH250375   1.775   5.904   8.053 -0.5267  0.4243  0.3194
 8727TIP3    H150376   1.726   5.850   8.115 -2.3608 -0.8905 -2.0702
 8727TIP3    H250377   1.724   5.986   8.047 -2.5228 -0.8302 -1.9462
 8728TIP3   OH250378   2.314   4.334   8.782  0.1201  0.0142 -0.5970
 8728TIP3    H150379   2.376   4.297   8.720 -0.5192 -0.7470 -0.7877
 8728TIP3    H250380   2.306   4.426   8.756 -0.0902 -0.2823 -1.5995
 8729TIP3   OH250381   2.931   2.540   8.575 -0.0558  0.1842 -0.2406
 8729TIP3    H150382   2.937   2.612   8.512 -0.9067 -1.1544 -1.9538
 8729TIP3    H250383   2.855   2.560   8.629 -0.1920  0.6398 -0.5980
 8730TIP3   OH250384   3.077   7.960   9.685  0.3980  0.0334 -0.0560
 8730TIP3    H150385   3.019   7.884   9.678 -2.1906  2.0225 -2.1003
 8730TIP3    H250386   3.133   7.955   9.608 -0.4079  0.6301 -0.6980
 8731TIP3   OH250387   5.471   6.573   8.008  0.1100 -0.1436  0.5310
 8731TIP3    H150388   5.556   6.528   8.006 -0.2817 -1.0133  1.6354
 8731TIP3    H250389   5.407   6.501   8.010 -0.5171  0.3512  3.3576
 8732TIP3   OH250390   8.272   5.914  10.009  0.0794 -0.0160  0.0088
 8732TIP3    H150391   8.356   5.959   9.999  0.6803 -0.2516  3.1626
 8732TIP3    H250392   8.292   5.822   9.995  0.2730 -0.0341  0.4002
 8733TIP3   OH250393   4.714   3.554   9.727  0.1069 -0.0900 -0.3340
 8733TIP3    H150394   4.731   3.576   9.819  2.0805 -0.2893 -0.6080
 8733TIP3    H250395   4.678   3.466   9.730  1.1972 -0.5288  0.1964
 8734TIP3   OH250396   2.114   5.163   8.899 -0.3464 -0.1224  0.2380
 8734TIP3    H150397   2.179   5.113   8.948  0.9200  2.6807  1.5978
 8734TIP3    H250398   2.094   5.238   8.954  0.4005  2.7241 -3.0265
 8735TIP3   OH250399   6.125   4.463   8.767  0.1126 -0.0352 -0.0309
 8735TIP3    H150400   6.167   4.469   8.853 -0.3946  2.1964  0.1221
 8735TIP3    H250401   6.163   4.535   8.717 -1.5669  0.3819 -0.7532
 8736TIP3   OH250402   1.991   7.382   9.737 -0.2106 -0.8374  0.0394
 8736TIP3    H150403   1.984   7.437   9.659 -1.8435 -1.0414  0.0142
 8736TIP3    H250404   1.901   7.359   9.760  0.1346 -0.0794  2.5086
 8737TIP3   OH250405   8.436   4.360   9.442 -0.0249  0.3282  0.3395
 8737TIP3    H150406   8.469   4.270   9.438 -0.1521  0.2016  1.5788
 8737TIP3    H250407   8.477   4.396   9.521 -2.7644  0.1669  1.9501
 8738TIP3   OH250408   3.154   7.223   9.999 -0.0305 -0.1853  0.5784
 8738TIP3    H150409   3.094   7.237  10.072 -1.2243  0.8987 -0.5558
 8738TIP3    H250410   3.100   7.186   9.929  0.9885 -0.8002  0.0760
 8739TIP3   OH250411   2.570   1.053   7.854 -0.7573 -0.8748  0.7356
 8739TIP3    H150412   2.515   0.975   7.857 -2.7632  0.4958  1.9920
 8739TIP3    H250413   2.524   1.113   7.797  0.5700 -0.4266  0.0925
 8740TIP3   OH250414   1.102   6.538   7.770 -0.1543  0.4064 -0.2000
 8740TIP3    H150415   1.115   6.633   7.770  1.6062  0.2127 -1.5536
 8740TIP3    H250416   1.190   6.501   7.763 -0.6761 -1.4030  1.6760
 8741TIP3   OH250417   6.708   2.028   9.512  0.0157  0.1849  1.0466
 8741TIP3    H150418   6.761   2.051   9.588 -1.9364  2.6483  1.8220
 8741TIP3    H250419   6.639   1.972   9.546 -0.1649  0.2962  0.8724
 8742TIP3   OH250420   7.231   1.003   9.000  0.0101  0.0202 -0.0958
 8742TIP3    H150421   7.173   1.032   9.070 -1.9076  0.2466 -1.6796
 8742TIP3    H250422   7.251   1.083   8.951  1.8209 -0.0303  0.4770
 8743TIP3   OH250423   6.470   0.408   8.010  0.0263  0.0167  0.2998
 8743TIP3    H150424   6.532   0.376   7.945 -0.7469 -0.1781 -0.3629
 8743TIP3    H250425   6.476   0.503   8.003  0.2317  0.0003  0.2234
 8744TIP3   OH250426   2.760   1.250   7.954 -0.3165 -0.0357 -0.7043
 8744TIP3    H150427   2.718   1.335   7.963  1.1617  1.1686 -3.7688
 8744TIP3    H250428   2.688   1.188   7.942 -1.3647  0.9206  0.3735
 8745TIP3   OH250429   8.360   7.324   8.385 -0.1170  0.0373  0.1005
 8745TIP3    H150430   8.312   7.373   8.318 -0.5233  0.1942  0.4977
 8745TIP3    H250431   8.292   7.273   8.429  0.1827 -0.2421  0.2418
 8746TIP3   OH250432   6.010   8.033   9.357  0.1254 -0.0886 -0.1882
 8746TIP3    H150433   5.942   7.972   9.331  0.9611 -1.2752  0.3007
 8746TIP3    H250434   6.005   8.104   9.293 -0.2285 -1.1562 -1.3840
 8747TIP3   OH250435   4.735   3.573   7.788 -0.1242  0.4253  0.3338
 8747TIP3    H150436   4.784   3.605   7.713  1.8368  0.8686  1.7178
 8747TIP3    H250437   4.663   3.635   7.799  0.1514  0.9172 -0.5572
 8748TIP3   OH250438   3.775   5.397   8.848 -0.1281 -0.4778  0.2001
 8748TIP3    H150439   3.708   5.329   8.851 -1.1742  0.4737 -0.4073
 8748TIP3    H250440   3.774   5.428   8.757  0.2689  0.3906  0.4743
 8749TIP3   OH250441   3.382   1.369   9.743 -0.1125 -0.0916 -0.3950
 8749TIP3    H150442   3.465   1.375   9.790  0.0385  2.4115 -0.7869
 8749TIP3    H250443   3.328   1.310   9.795  2.2466 -2.7918 -0.7581
 8750TIP3   OH250444   3.193   4.436   8.944 -0.9961  0.1501  0.1352
 8750TIP3    H150445   3.257   4.469   9.006  0.7440 -1.3697 -0.7405
 8750TIP3    H250446   3.192   4.501   8.873 -1.2230  0.7035  0.6413
 8751TIP3   OH250447   6.518   0.629   7.625 -0.0103 -0.0890 -0.1110
 8751TIP3    H150448   6.512   0.680   7.544 -0.6065 -1.3306 -0.8852
 8751TIP3    H250449   6.452   0.668   7.682  0.3942  0.7851 -0.2401
 8752TIP3   OH250450   4.499   4.938   8.074  0.6022 -0.0883  0.6813
 8752TIP3    H150451   4.414   4.948   8.033  2.1637 -1.1326 -3.1913
 8752TIP3    H250452   4.536   5.026   8.075  0.8542 -0.1598 -1.0145
 8753TIP3   OH250453   7.516   7.578   9.779 -0.3433  0.4947 -0.0524
 8753TIP3    H150454   7.473   7.506   9.734  0.5982  0.5885 -1.1379
 8753TIP3    H250455   7.609   7.555   9.779 -0.2071  0.9843  0.9637
 8754TIP3   OH250456   5.962   2.100   8.466  0.0060 -0.3755 -0.0321
 8754TIP3    H150457   5.981   2.191   8.486 -1.1514 -0.6136  2.4246
 8754TIP3    H250458   5.868   2.099   8.446 -0.9549 -1.4719  3.7757
 8755TIP3   OH250459   2.759   7.593   8.216  0.4868  0.1311  0.3445
 8755TIP3    H150460   2.671   7.629   8.211 -0.3159 -1.7127  0.5933
 8755TIP3    H250461   2.773   7.576   8.309  0.3951 -1.2185  0.1268
 8756TIP3   OH250462   6.988   2.648   7.935 -0.2480  0.2446  0.4231
 8756TIP3    H150463   6.985   2.629   8.029 -0.5263  0.7985  0.5269
 8756TIP3    H250464   6.925   2.587   7.896 -0.9563  0.7767  0.7263
 8757TIP3   OH250465   3.421   7.031   9.893 -0.0720 -0.4471 -0.0977
 8757TIP3    H150466   3.367   7.096   9.848  1.4451  0.0873 -1.2265
 8757TIP3    H250467   3.413   6.952   9.839  0.9587 -0.0952 -0.8045
 8758TIP3   OH250468   4.419   0.481   8.315  0.5287  0.3498 -0.3031
 8758TIP3    H150469   4.450   0.391   8.327  1.3351  0.7556  0.7784
 8758TIP3    H250470   4.460   0.530   8.385 -0.7018  1.3915 -0.2789
 8759TIP3   OH250471   5.538   5.777   8.676  0.2064  0.0001  0.0410
 8759TIP3    H150472   5.572   5.688   8.669 -0.2419 -0.2212  0.6210
 8759TIP3    H250473   5.509   5.799   8.587  0.9441 -0.1704 -0.2482
 8760TIP3   OH250474   4.589   2.468   8.722  0.4255  0.2005  0.2895
 8760TIP3    H150475   4.595   2.529   8.795 -0.0799 -0.5405  0.9750
 8760TIP3    H250476   4.526   2.508   8.661  0.6990  0.7282  0.3564
 8761TIP3   OH250477   8.154   2.960   9.853  0.0877 -0.1122  0.4012
 8761TIP3    H150478   8.163   2.940   9.760  1.7398 -0.7513  0.6634
 8761TIP3    H250479   8.149   2.874   9.896 -0.3643  0.1713  0.9398
 8762TIP3   OH250480   8.442   7.071   8.339  0.4550  0.0503  0.0258
 8762TIP3    H150481   8.442   7.165   8.358 -0.6815 -0.2021  1.4896
 8762TIP3    H250482   8.426   7.029   8.424  1.8997 -1.5303 -0.4237
 8763TIP3   OH250483   2.651   1.516   7.667 -0.0550 -0.0335  0.6775
 8763TIP3    H150484   2.634   1.523   7.761 -0.9824  1.1695  0.4436
 8763TIP3    H250485   2.571   1.549   7.625 -0.4006 -2.2538 -0.5812
 8764TIP3   OH250486   2.773   5.821  13.343  0.6244 -0.2435 -0.1527
 8764TIP3    H150487   2.790   5.906  13.382 -0.5639  0.7410 -1.6900
 8764TIP3    H250488   2.678   5.810  13.349  0.4549 -0.2313 -2.3610
 8765TIP3   OH250489   6.231   3.654   7.982 -0.4547 -0.1905  0.3702
 8765TIP3    H150490   6.162   3.644   7.917  0.1146  1.4951 -0.5673
 8765TIP3    H250491   6.200   3.724   8.039  0.8907  1.3818 -0.7293
 8766TIP3   OH250492   6.746   7.252   8.507 -0.0525  0.1860  0.0041
 8766TIP3    H150493   6.740   7.280   8.416  0.4970 -1.9895 -0.7700
 8766TIP3    H250494   6.835   7.218   8.517 -0.7912 -1.7137  0.6500
 8767TIP3   OH250495   7.266   7.377   9.165  0.0261 -0.6597 -0.2117
 8767TIP3    H150496   7.172   7.364   9.158  0.1737 -2.0487  0.1780
 8767TIP3    H250497   7.281   7.391   9.259  0.2732 -0.9953 -0.2007
 8768TIP3   OH250498   2.834   5.346   9.285  0.4644  0.8116 -0.0395
 8768TIP3    H150499   2.800   5.392   9.361  1.5928 -2.1605  2.4727
 8768TIP3    H250500   2.759   5.342   9.225 -1.1679  1.3742  1.8428
 8769TIP3   OH250501   6.912   7.426   7.834  0.8581  0.4488  0.2905
 8769TIP3    H150502   6.954   7.341   7.848  0.7370  0.4316  0.5430
 8769TIP3    H250503   6.823   7.404   7.805  0.4555  0.4886  1.4607
 8770TIP3   OH250504   3.845   5.568   9.778 -0.2244 -0.1044  0.1090
 8770TIP3    H150505   3.775   5.610   9.827 -0.0966 -0.8702  0.9458
 8770TIP3    H250506   3.856   5.624   9.700 -0.1996  1.3048  1.0937
 8771TIP3   OH250507   6.866   1.108   9.397  0.1473  0.5637 -0.5215
 8771TIP3    H150508   6.803   1.042   9.427  0.5645 -0.5281 -1.9322
 8771TIP3    H250509   6.941   1.098   9.455 -0.2166  0.5638 -0.0429
 8772TIP3   OH250510   3.990   5.920   7.961 -0.1438  0.1620  0.5482
 8772TIP3    H150511   4.060   5.912   8.025  0.4619  0.2353 -0.0869
 8772TIP3    H250512   4.004   6.007   7.922 -0.3358  0.0064  0.1281
 8773TIP3   OH250513   6.670   4.314   8.621 -0.0153 -0.3495  0.2004
 8773TIP3    H150514   6.713   4.397   8.600  0.2776 -0.7105 -0.6786
 8773TIP3    H250515   6.583   4.338   8.652 -0.4488  0.2346 -1.3803
 8774TIP3   OH250516   4.604   6.658   8.250  0.0860 -0.1934 -0.2199
 8774TIP3    H150517   4.514   6.670   8.279 -1.2234 -1.0152 -3.5011
 8774TIP3    H250518   4.648   6.741   8.269 -2.0757  1.1331 -0.7593
 8775TIP3   OH250519   5.627   6.276   8.542  0.2006  0.0810  0.1754
 8775TIP3    H150520   5.541   6.249   8.510 -0.2621  0.3492  1.1502
 8775TIP3    H250521   5.631   6.241   8.631  0.6053  1.1178  0.5728
 8776TIP3   OH250522   0.783   6.290  13.297  0.2954  0.1060  0.5413
 8776TIP3    H150523   0.826   6.365  13.340  1.2903 -0.1779  0.0673
 8776TIP3    H250524   0.849   6.221  13.298  1.5357  0.9450 -4.0475
 8777TIP3   OH250525   4.163   4.081   8.222 -0.1562 -0.6523  0.5128
 8777TIP3    H150526   4.151   4.146   8.152  1.0054  0.0540  0.9388
 8777TIP3    H250527   4.141   3.998   8.181 -0.7528 -0.1065 -0.3229
 8778TIP3   OH250528   8.272   8.094   8.269 -0.1070  0.0907  0.3405
 8778TIP3    H150529   8.320   8.059   8.193  0.3874  1.7867 -0.1708
 8778TIP3    H250530   8.340   8.110   8.334  0.0197  1.9616 -0.1785
 8779TIP3   OH250531   2.938   5.110   7.960 -0.0317  0.2050 -0.0200
 8779TIP3    H150532   2.903   5.148   8.041 -0.4522  0.1970 -0.1989
 8779TIP3    H250533   3.016   5.062   7.988 -1.4130 -1.6894  0.7320
 8780TIP3   OH250534   2.118   1.553   8.344 -0.4971  0.0624  0.0153
 8780TIP3    H150535   2.058   1.572   8.271 -1.7614  1.3172  1.3108
 8780TIP3    H250536   2.066   1.499   8.404  1.0405 -2.3103 -0.6722
 8781TIP3   OH250537   1.248   8.165   9.133 -1.2097  0.0731  0.5698
 8781TIP3    H150538   1.289   8.106   9.069 -1.1839  0.1885  0.4792
 8781TIP3    H250539   1.263   8.122   9.218  0.4634  0.8735  0.7131
 8782TIP3   OH250540   1.351   3.638   7.975  0.1209  0.3597  0.2187
 8782TIP3    H150541   1.441   3.631   7.942 -0.0303  0.1181 -0.1335
 8782TIP3    H250542   1.296   3.638   7.897 -0.1723  0.8399  0.4165
 8783TIP3   OH250543   0.360   0.529   9.472  0.0177 -0.3766 -0.6774
 8783TIP3    H150544   0.420   0.454   9.472  0.4806 -0.0222 -1.3895
 8783TIP3    H250545   0.362   0.562   9.561 -1.2102 -2.0043 -0.0067
 8784TIP3   OH250546   7.545   0.498   8.462 -0.0589 -0.2203  0.0712
 8784TIP3    H150547   7.463   0.452   8.441 -1.2362  2.3151 -1.3070
 8784TIP3    H250548   7.554   0.489   8.557 -0.2592 -3.0724 -0.0721
 8785TIP3   OH250549   7.336   0.325   8.389  0.3554  0.5539 -0.0490
 8785TIP3    H150550   7.362   0.269   8.316 -0.4002 -1.4443  1.1480
 8785TIP3    H250551   7.254   0.366   8.360 -0.0795 -0.4331 -0.2375
 8786TIP3   OH250552   1.364   4.970   8.784 -0.2422 -0.6906  0.1840
 8786TIP3    H150553   1.394   4.931   8.702  0.5409 -1.1612  0.6734
 8786TIP3    H250554   1.389   5.062   8.777 -0.4845 -0.6556 -0.2449
 8787TIP3   OH250555   1.718   0.417   8.149  0.3322 -0.4238  0.3809
 8787TIP3    H150556   1.803   0.376   8.136 -0.3952 -1.5250 -1.4456
 8787TIP3    H250557   1.735   0.511   8.145  1.2805 -0.6135 -2.0190
 8788TIP3   OH250558   4.414   6.190   8.779 -0.0683 -0.1967 -0.1256
 8788TIP3    H150559   4.497   6.164   8.738  0.4100  1.0310  0.0031
 8788TIP3    H250560   4.427   6.171   8.872  0.1940  0.2471 -0.0641
 8789TIP3   OH250561   3.510   6.850   9.165  0.1170  0.3310  0.0799
 8789TIP3    H150562   3.441   6.799   9.123  1.9036 -1.6810 -0.5893
 8789TIP3    H250563   3.564   6.881   9.092  1.7148 -0.9118  0.6723
 8790TIP3   OH250564   3.315   2.196   8.319 -0.4575 -0.0566  0.2098
 8790TIP3    H150565   3.397   2.164   8.356 -1.1133 -2.1065 -0.0130
 8790TIP3    H250566   3.251   2.184   8.390 -0.7523  0.6833  0.0776
 8791TIP3   OH250567   0.298   5.541   9.446 -0.6612  0.3205  0.4177
 8791TIP3    H150568   0.381   5.532   9.492 -1.8739  1.6820  3.2022
 8791TIP3    H250569   0.321   5.552   9.354  2.4676  3.2222  1.3393
 8792TIP3   OH250570   2.547   0.308   9.831 -0.1577 -0.1494 -0.6824
 8792TIP3    H150571   2.527   0.215   9.829  1.2592 -0.5759  1.4940
 8792TIP3    H250572   2.589   0.326   9.747 -3.0394 -0.7356 -2.3737
 8793TIP3   OH250573   7.198   1.562   8.995 -0.2734  0.0492  0.0419
 8793TIP3    H150574   7.232   1.476   8.971 -1.1742 -0.1759 -0.4667
 8793TIP3    H250575   7.132   1.543   9.062 -1.0490  0.2539 -0.6459
 8794TIP3   OH250576   7.174   0.951   7.956 -0.4086  0.2797 -0.7152
 8794TIP3    H150577   7.250   0.909   7.917 -0.3758  0.2396 -0.6104
 8794TIP3    H250578   7.200   1.043   7.966 -0.7828  0.5019 -1.7046
 8795TIP3   OH250579   3.077   7.207   9.061  0.4513 -0.4928  0.1696
 8795TIP3    H150580   3.056   7.299   9.076 -0.7126 -0.7806  0.3471
 8795TIP3    H250581   3.130   7.208   8.981  0.1891  0.3065 -0.0061
 8796TIP3   OH250582   8.425   1.947   8.955  0.6218  0.2266  1.5119
 8796TIP3    H150583   8.417   1.989   9.041  0.2468  0.6392  1.2850
 8796TIP3    H250584   8.338   1.958   8.916  1.0688  0.9280  0.6849
 8797TIP3   OH250585   7.317   6.654  10.004  0.0470 -0.1173  0.8073
 8797TIP3    H150586   7.412   6.655  10.010  0.0558  2.7975  1.3341
 8797TIP3    H250587   7.287   6.658  10.094 -0.6372 -1.8906  0.6924
 8798TIP3   OH250588   5.491   5.890   9.505 -0.0036  0.1506  0.3495
 8798TIP3    H150589   5.531   5.880   9.419  0.8292 -1.2742  0.8729
 8798TIP3    H250590   5.484   5.801   9.539 -0.5384  0.6682  1.6586
 8799TIP3   OH250591   5.862   1.246   8.384 -0.3324  0.0017 -0.0943
 8799TIP3    H150592   5.855   1.337   8.353  0.5548  0.2080  0.2992
 8799TIP3    H250593   5.787   1.235   8.443 -1.0243  0.1546 -0.9229
 8800TIP3   OH250594   5.883   0.296  10.121 -0.4984  0.1132  0.1626
 8800TIP3    H150595   5.844   0.250  10.195 -0.9433  1.3359  0.7236
 8800TIP3    H250596   5.919   0.376  10.159  1.9106 -0.5916 -0.4731
 8801TIP3   OH250597   5.946   0.657   7.842  0.3029  0.0658  0.1513
 8801TIP3    H150598   5.928   0.746   7.871  0.7690  0.5056 -0.8594
 8801TIP3    H250599   6.039   0.643   7.861  0.4838  0.1720 -0.6100
 8802TIP3   OH250600   7.778   7.024   9.078  0.1912 -0.2273  0.0186
 8802TIP3    H150601   7.711   7.000   9.014  1.7932  1.4110 -2.4870
 8802TIP3    H250602   7.835   6.948   9.084  0.1777 -0.3050 -0.7710
 8803TIP3   OH250603   5.054   4.729   8.797  0.3881 -0.2536  0.2243
 8803TIP3    H150604   5.096   4.801   8.751 -1.9795  1.8852  1.1950
 8803TIP3    H250605   5.105   4.719   8.878  0.7302  0.3511  0.0878
 8804TIP3   OH250606   8.140   8.222   9.109 -0.2298 -0.4096  0.2275
 8804TIP3    H150607   8.180   8.135   9.106 -0.0763 -0.3395  0.2322
 8804TIP3    H250608   8.210   8.279   9.141 -1.0518 -0.7004  2.6855
 8805TIP3   OH250609   5.776   6.506   8.016 -0.1867 -0.1611 -0.0197
 8805TIP3    H150610   5.834   6.499   8.091  0.8912 -0.1151 -0.8239
 8805TIP3    H250611   5.785   6.422   7.971 -0.7158 -0.1353 -0.1829
 8806TIP3   OH250612   4.847   0.860   9.806  0.8317  0.2861 -1.4281
 8806TIP3    H150613   4.756   0.864   9.775 -0.1355 -0.7434  1.0305
 8806TIP3    H250614   4.869   0.766   9.803  1.0245  0.2620 -0.0189
 8807TIP3   OH250615   4.549   2.281   8.390  0.3016  0.0570  0.4468
 8807TIP3    H150616   4.560   2.376   8.387 -1.7312  0.3614  1.2880
 8807TIP3    H250617   4.457   2.267   8.410  0.3514 -2.1333 -0.5242
 8808TIP3   OH250618   5.065   3.688   9.145 -0.2159 -0.0566  0.3896
 8808TIP3    H150619   5.147   3.723   9.110 -0.7973  0.7728 -0.1890
 8808TIP3    H250620   5.013   3.766   9.166 -0.4267 -0.5550  1.8172
 8809TIP3   OH250621   6.791   0.083   7.479  0.0764  0.5698 -0.1323
 8809TIP3    H150622   6.884   0.107   7.481  0.2671 -0.0700 -0.7408
 8809TIP3    H250623   6.769   0.080   7.386 -0.2131 -0.5140 -0.0431
 8810TIP3   OH250624   2.104   4.318   7.876  0.1007  0.1752  0.7748
 8810TIP3    H150625   2.158   4.362   7.809 -0.6058 -0.1066 -0.0022
 8810TIP3    H250626   2.036   4.274   7.825  0.1992 -0.9769  1.6141
 8811TIP3   OH250627   0.902   6.326   8.949  0.0463 -0.4819 -0.0093
 8811TIP3    H150628   0.968   6.330   8.880  1.0444  1.6268  0.9719
 8811TIP3    H250629   0.911   6.238   8.986  0.8803 -0.9306 -1.2327
 8812TIP3   OH250630   3.489   8.430   8.012 -0.5921  0.5046  0.8440
 8812TIP3    H150631   3.402   8.460   8.037 -0.9642  1.7273 -1.6154
 8812TIP3    H250632   3.535   8.509   7.985  0.3218 -0.4567 -0.5676
 8813TIP3   OH250633   0.842   4.915   8.489 -0.1440 -0.1290 -0.1235
 8813TIP3    H150634   0.787   4.986   8.521  0.5092  0.3895 -0.1268
 8813TIP3    H250635   0.925   4.927   8.535  0.2278 -0.4284 -0.7045
 8814TIP3   OH250636   3.773   5.737   8.833 -0.2586  0.3649  0.3152
 8814TIP3    H150637   3.721   5.774   8.904 -0.7232  0.4036 -0.0454
 8814TIP3    H250638   3.828   5.670   8.876  2.0456  2.7256  1.3633
 8815TIP3   OH250639   3.549   8.248   8.838  0.2346 -0.7350  0.1606
 8815TIP3    H150640   3.588   8.207   8.761  1.1142 -1.2509  0.8517
 8815TIP3    H250641   3.565   8.342   8.826 -0.7617 -0.6775 -0.8734
 8816TIP3   OH250642   0.708   3.417   9.036  0.5385 -0.1275  0.4084
 8816TIP3    H150643   0.756   3.411   8.953  0.8131 -0.8978  0.6178
 8816TIP3    H250644   0.774   3.399   9.103  0.1876 -0.0881  0.7690
 8817TIP3   OH250645   1.638   1.049   7.890 -0.3428 -0.1052 -0.5975
 8817TIP3    H150646   1.556   1.090   7.918 -0.5728 -1.2361  0.4935
 8817TIP3    H250647   1.691   1.043   7.969  0.5791  0.1070 -1.1837
 8818TIP3   OH250648   8.199   4.249   9.085  0.0614 -0.2995 -0.4476
 8818TIP3    H150649   8.175   4.337   9.056 -0.8494  0.0557  1.2633
 8818TIP3    H250650   8.183   4.193   9.009 -4.4515  0.2024 -0.1084
 8819TIP3   OH250651   8.094   7.834   8.292 -0.1008  0.2932  0.3043
 8819TIP3    H150652   8.161   7.802   8.233 -0.5924 -0.2763  0.0478
 8819TIP3    H250653   8.142   7.883   8.359  0.2988  3.5367 -2.1132
 8820TIP3   OH250654   4.760   2.372   9.205 -0.2181 -0.6860 -0.2959
 8820TIP3    H150655   4.669   2.343   9.214 -0.2549 -0.2650  0.8419
 8820TIP3    H250656   4.790   2.386   9.295  1.0353 -0.9821 -0.6454
 8821TIP3   OH250657   6.409   6.289   9.939 -0.4917 -0.4056  0.1198
 8821TIP3    H150658   6.438   6.247   9.858 -1.8209 -0.3829 -0.4038
 8821TIP3    H250659   6.433   6.228  10.008 -0.5285 -1.0610 -0.4316
 8822TIP3   OH250660   3.916   1.678   8.688  0.0787  0.1923 -0.2456
 8822TIP3    H150661   3.962   1.743   8.635 -1.3364  1.5037  0.0631
 8822TIP3    H250662   3.954   1.688   8.776 -1.7221  2.3087  0.3564
 8823TIP3   OH250663   3.512   5.669   7.916 -0.1583 -0.2083  0.0264
 8823TIP3    H150664   3.516   5.687   7.822 -0.6170 -2.4191 -0.4783
 8823TIP3    H250665   3.598   5.694   7.949  0.8021 -1.4562 -1.4069
 8824TIP3   OH250666   6.542   2.111   7.982  1.0454 -0.1802 -0.0099
 8824TIP3    H150667   6.522   2.080   8.070  2.2454  0.1195  0.3922
 8824TIP3    H250668   6.471   2.077   7.928  1.8301 -2.9426  0.5366
 8825TIP3   OH250669   7.922   5.282   7.737  0.5720  0.4218 -0.0763
 8825TIP3    H150670   7.880   5.275   7.651  1.0836  0.4027 -0.3259
 8825TIP3    H250671   7.877   5.217   7.791 -0.8635  1.5413  0.1420
 8826TIP3   OH250672   4.524   5.650   9.135 -0.2684 -0.5499 -0.4846
 8826TIP3    H150673   4.441   5.662   9.181 -0.4657 -1.0240 -0.7026
 8826TIP3    H250674   4.586   5.705   9.182 -0.5359 -0.7804  0.1531
 8827TIP3   OH250675   1.070   7.662   9.017 -0.4782 -0.2998 -0.3779
 8827TIP3    H150676   1.154   7.671   8.972  0.0173  0.4428  0.6379
 8827TIP3    H250677   1.071   7.733   9.082 -1.2687 -1.1636  0.6005
 8828TIP3   OH250678   3.146   7.118   9.364 -0.6957 -0.4371  0.8099
 8828TIP3    H150679   3.239   7.096   9.356 -1.1924 -2.1940 -1.0124
 8828TIP3    H250680   3.123   7.154   9.278 -1.9422 -1.0656  0.8645
 8829TIP3   OH250681   4.687   3.105   8.793  0.0038 -0.1037  0.2638
 8829TIP3    H150682   4.702   3.147   8.877  1.5434 -0.0590  0.0003
 8829TIP3    H250683   4.693   3.011   8.812  1.7192 -0.0763  0.0120
 8830TIP3   OH250684   2.322   3.382   8.770 -0.4898  0.8475 -0.0612
 8830TIP3    H150685   2.383   3.457   8.771  0.6349 -0.0315 -0.0938
 8830TIP3    H250686   2.281   3.384   8.856  0.8618  0.4785  0.6229
 8831TIP3   OH250687   7.765   3.741   8.534  0.5131 -0.2094 -0.2247
 8831TIP3    H150688   7.722   3.737   8.449  1.2045 -0.2022 -0.5880
 8831TIP3    H250689   7.745   3.657   8.575 -0.2455 -0.0109 -0.1773
 8832TIP3   OH250690   2.883   7.160   9.454  0.0840  0.5893 -0.2366
 8832TIP3    H150691   2.977   7.149   9.438  0.3524  1.3503  0.7317
 8832TIP3    H250692   2.853   7.213   9.380 -0.0507 -1.5060 -1.7418
 8833TIP3   OH250693   1.706   0.695   9.056  0.3199 -0.3025 -0.0903
 8833TIP3    H150694   1.652   0.710   9.133 -1.3044 -2.0847 -0.7833
 8833TIP3    H250695   1.739   0.781   9.032  0.4798  0.3623  2.2753
 8834TIP3   OH250696   7.033   0.096   7.946 -0.2566 -0.0860 -0.5006
 8834TIP3    H150697   7.070   0.141   7.869  0.5556  2.1797  1.1106
 8834TIP3    H250698   6.998   0.166   8.000 -2.4901 -1.7792  0.3939
 8835TIP3   OH250699   5.054   1.738   8.148 -0.1634 -0.1865 -0.4258
 8835TIP3    H150700   4.961   1.749   8.170  0.1580 -0.2235  1.0559
 8835TIP3    H250701   5.054   1.688   8.067 -1.4326 -1.7176  0.4567
 8836TIP3   OH250702   8.160   0.522   9.638  0.0093 -0.0075  0.0420
 8836TIP3    H150703   8.246   0.517   9.680 -1.2002 -1.2418  2.6096
 8836TIP3    H250704   8.152   0.439   9.590  1.2507  1.2596 -2.5858
 8837TIP3   OH250705   3.635   6.692   8.060  0.4476 -0.4342  0.0311
 8837TIP3    H150706   3.681   6.753   8.118  0.3133 -1.1767  0.9485
 8837TIP3    H250707   3.664   6.605   8.089 -0.4786 -0.8557 -0.2775
 8838TIP3   OH250708   0.075   7.911   8.690  0.3774 -0.5771 -0.1406
 8838TIP3    H150709   0.074   7.900   8.595 -0.2378 -1.0876 -0.0798
 8838TIP3    H250710  -0.007   7.871   8.720  0.8646 -0.9977  0.6639
 8839TIP3   OH250711   4.089   7.835   8.455  0.2708  0.0565 -0.0951
 8839TIP3    H150712   4.115   7.743   8.453  0.8552  0.2020  0.2946
 8839TIP3    H250713   4.144   7.877   8.389 -0.0722  0.1123 -0.3492
 8840TIP3   OH250714   0.154   3.213   7.670 -0.0762 -0.4382  0.2362
 8840TIP3    H150715   0.144   3.252   7.757  0.6571 -0.7560  0.4656
 8840TIP3    H250716   0.189   3.125   7.686  0.8404 -0.2091 -0.4206
 8841TIP3   OH250717   0.104   1.009   8.055 -0.0978  0.1711  0.1937
 8841TIP3    H150718   0.157   0.955   8.114 -0.3070  0.4686  0.6628
 8841TIP3    H250719   0.023   0.960   8.045  0.1568 -0.1567 -0.3133
 8842TIP3   OH250720   5.766   1.710   9.137 -0.8908  0.0483  0.9451
 8842TIP3    H150721   5.759   1.616   9.122 -0.8778  0.1485  0.2577
 8842TIP3    H250722   5.852   1.722   9.177  0.4994  0.0620 -1.8245
 8843TIP3   OH250723   7.083   5.552   8.536  0.1441 -0.2461  0.0784
 8843TIP3    H150724   7.143   5.597   8.596  0.2853 -0.8617  0.4005
 8843TIP3    H250725   7.138   5.527   8.462  0.3372 -0.9934  0.4668
 8844TIP3   OH250726   8.325   6.108   8.716  0.2096  0.7450 -0.1910
 8844TIP3    H150727   8.285   6.063   8.791  0.5116  0.9599  0.0999
 8844TIP3    H250728   8.388   6.044   8.681  1.3113  1.2625  0.7828
 8845TIP3   OH250729   8.154   2.982   7.559  0.2812 -0.0201  0.5534
 8845TIP3    H150730   8.110   3.052   7.510  2.3195  1.9116  1.2736
 8845TIP3    H250731   8.112   2.983   7.645 -1.2930 -1.3864 -0.1446
 8846TIP3   OH250732   6.491   7.110   9.971  0.4614  0.3274 -0.0138
 8846TIP3    H150733   6.563   7.091   9.911  1.0464 -1.3128  1.1360
 8846TIP3    H250734   6.495   7.039  10.036 -1.1352  1.1564  1.0399
 8847TIP3   OH250735   0.311   1.420   7.696  0.4538  0.1299  0.1890
 8847TIP3    H150736   0.275   1.415   7.607 -0.5435 -1.6886  0.6514
 8847TIP3    H250737   0.374   1.349   7.701  2.6840  1.9815  0.0893
 8848TIP3   OH250738   4.992   1.954   8.436 -0.1229  0.3118  0.6155
 8848TIP3    H150739   5.005   2.048   8.427 -0.3437  0.1463 -3.4725
 8848TIP3    H250740   4.899   1.944   8.458  0.0941  1.0092  1.9381
 8849TIP3   OH250741   7.151   7.006  10.224  0.3382 -0.2621  0.0128
 8849TIP3    H150742   7.219   7.070  10.203  0.8249 -1.0621 -0.9257
 8849TIP3    H250743   7.197   6.923  10.231 -0.6749 -1.0160 -1.7639
 8850TIP3   OH250744   6.540   5.028   7.888  0.2152  0.1780  0.2028
 8850TIP3    H150745   6.576   5.014   7.976  1.7835  0.6540 -0.3374
 8850TIP3    H250746   6.452   5.062   7.904 -0.6404 -2.4488  1.5583
 8851TIP3   OH250747   0.204   0.099  10.274  0.6184 -0.7675 -0.0481
 8851TIP3    H150748   0.240   0.087  10.186 -1.4241  1.0317 -1.2333
 8851TIP3    H250749   0.270   0.150  10.321  1.0150 -0.2897 -1.1112
 8852TIP3   OH250750   6.624   5.210   8.492  0.2083  0.3041  0.2667
 8852TIP3    H150751   6.566   5.136   8.475  0.1668  0.7653 -1.7581
 8852TIP3    H250752   6.694   5.173   8.546  0.0417 -1.1614 -0.4647
 8853TIP3   OH250753   6.796   6.876   7.928  0.1309 -0.2172 -0.0632
 8853TIP3    H150754   6.865   6.876   7.994  0.8980  2.0840 -0.7284
 8853TIP3    H250755   6.717   6.849   7.974  0.8787  0.1512  1.4954
 8854TIP3   OH250756   6.009   3.438   8.741 -0.7024  0.7745  0.6853
 8854TIP3    H150757   6.024   3.506   8.676 -1.2786 -0.3660 -0.6880
 8854TIP3    H250758   6.096   3.402   8.759 -0.4178  1.7354  1.3007
 8855TIP3   OH250759   1.123   5.381   8.679  0.4511  0.0395 -0.4840
 8855TIP3    H150760   1.174   5.328   8.618  0.5192 -0.4509 -0.0105
 8855TIP3    H250761   1.188   5.417   8.740  0.1869 -1.0630  0.4784
 8856TIP3   OH250762   7.176   0.298  10.448 -0.3231 -0.1934 -0.3689
 8856TIP3    H150763   7.086   0.309  10.418 -0.2020  0.5520 -0.4900
 8856TIP3    H250764   7.170   0.237  10.521 -1.0118  0.3266  0.0247
 8857TIP3   OH250765   2.561   3.519   7.576 -0.1577  0.4365  0.4834
 8857TIP3    H150766   2.505   3.589   7.542 -0.6031 -0.0032  0.2885
 8857TIP3    H250767   2.650   3.553   7.570 -0.4522  1.4674  1.5547
 8858TIP3   OH250768   4.329   5.829   9.949  0.1007  0.3204 -0.1938
 8858TIP3    H150769   4.357   5.780  10.026  0.0030 -1.7769 -1.4015
 8858TIP3    H250770   4.240   5.857   9.969  0.1096 -0.1171  0.4955
 8859TIP3   OH250771   1.498   4.486   7.952 -0.1484  0.2455 -0.3985
 8859TIP3    H150772   1.547   4.510   8.031 -0.1503  0.3910 -0.4419
 8859TIP3    H250773   1.418   4.444   7.985 -0.7971  1.5144 -0.2902
 8860TIP3   OH250774   7.081   3.423   8.745 -0.1274  0.3513 -0.0205
 8860TIP3    H150775   7.157   3.401   8.691  1.2805  2.7844  0.8271
 8860TIP3    H250776   7.040   3.338   8.762  1.1099 -0.8307 -2.3077
 8861TIP3   OH250777   5.251   5.620  10.647  0.3750  0.0802 -0.4456
 8861TIP3    H150778   5.344   5.606  10.626  0.3184 -0.6693 -0.2458
 8861TIP3    H250779   5.234   5.710  10.621  1.5496  0.7475  0.9019
 8862TIP3   OH250780   3.866   4.949   8.718  0.2305 -0.3937 -0.3970
 8862TIP3    H150781   3.925   4.958   8.644 -0.5239  1.7341 -0.8114
 8862TIP3    H250782   3.899   4.873   8.766  1.7264 -0.8145 -1.9919
 8863TIP3   OH250783   7.316   0.050   9.316 -0.0792 -0.4258 -0.0933
 8863TIP3    H150784   7.367   0.042   9.236  1.4013 -0.2612  0.7821
 8863TIP3    H250785   7.291  -0.039   9.338 -1.2590 -0.3855 -1.1847
 8864TIP3   OH250786   3.769   5.146   8.535 -0.0232 -0.2668  0.3149
 8864TIP3    H150787   3.750   5.077   8.599  0.1662 -1.2738 -0.6710
 8864TIP3    H250788   3.769   5.100   8.450 -0.5376  1.0723 -0.4370
 8865TIP3   OH250789   3.894   2.335   8.028  0.3874 -0.2228  0.3048
 8865TIP3    H150790   3.949   2.400   8.071 -0.7464  0.3850  0.8787
 8865TIP3    H250791   3.852   2.288   8.099 -1.6483  0.9146 -0.0562
 8866TIP3   OH250792   0.587   7.333   8.703  0.1707 -0.4738 -0.5566
 8866TIP3    H150793   0.530   7.364   8.773  1.6403 -0.0128  0.5016
 8866TIP3    H250794   0.567   7.240   8.695 -1.0284 -0.2272 -0.5303
 8867TIP3   OH250795   5.095   5.561   8.845 -0.4516 -0.2324  0.2943
 8867TIP3    H150796   5.134   5.615   8.776 -0.9506  0.5366  0.6024
 8867TIP3    H250797   5.131   5.597   8.926 -0.4748 -0.6329  0.4845
 8868TIP3   OH250798   0.063   6.410   8.258 -0.6660  0.7749 -0.7383
 8868TIP3    H150799   0.014   6.337   8.221 -0.0937 -0.6255  1.1159
 8868TIP3    H250800   0.001   6.483   8.259 -1.3822  0.2193 -2.2337
 8869TIP3   OH250801   6.931   6.220   9.407 -0.6322 -0.0499 -0.5631
 8869TIP3    H150802   6.970   6.308   9.413 -1.6020  0.5127 -2.0092
 8869TIP3    H250803   6.938   6.198   9.314 -1.1563 -1.1645 -0.3463
 8870TIP3   OH250804   0.963   1.224   8.442  0.0635 -0.6144  0.3205
 8870TIP3    H150805   0.994   1.314   8.449 -3.4825  0.6875  1.7158
 8870TIP3    H250806   0.956   1.195   8.533 -0.6688 -1.5723 -0.0276
 8871TIP3   OH250807   7.300   6.233   8.848 -0.2803  0.2561  0.2605
 8871TIP3    H150808   7.303   6.247   8.943  0.2338 -0.6831  0.3952
 8871TIP3    H250809   7.265   6.315   8.813 -0.9795  0.4214  1.3001
 8872TIP3   OH250810   2.129   6.439   9.170  0.0674 -0.2518  0.1104
 8872TIP3    H150811   2.115   6.350   9.201 -1.0564  0.5764  2.1540
 8872TIP3    H250812   2.169   6.428   9.083 -0.3462 -2.7108  0.1618
 8873TIP3   OH250813   5.677   1.232   8.582 -0.5504 -0.6894  0.0503
 8873TIP3    H150814   5.737   1.289   8.631  0.7199 -1.4467 -0.5597
 8873TIP3    H250815   5.590   1.254   8.615  0.2939 -2.1384  3.6818
 8874TIP3   OH250816   3.628   7.627   9.185  0.4056  0.3750  0.1315
 8874TIP3    H150817   3.573   7.613   9.262 -1.7467  0.3055 -1.3494
 8874TIP3    H250818   3.663   7.540   9.164 -1.5391 -0.2325 -0.7668
 8875TIP3   OH250819   4.317   1.553   8.758  0.0010  0.3629 -0.1617
 8875TIP3    H150820   4.392   1.519   8.806  0.2093  1.5046  0.3534
 8875TIP3    H250821   4.241   1.510   8.798  0.3905 -1.1662 -1.0144
 8876TIP3   OH250822   2.795   1.972   9.394 -0.2653 -0.4120 -0.5640
 8876TIP3    H150823   2.818   1.967   9.487 -0.0320  1.6144 -0.4655
 8876TIP3    H250824   2.727   1.906   9.383 -1.5853  0.4810  1.4951
 8877TIP3   OH250825   7.879   5.046   9.576 -0.1928 -0.3509 -1.1523
 8877TIP3    H150826   7.839   5.126   9.610  0.6598 -0.4691  0.2131
 8877TIP3    H250827   7.949   5.026   9.638 -0.6385 -2.3763 -1.2185
 8878TIP3   OH250828   5.234   4.080   9.500 -0.0229  0.2179 -0.2769
 8878TIP3    H150829   5.194   4.128   9.572  0.0324  0.1307 -0.1886
 8878TIP3    H250830   5.238   3.989   9.530  1.9659  0.5033  0.4729
 8879TIP3   OH250831   3.557   7.263   8.265  0.5149 -0.2027 -0.6162
 8879TIP3    H150832   3.602   7.231   8.187 -0.5259 -0.2497 -1.2135
 8879TIP3    H250833   3.571   7.357   8.264  0.0381 -0.1375 -1.1629
 8880TIP3   OH250834   1.296   5.466   8.053 -0.1318  0.5968 -0.2694
 8880TIP3    H150835   1.221   5.526   8.059 -1.7270 -1.4240  1.4925
 8880TIP3    H250836   1.314   5.460   7.959 -2.6149  0.6751 -0.8242
 8881TIP3   OH250837   4.291   4.204   9.920  0.2535 -0.0491  0.3033
 8881TIP3    H150838   4.285   4.278   9.860  0.7599 -1.1496 -1.1869
 8881TIP3    H250839   4.384   4.199   9.942  0.7373 -1.7948 -1.7769
 8882TIP3   OH250840   8.208   3.616   9.511  0.1338  0.1359  0.0511
 8882TIP3    H150841   8.205   3.611   9.607  0.3980 -1.6247  0.0004
 8882TIP3    H250842   8.117   3.629   9.485  0.1421  1.3219  0.5453
 8883TIP3   OH250843   4.260   4.520   8.242 -0.1331 -0.4282  0.0546
 8883TIP3    H150844   4.241   4.605   8.203 -0.5525 -0.2266  0.6808
 8883TIP3    H250845   4.355   4.521   8.257 -0.3160  0.4704  1.2878
 8884TIP3   OH250846   1.750   8.247   8.824 -0.0492 -0.0995 -0.0747
 8884TIP3    H150847   1.662   8.285   8.826 -0.4593 -1.0098 -0.3549
 8884TIP3    H250848   1.807   8.318   8.853 -1.0734 -0.0264  1.9847
 8885TIP3   OH250849   1.692   5.705   7.857  0.2279 -0.3489 -0.6513
 8885TIP3    H150850   1.608   5.702   7.813  1.1625  1.3963 -2.7191
 8885TIP3    H250851   1.697   5.793   7.895  0.5582 -0.9224  0.7063
 8886TIP3   OH250852   7.315   7.549   8.965 -0.0346 -0.0056  0.2274
 8886TIP3    H150853   7.256   7.619   8.992 -0.9360 -1.3834  2.0827
 8886TIP3    H250854   7.328   7.497   9.045  3.1493 -0.1832 -0.2716
 8887TIP3   OH250855   3.538   5.169   9.181 -0.6298  0.1833 -0.2180
 8887TIP3    H150856   3.561   5.207   9.265 -0.0474 -1.1383  0.2467
 8887TIP3    H250857   3.592   5.090   9.175  0.0801  0.7489 -2.2679
 8888TIP3   OH250858   5.827   2.028   8.759 -0.1537 -0.4059 -0.2225
 8888TIP3    H150859   5.862   1.992   8.678 -1.0030 -1.0692 -0.3037
 8888TIP3    H250860   5.785   1.954   8.802  1.1291 -0.2966  1.3067
 8889TIP3   OH250861   7.318   5.664   7.998 -0.1720 -0.1332  0.1578
 8889TIP3    H150862   7.245   5.652   7.938 -0.1607  2.2063 -0.4408
 8889TIP3    H250863   7.351   5.752   7.978  1.0146 -0.0096  2.3198
 8890TIP3   OH250864   5.190   0.494   9.433  0.2326 -0.1149 -0.9372
 8890TIP3    H150865   5.235   0.538   9.505  0.2673 -0.5968 -0.6600
 8890TIP3    H250866   5.255   0.434   9.398  0.0875 -0.1701 -1.1107
 8891TIP3   OH250867   7.743   5.985   9.348 -0.3318  0.2072 -0.3441
 8891TIP3    H150868   7.787   5.916   9.298  0.9232  1.1887 -0.6592
 8891TIP3    H250869   7.667   5.942   9.388 -0.8779 -0.8223 -2.3621
 8892TIP3   OH250870   1.196   1.526   9.210 -0.2323  0.3181 -0.5131
 8892TIP3    H150871   1.210   1.598   9.272  1.3947 -0.8110  0.5317
 8892TIP3    H250872   1.155   1.457   9.263 -0.0996 -0.1758 -1.0453
 8893TIP3   OH250873   7.668   0.033   9.473 -0.0012 -0.0534  0.0873
 8893TIP3    H150874   7.656  -0.024   9.548 -0.7618 -0.0597 -0.0379
 8893TIP3    H250875   7.737   0.094   9.500  1.0735 -1.2302  0.0984
 8894TIP3   OH250876   1.468   8.291   7.747 -0.0769  0.7516  0.1398
 8894TIP3    H150877   1.542   8.272   7.804 -0.7992 -2.7468  0.1507
 8894TIP3    H250878   1.391   8.268   7.799 -0.8745 -0.2434 -1.4081
 8895TIP3   OH250879   6.769   5.479   8.354  0.3967 -0.0365  0.3725
 8895TIP3    H150880   6.809   5.503   8.438  0.7348 -1.8362  0.7600
 8895TIP3    H250881   6.737   5.390   8.366 -0.4044  0.0072 -1.1291
 8896TIP3   OH250882   1.285   2.775   9.885 -0.8848  0.5848  0.3094
 8896TIP3    H150883   1.367   2.727   9.893 -1.1986  0.0225  0.2432
 8896TIP3    H250884   1.219   2.715   9.921 -1.2379  1.0985  0.5238
 8897TIP3   OH250885   7.738   2.471   9.858  0.0097 -0.2921 -0.2542
 8897TIP3    H150886   7.829   2.499   9.846  0.1485 -1.0829 -1.1414
 8897TIP3    H250887   7.744   2.380   9.885 -0.5338 -0.9152 -2.0505
 8898TIP3   OH250888   0.675   3.013   8.809  0.2941 -0.2924 -0.3833
 8898TIP3    H150889   0.634   2.941   8.763  1.7572 -1.3001 -0.1785
 8898TIP3    H250890   0.602   3.066   8.842 -0.8156 -1.8885 -0.1875
 8899TIP3   OH250891   5.770   5.925   8.318 -0.4626 -1.3637  0.5856
 8899TIP3    H150892   5.762   6.008   8.271 -0.4731 -2.3509 -1.2566
 8899TIP3    H250893   5.835   5.942   8.386  0.1812 -0.0670 -0.3034
 8900TIP3   OH250894   6.708   5.905   8.154 -0.2631 -0.3442  0.5519
 8900TIP3    H150895   6.649   5.968   8.195  0.8521  0.7700  0.5027
 8900TIP3    H250896   6.658   5.868   8.081 -0.7996  0.7907  0.3281
 8901TIP3   OH250897   5.349   0.624   8.372 -0.0046 -0.1028 -0.4707
 8901TIP3    H150898   5.305   0.553   8.420 -0.0879 -1.2850 -2.2092
 8901TIP3    H250899   5.393   0.580   8.300  0.9165  1.5165 -0.9313
 8902TIP3   OH250900   7.846   3.741   9.273 -0.2695  0.2036 -0.0425
 8902TIP3    H150901   7.882   3.713   9.189 -0.3693  0.0509 -0.0356
 8902TIP3    H250902   7.873   3.673   9.335  0.3295  0.6361  0.1714
 8903TIP3   OH250903   7.030   6.197   9.137 -0.5322 -0.2174  0.0693
 8903TIP3    H150904   6.978   6.218   9.059 -1.8443  0.8542  1.1723
 8903TIP3    H250905   7.093   6.269   9.144 -0.8546  0.0426  0.3490
 8904TIP3   OH250906   0.073   8.166   7.605  0.1028  0.4189  0.3961
 8904TIP3    H150907   0.025   8.235   7.652 -0.7442  0.5274 -0.5723
 8904TIP3    H250908   0.123   8.213   7.538  2.3163  0.3847  1.9585
 8905TIP3   OH250909   0.094   8.270   8.996 -0.0613 -0.4035 -0.3934
 8905TIP3    H150910   0.060   8.248   9.083 -0.9406 -1.3460 -0.9568
 8905TIP3    H250911   0.149   8.195   8.972 -0.4150 -0.4885 -0.9530
 8906TIP3   OH250912   1.312   5.371   8.316  0.0778  0.1605 -0.1796
 8906TIP3    H150913   1.262   5.447   8.348  2.4125  1.4747  0.6302
 8906TIP3    H250914   1.299   5.373   8.221 -0.6278  1.0147 -0.0879
 8907TIP3   OH250915   1.769   0.851   8.417  0.1888  0.2699  0.0917
 8907TIP3    H150916   1.823   0.771   8.410  1.6817  1.2464 -0.0465
 8907TIP3    H250917   1.732   0.847   8.505 -1.2527 -1.4455 -0.5192
 8908TIP3   OH250918   3.756   2.053   8.447  0.4617  0.0048  0.4598
 8908TIP3    H150919   3.829   2.073   8.505  0.1730 -0.3066  0.9363
 8908TIP3    H250920   3.719   1.972   8.482  0.3279 -0.2260 -0.2002
 8909TIP3   OH250921   7.196   6.892   9.595  0.2051 -0.6339  0.0429
 8909TIP3    H150922   7.286   6.860   9.596  0.1331 -0.8818 -0.8202
 8909TIP3    H250923   7.203   6.984   9.569  0.3810 -0.0124  2.1597
 8910TIP3   OH250924   3.091   5.607   7.932 -0.2110 -0.1048  0.1901
 8910TIP3    H150925   3.062   5.541   7.869  0.0280 -0.7173  0.7055
 8910TIP3    H250926   3.046   5.687   7.905  1.5024  0.1914 -2.0369
 8911TIP3   OH250927   2.027   0.582   8.749 -0.3478  0.2375 -0.2863
 8911TIP3    H150928   1.955   0.640   8.725 -0.3270  0.5910  0.4780
 8911TIP3    H250929   2.079   0.632   8.811  0.9693  0.2587 -1.3426
 8912TIP3   OH250930   7.020   3.521   8.403 -0.1073 -0.1775  0.2192
 8912TIP3    H150931   6.956   3.558   8.343  0.1036  1.1908  0.8051
 8912TIP3    H250932   6.976   3.520   8.488  0.4582  0.2781  0.5234
 8913TIP3   OH250933   7.544   8.065   8.831  0.0835 -0.1235 -0.1936
 8913TIP3    H150934   7.538   8.112   8.915  0.7456  1.3408 -0.9241
 8913TIP3    H250935   7.501   7.982   8.847  0.8775 -0.2060  1.8448
 8914TIP3   OH250936   0.428   5.686   7.942  0.4939  0.0828 -0.5472
 8914TIP3    H150937   0.383   5.638   7.873  1.6910 -1.9762  0.0362
 8914TIP3    H250938   0.368   5.684   8.016 -0.2432  1.1795 -1.0800
 8915TIP3   OH250939   0.787   7.453   8.313 -0.3440  0.1722 -0.3244
 8915TIP3    H150940   0.778   7.509   8.236 -0.8678  0.6504  0.0746
 8915TIP3    H250941   0.751   7.505   8.385 -0.1183 -0.3757  0.1937
 8916TIP3   OH250942   1.603   4.361   8.504  0.0103  0.1143 -0.1574
 8916TIP3    H150943   1.681   4.324   8.547  0.8516  0.8208 -1.0484
 8916TIP3    H250944   1.557   4.406   8.575  0.6583  0.1060  0.2816
 8917TIP3   OH250945   4.359   6.159   7.926  0.4048 -0.6697 -0.2712
 8917TIP3    H150946   4.338   6.098   7.996  1.8023  0.7938  1.5364
 8917TIP3    H250947   4.289   6.225   7.930  1.7644  0.7920  1.5611
 8918TIP3   OH250948   3.423   2.207   7.928 -0.2510  0.0229 -0.6283
 8918TIP3    H150949   3.503   2.237   7.885 -1.9706  0.2384 -4.0196
 8918TIP3    H250950   3.396   2.281   7.982  0.4594  1.0001 -1.5575
 8919TIP3   OH250951   4.049   1.157   9.499  0.2367 -0.1294  0.1102
 8919TIP3    H150952   4.010   1.244   9.504 -2.0639 -1.0984  0.1239
 8919TIP3    H250953   3.991   1.100   9.550  1.3392 -1.7984 -0.3789
 8920TIP3   OH250954   4.160   1.302   7.940 -0.0748  0.0759  0.3079
 8920TIP3    H150955   4.212   1.245   7.996 -0.4334  0.4071  0.9945
 8920TIP3    H250956   4.219   1.373   7.917  0.3783 -0.5672 -0.5654
 8921TIP3   OH250957   5.143   1.062   8.732 -0.3314  0.1488 -0.4267
 8921TIP3    H150958   5.133   0.993   8.798 -0.7871  1.5486  1.0383
 8921TIP3    H250959   5.059   1.062   8.686 -0.4953  0.0188 -0.1354
 8922TIP3   OH250960   7.641   5.562   7.874  0.8862 -0.1558 -0.0582
 8922TIP3    H150961   7.595   5.490   7.916 -0.5462  0.4341 -0.5645
 8922TIP3    H250962   7.680   5.611   7.947 -1.3342  0.6958  0.6331
 8923TIP3   OH250963   4.794   5.735   9.953 -0.2597 -0.2928 -0.4677
 8923TIP3    H150964   4.714   5.762   9.998  0.2310  2.1595 -0.8941
 8923TIP3    H250965   4.837   5.818   9.929  2.7226 -1.5038  0.2789
 8924TIP3   OH250966   5.694   3.876   8.585  0.3635  0.4600 -0.7065
 8924TIP3    H150967   5.723   3.944   8.646  0.2448 -0.1527  0.0415
 8924TIP3    H250968   5.642   3.816   8.638 -1.1034  0.7623 -1.7451
 8925TIP3   OH250969   4.840   8.274   8.719  0.5575 -0.2296 -0.3130
 8925TIP3    H150970   4.902   8.337   8.682  0.9601 -0.7663 -0.5588
 8925TIP3    H250971   4.765   8.327   8.745 -0.1864  0.0996 -2.8240
 8926TIP3   OH250972   6.038   1.665   9.059  0.0403  0.1836 -0.4444
 8926TIP3    H150973   6.013   1.641   9.148  2.5400 -3.2991 -0.4620
 8926TIP3    H250974   6.076   1.752   9.067 -3.3938  1.7291  1.0252
 8927TIP3   OH250975   5.562   7.659  10.003  0.4672  0.1205 -0.3574
 8927TIP3    H150976   5.509   7.720  10.055 -0.1435 -1.6112  1.1637
 8927TIP3    H250977   5.650   7.666  10.039  0.4705  0.3131 -0.4008
 8928TIP3   OH250978   3.879   2.412   9.794  0.1113 -0.0068  0.4132
 8928TIP3    H150979   3.813   2.458   9.742 -0.3520  0.1786  1.1574
 8928TIP3    H250980   3.958   2.465   9.785  0.5771 -0.9421 -1.6000
 8929TIP3   OH250981   5.056   7.637  10.006 -0.3788  0.6804  0.2818
 8929TIP3    H150982   4.998   7.671  10.074  1.6813  1.7997  1.6037
 8929TIP3    H250983   5.112   7.574  10.052  0.4462  0.7801 -0.5505
 8930TIP3   OH250984   4.909   5.852   9.224 -0.2424  0.4461 -0.0318
 8930TIP3    H150985   4.823   5.869   9.262  0.0999 -0.0869  1.0403
 8930TIP3    H250986   4.937   5.769   9.264  0.6034  0.4201 -0.6432
 8931TIP3   OH250987   8.120   3.662   8.576 -0.1740 -0.3088 -0.3655
 8931TIP3    H150988   8.171   3.581   8.581 -0.2454 -0.3955 -0.9282
 8931TIP3    H250989   8.047   3.648   8.635 -2.1853 -2.1250 -3.0317
 8932TIP3   OH250990   0.501   7.875   9.026 -0.5856 -0.2814 -0.2785
 8932TIP3    H150991   0.574   7.823   9.061 -0.4865 -0.8406 -1.2809
 8932TIP3    H250992   0.517   7.963   9.058  0.8868 -0.2629 -0.9775
 8933TIP3   OH250993   1.916   1.340   8.765  0.3660 -0.3956  0.3354
 8933TIP3    H150994   1.891   1.265   8.711  0.5416  0.7424 -1.4056
 8933TIP3    H250995   2.012   1.339   8.764  0.4265 -1.6349  2.5177
 8934TIP3   OH250996   7.226   4.032   9.870  0.1609 -0.0291  0.3947
 8934TIP3    H150997   7.292   3.968   9.844  1.1849  0.4216  1.7818
 8934TIP3    H250998   7.182   3.992   9.945 -0.4651  0.1207  0.1180
 8935TIP3   OH250999   5.817   4.002   8.076 -0.2004  0.1035  0.4342
 8935TIP3    H151000   5.773   4.076   8.035  0.9753  0.6564  0.1344
 8935TIP3    H251001   5.779   3.996   8.163 -0.3384  1.0229  0.4410
 8936TIP3   OH251002   3.628   0.965   8.093 -0.0899 -0.3078  0.7852
 8936TIP3    H151003   3.718   0.977   8.062 -0.6274  2.0790 -0.0339
 8936TIP3    H251004   3.582   0.925   8.019 -0.1892  0.5206  0.3937
 8937TIP3   OH251005   0.154   8.091   9.522  0.1344  0.7043 -0.2530
 8937TIP3    H151006   0.095   8.139   9.579 -2.0169  0.0440 -1.7769
 8937TIP3    H251007   0.207   8.159   9.480 -1.2153  1.5993 -0.5999
 8938TIP3   OH251008   4.971   5.335   8.946  0.1475 -0.2642 -0.2096
 8938TIP3    H151009   4.983   5.358   9.038  1.2353 -0.7451 -0.2165
 8938TIP3    H251010   5.036   5.386   8.899  0.2408 -0.7360 -0.6073
 8939TIP3   OH251011   3.191   5.378   8.946 -0.1369 -0.0960 -0.1706
 8939TIP3    H151012   3.120   5.427   8.987  0.5480  0.6218  0.1762
 8939TIP3    H251013   3.171   5.380   8.852  1.3847  3.4664 -0.5864
 8940TIP3   OH251014   6.630   5.398   8.060  0.3064  0.0304  0.5427
 8940TIP3    H151015   6.694   5.329   8.046 -0.3077 -0.3799 -0.2778
 8940TIP3    H251016   6.672   5.477   8.027  0.4694 -0.2034  0.1832
 8941TIP3   OH251017   6.688   3.272   8.172 -0.1831  0.6214 -0.2642
 8941TIP3    H151018   6.698   3.178   8.188 -2.2671  0.3400 -0.3505
 8941TIP3    H251019   6.725   3.286   8.085  1.2883  0.1473  0.2528
 8942TIP3   OH251020   5.847   6.113   9.199 -0.9971  0.2246  0.3425
 8942TIP3    H151021   5.888   6.105   9.285 -1.8532 -2.7278  0.5847
 8942TIP3    H251022   5.918   6.143   9.141 -0.0585  0.8679  1.7650
 8943TIP3   OH251023   2.752   6.507   7.932 -0.0366  0.4624  0.2168
 8943TIP3    H151024   2.724   6.570   7.866 -0.0266 -0.2972 -0.5410
 8943TIP3    H251025   2.730   6.547   8.015 -1.1679  0.9239 -0.2902
 8944TIP3   OH251026   1.607   1.394   9.695 -0.5553 -0.7285 -0.4503
 8944TIP3    H151027   1.684   1.449   9.683  0.7198 -2.3289  0.2159
 8944TIP3    H251028   1.640   1.304   9.696 -2.4623 -1.4840 -0.4443
 8945TIP3   OH251029   6.763   5.478   8.825 -0.0802  0.0716  0.1812
 8945TIP3    H151030   6.677   5.461   8.785  0.2985 -0.5931 -0.3805
 8945TIP3    H251031   6.778   5.402   8.881 -0.6661  1.0583  1.7516
 8946TIP3   OH251032   0.924   1.646   9.703 -0.8812  0.2507  0.4313
 8946TIP3    H151033   0.918   1.726   9.650 -0.4143 -1.2543 -2.0262
 8946TIP3    H251034   1.013   1.647   9.739 -0.0683 -0.1991 -1.4488
 8947TIP3   OH251035   2.968   5.862   7.951  0.0178 -0.3377  1.1484
 8947TIP3    H151036   2.992   5.946   7.913  0.1133 -1.6341 -1.9112
 8947TIP3    H251037   2.921   5.885   8.031  0.1445  2.5948  0.5036
 8948TIP3   OH251038   5.907   1.328   8.751 -0.2965 -0.2605  0.0204
 8948TIP3    H151039   5.949   1.243   8.741  1.7124  0.4177  1.7976
 8948TIP3    H251040   5.920   1.350   8.844 -2.3539  1.1952  0.0234
 8949TIP3   OH251041   1.202   3.108   9.108 -0.3433 -0.1083  0.1851
 8949TIP3    H151042   1.192   3.099   9.202  2.3637 -0.8611  0.4675
 8949TIP3    H251043   1.205   3.018   9.075 -1.4740  0.1399 -0.6901
 8950TIP3   OH251044   4.349   3.165   9.020  0.3503 -0.0654 -0.2531
 8950TIP3    H151045   4.345   3.073   8.993 -1.2621 -0.2335  0.4236
 8950TIP3    H251046   4.358   3.214   8.938  0.9031 -0.7986 -0.6414
 8951TIP3   OH251047   4.579   3.753   8.272  0.1652 -0.0493  0.3812
 8951TIP3    H151048   4.487   3.774   8.256  0.1139 -0.6159 -0.1322
 8951TIP3    H251049   4.579   3.658   8.284  0.8233 -0.2084 -0.7422
 8952TIP3   OH251050   3.678   0.547   8.775 -0.0857  0.6708  0.8632
 8952TIP3    H151051   3.672   0.492   8.853  1.0979  1.9506  1.9288
 8952TIP3    H251052   3.592   0.588   8.768 -0.3960  0.0749  1.1299
 8953TIP3   OH251053   5.235   1.090   9.459  0.7109  0.1874  0.1379
 8953TIP3    H151054   5.303   1.137   9.507  1.0369 -0.8490  0.7113
 8953TIP3    H251055   5.152   1.127   9.491  0.9177 -0.5658  1.6069
 8954TIP3   OH251056   7.123   1.767   8.590  0.4976 -0.1801  0.2546
 8954TIP3    H151057   7.174   1.766   8.509  0.4999  1.5019  0.2078
 8954TIP3    H251058   7.108   1.674   8.609  2.0448 -0.6645 -0.6757
 8955TIP3   OH251059   6.865   3.716   8.928 -0.0571 -0.5276 -0.0277
 8955TIP3    H151060   6.905   3.794   8.889 -0.6857  0.1415  0.6194
 8955TIP3    H251061   6.878   3.728   9.022 -0.1652 -1.2094  0.0766
 8956TIP3   OH251062   2.450   0.066   9.785  0.2509  0.2409  0.1198
 8956TIP3    H151063   2.454  -0.028   9.805 -1.0883  0.2653  0.6208
 8956TIP3    H251064   2.451   0.070   9.690  0.1914 -0.3000  0.0934
 8957TIP3   OH251065   5.220   8.315   9.887  0.3984  0.4176  0.1278
 8957TIP3    H151066   5.260   8.294   9.971 -0.3224  1.2721  0.7174
 8957TIP3    H251067   5.277   8.382   9.848  1.0563 -0.4112 -0.3529
 8958TIP3   OH251068   0.678   7.898   8.728 -0.1467  0.1847  0.6545
 8958TIP3    H151069   0.747   7.842   8.764 -1.6711 -1.1852  1.6095
 8958TIP3    H251070   0.601   7.877   8.781 -1.7787  0.2336 -1.5968
 8959TIP3   OH251071   3.342   1.105   8.174  0.2336 -0.9668  0.0753
 8959TIP3    H151072   3.314   1.013   8.168 -0.6316 -0.7372  0.4213
 8959TIP3    H251073   3.435   1.103   8.152 -0.1550 -1.7007 -1.6860
 8960TIP3   OH251074   1.042   3.288   7.841 -0.1840  0.2109 -0.5839
 8960TIP3    H151075   0.992   3.306   7.761 -0.6280  2.7160  0.1734
 8960TIP3    H251076   1.118   3.239   7.811 -0.1772  1.3620 -2.6408
 8961TIP3   OH251077   8.173   7.724   9.788 -0.0944 -0.2038  0.2201
 8961TIP3    H151078   8.199   7.811   9.759 -2.5160  0.4624 -0.2244
 8961TIP3    H251079   8.083   7.736   9.821 -0.5015 -2.5214  0.1073
 8962TIP3   OH251080   8.390   3.887   8.771  0.0621 -0.1213 -0.3954
 8962TIP3    H151081   8.376   3.918   8.861  0.4585 -0.4833 -0.2039
 8962TIP3    H251082   8.400   3.966   8.719 -0.3731  0.0958 -0.1525
 8963TIP3   OH251083   3.713   2.194   8.225 -0.1852 -0.4563  0.4610
 8963TIP3    H151084   3.740   2.148   8.305 -1.5907 -2.1752  0.0095
 8963TIP3    H251085   3.650   2.135   8.184  0.7927  0.1997 -2.1461
 8964TIP3   OH251086   8.412   5.145   9.174  0.3974 -0.2213  0.3297
 8964TIP3    H151087   8.352   5.152   9.099 -1.4560  0.6776  1.8143
 8964TIP3    H251088   8.434   5.052   9.178 -1.4201 -0.6956  0.0816
 8965TIP3   OH251089   3.667   7.682   8.070  0.2601 -0.2261 -0.0707
 8965TIP3    H151090   3.696   7.772   8.057 -1.6342  0.1394 -2.4529
 8965TIP3    H251091   3.747   7.630   8.064  1.2895  1.1945  0.6774
 8966TIP3   OH251092   7.096   3.079   8.822  0.4148 -0.1683 -0.2196
 8966TIP3    H151093   7.037   3.054   8.751  0.1635  0.6516 -0.3091
 8966TIP3    H251094   7.184   3.066   8.787  0.3680  2.7392 -1.6786
 8967TIP3   OH251095   4.501   2.515   8.073  0.0356  0.1519 -0.4039
 8967TIP3    H151096   4.426   2.537   8.018 -1.2585 -2.0894  0.3852
 8967TIP3    H251097   4.534   2.433   8.037  0.7922  0.0143  0.5783
 8968TIP3   OH251098   1.823   7.872   8.174 -0.2227  0.2818  0.3734
 8968TIP3    H151099   1.772   7.794   8.151  0.4334 -0.5347  1.5499
 8968TIP3    H251100   1.804   7.886   8.267 -0.8505  1.9455  0.0184
 8969TIP3   OH251101   6.264   7.965   9.294  0.1613 -0.1154  0.1901
 8969TIP3    H151102   6.170   7.951   9.308 -0.0245 -1.2288 -1.8419
 8969TIP3    H251103   6.277   8.058   9.314 -1.7089  0.4649 -0.9862
 8970TIP3   OH251104   8.373   1.635   9.279 -0.2160 -0.1854  0.2653
 8970TIP3    H151105   8.396   1.623   9.371  1.6117 -1.4810 -0.3081
 8970TIP3    H251106   8.377   1.547   9.241 -1.1725  0.2926 -1.0070
 8971TIP3   OH251107   5.693   4.251   8.040 -0.6614 -0.0756  0.1469
 8971TIP3    H151108   5.686   4.339   8.075 -0.4273 -0.2439  0.6173
 8971TIP3    H251109   5.667   4.260   7.948 -1.3489  0.3512  0.3708
 8972TIP3   OH251110   1.295   4.882   9.798 -0.3311  0.0129  0.0163
 8972TIP3    H151111   1.342   4.801   9.776  1.0314  0.5833  0.7058
 8972TIP3    H251112   1.337   4.912   9.878 -1.0116  1.2692 -0.0811
 8973TIP3   OH251113   4.690   5.796   8.302  0.4535  0.0143 -0.8394
 8973TIP3    H151114   4.713   5.818   8.393  0.8504 -0.0277 -0.9288
 8973TIP3    H251115   4.619   5.733   8.310  0.0999  0.4371 -0.5637
 8974TIP3   OH251116   0.093   6.337   9.116 -0.0911 -0.2710 -0.2581
 8974TIP3    H151117   0.044   6.347   9.034  0.6179 -3.1074 -1.1532
 8974TIP3    H251118   0.090   6.243   9.134 -1.7433  0.3949  4.0134
 8975TIP3   OH251119   1.054   3.750   9.756 -0.3937  0.0779  0.2945
 8975TIP3    H151120   1.008   3.824   9.796 -1.4216  0.0553 -0.8045
 8975TIP3    H251121   0.986   3.686   9.738  0.2752 -0.5202 -0.1415
 8976TIP3   OH251122   1.438   0.602   9.168 -0.0557  0.6997 -0.8179
 8976TIP3    H151123   1.419   0.696   9.173 -0.8598  0.5230 -0.4642
 8976TIP3    H251124   1.354   0.562   9.146  0.3502  0.0853 -1.2995
 8977TIP3   OH251125   5.640   7.932   9.446 -0.0533  0.1603 -0.0228
 8977TIP3    H151126   5.704   7.975   9.503 -0.7410 -0.0067  0.8900
 8977TIP3    H251127   5.579   7.890   9.506  0.1706 -1.4719 -0.8705
 8978TIP3   OH251128   2.257   6.119   8.087 -0.1418 -0.2081  0.3061
 8978TIP3    H151129   2.226   6.092   8.173  1.1378 -2.2065  0.2021
 8978TIP3    H251130   2.200   6.074   8.025  0.0180 -0.1590  0.1206
 8979TIP3   OH251131   1.660   4.595   7.731  0.0898 -0.3808 -0.1708
 8979TIP3    H151132   1.744   4.618   7.770  0.5037 -1.2050 -0.5506
 8979TIP3    H251133   1.617   4.540   7.798 -0.1626  0.0657  0.0358
 8980TIP3   OH251134   0.709   3.179   7.773  0.1526 -0.6265 -0.2590
 8980TIP3    H151135   0.640   3.245   7.778  0.9710  0.3421 -1.3745
 8980TIP3    H251136   0.723   3.153   7.864 -1.6221 -0.8041  0.0038
 8981TIP3   OH251137   3.336   0.786   9.318  0.3820  0.5018  0.1605
 8981TIP3    H151138   3.370   0.699   9.341  0.0131  0.9427  2.5536
 8981TIP3    H251139   3.414   0.838   9.298  0.8403  0.4142  1.6432
 8982TIP3   OH251140   5.076   3.381   9.719 -0.2386 -0.2343  0.1652
 8982TIP3    H151141   5.165   3.381   9.685 -0.3853 -0.9699 -0.2506
 8982TIP3    H251142   5.086   3.359   9.812  0.0790  0.6761  0.3566
 8983TIP3   OH251143   2.563   3.198   8.173  0.3258  0.1506  0.1488
 8983TIP3    H151144   2.495   3.259   8.202  0.9202  0.2359  1.4509
 8983TIP3    H251145   2.572   3.136   8.246 -1.1710 -2.3680 -1.6176
 8984TIP3   OH251146   5.943   3.186   9.951  0.0792 -0.3762 -0.5609
 8984TIP3    H151147   5.878   3.144   9.895 -0.2706  1.0489 -1.2695
 8984TIP3    H251148   5.988   3.114   9.994 -1.2065 -1.4241 -0.9214
 8985TIP3   OH251149   6.972   3.211   9.380 -0.3388 -0.0034  0.5792
 8985TIP3    H151150   6.946   3.303   9.376  0.0044  0.1250  1.2088
 8985TIP3    H251151   6.979   3.191   9.473  1.8980  0.0026  0.4799
 8986TIP3   OH251152   2.800   0.977   8.008 -0.3075  0.0542  0.2772
 8986TIP3    H151153   2.728   1.010   7.956  1.2858  0.4466 -1.8312
 8986TIP3    H251154   2.856   1.053   8.024  1.4487 -0.7922 -1.3334
 8987TIP3   OH251155   6.075   0.226   8.993  0.0237 -0.1108  0.3712
 8987TIP3    H151156   6.110   0.286   8.927  1.6027  0.8982  2.0537
 8987TIP3    H251157   5.984   0.254   9.005  0.3911  1.1624  0.2531
 8988TIP3   OH251158   3.702   1.232   8.213 -0.1203 -0.1933 -0.2969
 8988TIP3    H151159   3.723   1.141   8.193  1.5128  0.2790 -0.9257
 8988TIP3    H251160   3.768   1.282   8.165  0.5327  1.2313  1.9591
 8989TIP3   OH251161   5.312   1.591   9.062 -0.2984 -0.1129 -0.3422
 8989TIP3    H151162   5.220   1.609   9.043 -0.5044 -1.1909 -0.4316
 8989TIP3    H251163   5.350   1.677   9.082 -0.9910  0.5340 -1.6938
 8990TIP3   OH251164   4.938   5.828   8.503  0.2261 -0.2478 -0.2566
 8990TIP3    H151165   4.898   5.756   8.551 -1.1769  0.7552  0.1415
 8990TIP3    H251166   4.999   5.867   8.565 -1.1025  0.6390  0.5584
 8991TIP3   OH251167   6.780   4.134   7.586 -0.9184 -0.2524  0.5946
 8991TIP3    H151168   6.813   4.208   7.535 -0.6682 -0.8703 -0.1599
 8991TIP3    H251169   6.840   4.062   7.567 -1.0261 -0.5983  1.4907
 8992TIP3   OH251170   5.525   7.031   9.523  0.2123  0.2576  0.2941
 8992TIP3    H151171   5.432   7.030   9.500 -0.2574 -0.7101  2.0235
 8992TIP3    H251172   5.538   7.115   9.567  0.3525  0.6995 -0.5607
 8993TIP3   OH251173   5.369   2.732   9.241  0.2290 -0.8987  0.0046
 8993TIP3    H151174   5.277   2.711   9.226 -0.0611  0.5650 -0.4023
 8993TIP3    H251175   5.397   2.671   9.310 -1.1885 -1.0123  0.4999
 8994TIP3   OH251176   5.899   1.254   9.644 -0.0449 -0.2021 -0.1827
 8994TIP3    H151177   5.989   1.234   9.669 -0.6310 -1.0393  1.3855
 8994TIP3    H251178   5.895   1.234   9.550  1.5510  0.4637 -0.4290
 8995TIP3   OH251179   4.022   6.911   8.953  0.0679 -0.5046 -0.3741
 8995TIP3    H151180   3.937   6.911   8.907 -0.5653  2.1027  0.6281
 8995TIP3    H251181   4.027   6.824   8.992 -1.5443 -1.1705 -1.5052
 8996TIP3   OH251182   5.003   5.939   9.523  0.3234  0.4060  0.2525
 8996TIP3    H151183   4.929   5.885   9.497 -0.4324  0.5960  1.8682
 8996TIP3    H251184   5.040   5.893   9.599  0.9733  1.0622  0.3436
 8997TIP3   OH251185   7.506   4.230   8.039  0.0264  0.6943 -0.4869
 8997TIP3    H151186   7.477   4.311   8.082 -1.6828  0.7698 -1.6832
 8997TIP3    H251187   7.539   4.258   7.954 -1.5647  0.0727 -1.3439
 8998TIP3   OH251188   0.098   0.239   8.607 -0.2005 -0.2664 -0.5941
 8998TIP3    H151189   0.143   0.211   8.686  0.4605 -1.4045 -1.3421
 8998TIP3    H251190   0.015   0.190   8.608 -0.2817 -0.1256 -0.4977
 8999TIP3   OH251191   7.785   5.268   9.745 -0.0756  0.6384 -0.3519
 8999TIP3    H151192   7.820   5.289   9.832  0.3486  0.2194 -0.4172
 8999TIP3    H251193   7.704   5.319   9.739 -0.3075  0.3809  0.4374
 9000TIP3   OH251194   2.997   4.252   8.067 -0.0437  0.4724  0.0600
 9000TIP3    H151195   2.928   4.187   8.082 -0.7937  1.4081  0.7447
 9000TIP3    H251196   3.045   4.218   7.991  1.3192 -2.3237  1.9800
 9001TIP3   OH251197   6.419   8.141   9.012 -0.2423  0.2539  0.2840
 9001TIP3    H151198   6.388   8.220   9.057  1.2171  0.6740  0.6325
 9001TIP3    H251199   6.346   8.080   9.015 -2.0214  2.1421 -1.4164
 9002TIP3   OH251200   1.622   2.350   8.326 -0.3488 -0.5061 -0.3539
 9002TIP3    H151201   1.680   2.414   8.283 -1.2761 -0.1439 -1.0924
 9002TIP3    H251202   1.543   2.399   8.347 -0.3124 -0.9432  0.8809
 9003TIP3   OH251203   5.096   8.315   8.438 -0.0593 -0.2533  0.0905
 9003TIP3    H151204   5.104   8.231   8.482  1.5723  0.4686  1.2729
 9003TIP3    H251205   5.186   8.339   8.415 -0.5831  0.7660 -0.9975
 9004TIP3   OH251206   0.177   6.704   7.997  0.0326  0.6011 -0.2140
 9004TIP3    H151207   0.184   6.741   8.085  2.4439  0.6854 -0.3667
 9004TIP3    H251208   0.089   6.666   7.993  0.7799 -2.0325  3.3255
 9005TIP3   OH251209   3.976   1.114   7.800  0.1455 -0.1999  0.1099
 9005TIP3    H151210   4.042   1.181   7.821  0.7236 -1.2073  1.6731
 9005TIP3    H251211   3.970   1.117   7.705 -0.7241  2.8634  0.1538
 9006TIP3   OH251212   0.695   7.171   8.417 -0.6758  0.4466 -0.1231
 9006TIP3    H151213   0.600   7.183   8.415 -0.7251 -0.0201 -0.5923
 9006TIP3    H251214   0.729   7.244   8.365 -0.8270  0.1019 -0.7088
 9007TIP3   OH251215   4.939   3.798   9.727  0.0027 -0.2983 -0.6664
 9007TIP3    H151216   4.991   3.755   9.794 -1.4155 -0.2023  0.5666
 9007TIP3    H251217   4.974   3.887   9.722 -0.8882  0.2075  1.1804
 9008TIP3   OH251218   3.219   5.891   8.434 -0.1278 -0.6231  0.3718
 9008TIP3    H151219   3.268   5.881   8.516 -0.2397 -0.3050  0.4765
 9008TIP3    H251220   3.286   5.912   8.369 -0.0913 -0.4631  0.4617
 9009TIP3   OH251221   1.900   0.975   9.903 -0.3478 -0.3594  0.0835
 9009TIP3    H151222   1.959   0.933   9.965 -1.3150  0.1449  1.3885
 9009TIP3    H251223   1.867   0.904   9.848 -1.5608 -1.2664  1.9106
 9010TIP3   OH251224   5.860   4.210   8.997 -0.0994 -0.7201 -0.6049
 9010TIP3    H151225   5.891   4.292   8.958  0.9835 -0.6826  0.2821
 9010TIP3    H251226   5.887   4.216   9.089 -0.5677 -1.7979 -0.3854
 9011TIP3   OH251227   7.186   6.592   9.742  0.0529  0.3630 -0.3475
 9011TIP3    H151228   7.220   6.568   9.656  1.3642  1.3875 -0.1545
 9011TIP3    H251229   7.259   6.576   9.802 -1.2909 -1.7325  0.8561
 9012TIP3   OH251230   4.212   4.589   9.739 -0.0632 -0.1112 -0.2808
 9012TIP3    H151231   4.137   4.570   9.795 -1.2360  1.1387 -1.3344
 9012TIP3    H251232   4.194   4.677   9.705  2.3779  0.6448  0.2029
 9013TIP3   OH251233   1.965   4.546   7.218 -0.0962 -0.3297  0.7356
 9013TIP3    H151234   1.893   4.495   7.254  0.1102 -0.7199  0.6054
 9013TIP3    H251235   1.967   4.523   7.125  0.0207 -0.1099  0.6824
 9014TIP3   OH251236   2.176   5.299   8.676 -0.0451  0.6168 -0.0223
 9014TIP3    H151237   2.106   5.293   8.611  1.4595 -2.1371 -1.5781
 9014TIP3    H251238   2.142   5.254   8.753 -0.1598 -0.3528 -0.6294
 9015TIP3   OH251239   4.651   7.431  10.131  0.0459 -0.2660  0.5625
 9015TIP3    H151240   4.648   7.518  10.091  0.2586 -0.8394 -0.7426
 9015TIP3    H251241   4.571   7.427  10.183 -0.8246  0.1029 -0.6946
 9016TIP3   OH251242   2.804   1.254   8.342 -0.0357  0.0690  0.2026
 9016TIP3    H151243   2.873   1.241   8.276  1.0487 -1.7785  1.6147
 9016TIP3    H251244   2.772   1.166   8.361 -2.3824  0.8457  0.0696
 9017TIP3   OH251245   1.426   0.246   8.829 -0.0324 -0.1161 -0.1638
 9017TIP3    H151246   1.442   0.340   8.844  1.5203 -0.4413  0.4010
 9017TIP3    H251247   1.426   0.237   8.734 -4.4329  1.0767 -0.5043
 9018TIP3   OH251248   7.565   5.066   8.137  0.2568  0.7322  0.4271
 9018TIP3    H151249   7.575   5.017   8.219 -0.0961 -0.3467 -0.1536
 9018TIP3    H251250   7.473   5.056   8.114  0.6138 -0.0843 -0.7508
 9019TIP3   OH251251   1.333   0.885   7.637  0.7779 -0.3894 -0.5602
 9019TIP3    H151252   1.368   0.905   7.551  0.7161 -2.1146 -1.0344
 9019TIP3    H251253   1.251   0.935   7.642  0.7822 -0.2706 -1.5078
 9020TIP3   OH251254   1.395   4.255   9.137  0.0412 -0.2400 -0.0542
 9020TIP3    H151255   1.384   4.289   9.048 -1.7414 -1.4258 -0.3349
 9020TIP3    H251256   1.470   4.196   9.130  0.8763  0.8214 -0.3843
 9021TIP3   OH251257   6.751   5.132   9.177  0.6915 -0.4214  0.7654
 9021TIP3    H151258   6.718   5.054   9.222  1.3457 -0.5421  1.0616
 9021TIP3    H251259   6.841   5.142   9.210  0.3042  1.0014  1.4395
 9022TIP3   OH251260   4.967   7.651   8.503  0.3212  0.4571  0.0940
 9022TIP3    H151261   5.062   7.659   8.516  0.5581 -0.4706 -0.8682
 9022TIP3    H251262   4.954   7.673   8.411 -0.4171  0.6584  0.2452
 9023TIP3   OH251263   6.583   5.320   9.024  0.0563  0.0353 -0.4262
 9023TIP3    H151264   6.541   5.285   8.945 -0.3307 -0.9200  0.1893
 9023TIP3    H251265   6.623   5.244   9.066 -0.4551  0.3848  0.7325
 9024TIP3   OH251266   8.023   2.269   8.788  0.0101 -0.2451  0.1005
 9024TIP3    H151267   8.024   2.319   8.706 -0.0736 -1.1676 -0.4796
 9024TIP3    H251268   7.930   2.254   8.806 -0.0775  1.5249  1.3774
 9025TIP3   OH251269   7.567   5.845   8.297 -0.2195 -0.4015 -0.1009
 9025TIP3    H151270   7.574   5.934   8.330 -0.1727 -0.4270 -0.0413
 9025TIP3    H251271   7.552   5.855   8.203  2.2331 -0.3479 -0.5554
 9026TIP3   OH251272   5.872   8.270   8.253  0.5504  0.2120 -0.5723
 9026TIP3    H151273   5.963   8.241   8.257  0.2170 -0.7199  1.6746
 9026TIP3    H251274   5.850   8.293   8.344 -1.4900  0.2660 -1.0297
 9027TIP3   OH251275   3.047   8.196   8.836 -0.0117  0.0123 -0.2584
 9027TIP3    H151276   2.992   8.170   8.763  1.2218  0.1638 -1.2816
 9027TIP3    H251277   3.077   8.284   8.814  1.4722 -0.4541 -0.2826
 9028TIP3   OH251278   7.445   6.921   8.236 -0.7379  0.6449 -0.0421
 9028TIP3    H151279   7.419   6.996   8.182 -0.5384 -0.3161 -1.5348
 9028TIP3    H251280   7.396   6.847   8.199 -0.2842 -0.1172  0.8506
 9029TIP3   OH251281   8.380   5.989   9.483 -0.2851  0.1918 -0.1290
 9029TIP3    H151282   8.334   6.072   9.493 -1.9185 -0.7147  0.2279
 9029TIP3    H251283   8.430   5.980   9.564 -0.4948  0.5941  0.0479
 9030TIP3   OH251284   1.892   5.544   9.006 -0.2185 -0.0085  0.8207
 9030TIP3    H151285   1.803   5.521   8.979  0.6631 -1.0838 -1.4625
 9030TIP3    H251286   1.934   5.574   8.925  1.8503 -0.6660  1.5890
 9031TIP3   OH251287   5.777   5.560   8.912 -0.0379 -0.2144  0.1085
 9031TIP3    H151288   5.826   5.499   8.858 -1.2728 -1.1855  0.0254
 9031TIP3    H251289   5.835   5.579   8.986  0.4894 -1.2611 -0.0197
 9032TIP3   OH251290   0.450   1.495   9.633  0.2336 -0.0953  0.1406
 9032TIP3    H151291   0.408   1.472   9.716  1.5000  0.9878  1.1293
 9032TIP3    H251292   0.449   1.591   9.631  2.4754 -0.0143  0.1683
 9033TIP3   OH251293   6.726   2.824   7.830  0.3573  0.0441 -0.4182
 9033TIP3    H151294   6.666   2.832   7.755 -0.6345 -1.6389  0.1394
 9033TIP3    H251295   6.763   2.736   7.821  1.0817  0.2486  0.4715
 9034TIP3   OH251296   6.742   7.999   8.389  0.0227  0.5712 -0.1184
 9034TIP3    H151297   6.648   7.986   8.375 -0.5258 -0.1879  3.3009
 9034TIP3    H251298   6.755   8.092   8.375 -1.1470  0.6363 -0.9731
 9035TIP3   OH251299   5.318   3.418   7.632 -0.5609  0.4919 -0.1060
 9035TIP3    H151300   5.228   3.385   7.631  0.1105 -1.5079  0.9075
 9035TIP3    H251301   5.334   3.444   7.722 -0.2529  1.2694 -0.3759
 9036TIP3   OH251302   6.237   4.112   8.200  0.1437  0.1717 -0.5107
 9036TIP3    H151303   6.211   4.188   8.148  0.3674 -0.6335 -1.8103
 9036TIP3    H251304   6.332   4.105   8.186  0.1196 -0.3660 -0.4038
 9037TIP3   OH251305   2.535   0.103   9.532 -0.7282 -0.3861 -0.2988
 9037TIP3    H151306   2.549   0.193   9.561 -1.8058 -0.0196 -0.8639
 9037TIP3    H251307   2.619   0.060   9.546 -0.2549  0.6581  0.1592
 9038TIP3   OH251308   5.468   5.117   8.930 -0.0502  0.4115 -0.0247
 9038TIP3    H151309   5.414   5.162   8.995  0.3247  0.2632  0.3949
 9038TIP3    H251310   5.534   5.182   8.905  0.4357  0.1360  0.5132
 9039TIP3   OH251311   3.938   2.478   8.637  0.3462 -0.0887  0.0469
 9039TIP3    H151312   3.863   2.522   8.597  0.1591 -0.6289 -0.2092
 9039TIP3    H251313   3.902   2.395   8.670  0.8998 -0.5148 -0.4036
 9040TIP3   OH251314   7.424   7.182   9.025 -0.5273 -0.2806  0.3414
 9040TIP3    H151315   7.507   7.205   8.983 -0.5081 -0.3871  0.3207
 9040TIP3    H251316   7.396   7.262   9.068 -0.0900 -0.4100  0.8887
 9041TIP3   OH251317   2.309   0.086   8.817  0.0312 -0.3478 -0.4832
 9041TIP3    H151318   2.293  -0.008   8.819  0.7020 -0.4920  1.9079
 9041TIP3    H251319   2.236   0.124   8.866 -0.1003  0.3460 -1.2092
 9042TIP3   OH251320   0.249   2.431   8.690  0.1354  0.0969  0.3049
 9042TIP3    H151321   0.236   2.522   8.663  2.4639 -0.1850 -2.2670
 9042TIP3    H251322   0.209   2.380   8.620  0.9121 -0.8003  0.4890
 9043TIP3   OH251323   0.898   3.376   8.831 -0.0907  0.5174 -0.7710
 9043TIP3    H151324   0.987   3.351   8.857  0.2810  1.2532 -1.3183
 9043TIP3    H251325   0.889   3.342   8.742 -0.1515  0.9447 -0.9291
 9044TIP3   OH251326   2.608   0.837   8.152  0.2338 -0.6007 -0.2611
 9044TIP3    H151327   2.551   0.875   8.086  0.1994  0.4644  0.3579
 9044TIP3    H251328   2.694   0.875   8.134 -0.3192  2.0269  2.0049
 9045TIP3   OH251329   0.466   3.082   7.288 -0.1608 -0.2591 -0.1261
 9045TIP3    H151330   0.417   3.005   7.262 -2.0269 -0.0890  2.4980
 9045TIP3    H251331   0.553   3.049   7.311  0.7427 -0.7487 -3.6210
 9046TIP3   OH251332   1.421   3.699   8.772  0.0172  0.3206 -0.1844
 9046TIP3    H151333   1.396   3.783   8.809 -0.9980 -0.7152  1.6142
 9046TIP3    H251334   1.339   3.654   8.755  0.5492 -0.6661 -0.2391
 9047TIP3   OH251335   6.480   1.787   9.219  0.4899 -0.1517 -0.3080
 9047TIP3    H151336   6.561   1.740   9.237 -0.2844 -1.0301  1.0401
 9047TIP3    H251337   6.447   1.813   9.306 -0.1163  1.1595 -0.8913
 9048TIP3   OH251338   4.269   7.005   8.348 -0.0156  0.5199  0.1842
 9048TIP3    H151339   4.333   7.070   8.320 -0.2215  0.3824 -0.6281
 9048TIP3    H251340   4.256   7.023   8.442  1.7195  0.0991  0.5394
 9049TIP3   OH251341   3.003   7.739   8.215  0.1367 -0.0434  0.1852
 9049TIP3    H151342   3.023   7.734   8.309 -1.5018 -2.2550  0.4804
 9049TIP3    H251343   2.923   7.688   8.205  0.3372  0.0662 -2.4681
 9050TIP3   OH251344   5.379   7.072   8.681 -0.1968 -0.2305  0.5199
 9050TIP3    H151345   5.455   7.030   8.641 -0.8619 -0.3956 -0.6029
 9050TIP3    H251346   5.364   7.023   8.761  0.7911 -0.2852  0.6877
 9051TIP3   OH251347   8.009   2.441   7.510 -0.0793  0.1885 -0.3544
 9051TIP3    H151348   7.915   2.430   7.498 -0.1654  1.0424 -0.5157
 9051TIP3    H251349   8.022   2.535   7.516  0.7929  0.0945 -0.5529
 9052TIP3   OH251350   6.446   4.387   9.271  0.0607 -0.6206  0.6075
 9052TIP3    H151351   6.493   4.335   9.337 -1.4028 -0.5471  1.7424
 9052TIP3    H251352   6.357   4.353   9.273 -0.1312 -0.2766 -1.0097
 9053TIP3   OH251353   0.132   2.226   7.957  0.1791 -0.4757  0.5913
 9053TIP3    H151354   0.137   2.236   7.862 -0.7394 -0.0205  0.5876
 9053TIP3    H251355   0.047   2.187   7.973 -0.4775  1.1625  1.3453
 9054TIP3   OH251356   5.601   0.479   9.255 -0.1267 -0.5281  0.1980
 9054TIP3    H151357   5.664   0.502   9.187  0.4470 -0.7210  0.6648
 9054TIP3    H251358   5.530   0.543   9.243  0.6355  0.3703  0.3450
 9055TIP3   OH251359   0.198   4.519   8.134  0.6151  0.7103  0.3254
 9055TIP3    H151360   0.119   4.552   8.176  0.0346 -0.5893  0.3231
 9055TIP3    H251361   0.222   4.442   8.185  1.0247  0.2356 -0.5497
 9056TIP3   OH251362   2.940   5.081   9.214 -0.4062 -0.6367 -0.3811
 9056TIP3    H151363   2.925   5.175   9.223 -2.0651 -0.7354 -1.5701
 9056TIP3    H251364   2.986   5.056   9.294 -0.2725  1.1157  0.1292
 9057TIP3   OH251365   1.209   1.510   9.555  0.7603 -0.2054 -0.4017
 9057TIP3    H151366   1.140   1.459   9.512  1.2413  0.8581 -2.5835
 9057TIP3    H251367   1.170   1.541   9.636  0.1741 -3.2618  0.6069
 9058TIP3   OH251368   2.980   4.065   8.992  0.5980 -0.1686 -0.6280
 9058TIP3    H151369   2.950   4.156   8.981  0.2112 -0.0920  0.8066
 9058TIP3    H251370   3.055   4.057   8.933  0.1360  0.8268 -1.3892
 9059TIP3   OH251371   0.604   2.780   7.868  0.0212  0.6118 -0.1897
 9059TIP3    H151372   0.592   2.812   7.957  0.8542  0.8870 -0.1676
 9059TIP3    H251373   0.698   2.793   7.850  0.4263 -1.8943 -0.1527
 9060TIP3   OH251374   1.380   1.122   9.847 -0.8178 -0.0759 -1.3745
 9060TIP3    H151375   1.453   1.062   9.832  0.0555  1.2020 -2.4792
 9060TIP3    H251376   1.317   1.101   9.778  0.4230  1.5981 -3.1389
 9061TIP3   OH251377   3.435   4.864   8.402 -0.0719 -0.2649 -0.3532
 9061TIP3    H151378   3.418   4.781   8.446  1.6213  0.6446  2.2274
 9061TIP3    H251379   3.349   4.905   8.395 -0.9407 -2.1649 -1.7077
 9062TIP3   OH251380   3.896   4.189   9.747  0.1752  0.2028 -0.6358
 9062TIP3    H151381   3.838   4.258   9.779  0.8052 -0.1786  1.4972
 9062TIP3    H251382   3.863   4.109   9.789  1.7915 -0.1175  0.1018
 9063TIP3   OH251383   5.244   3.344   9.087 -0.3524 -0.4120  0.4705
 9063TIP3    H151384   5.214   3.395   9.012  0.2969  0.1541  0.5818
 9063TIP3    H251385   5.329   3.382   9.109 -1.7820  1.4995  3.3534
 9064TIP3   OH251386   5.196   0.134   9.083  0.3573 -0.3836 -0.4171
 9064TIP3    H151387   5.292   0.136   9.079  0.3093  1.7125 -2.5601
 9064TIP3    H251388   5.173   0.211   9.133 -0.2203 -0.0704 -1.1525
 9065TIP3   OH251389   7.319   7.570  10.196  0.7919 -0.0234 -0.3102
 9065TIP3    H151390   7.368   7.492  10.222 -1.6984 -1.5534  0.0687
 9065TIP3    H251391   7.297   7.614  10.278 -2.5210 -2.0060  0.0302
 9066TIP3   OH251392   0.444   1.171   7.733 -0.1542  0.0386  0.9693
 9066TIP3    H151393   0.492   1.117   7.796 -0.7925 -0.3896  1.0923
 9066TIP3    H251394   0.352   1.153   7.750 -0.3509 -1.5975 -1.3555
 9067TIP3   OH251395   4.183   0.000   8.830 -0.1103  0.1421  0.4102
 9067TIP3    H151396   4.259  -0.057   8.823 -0.8883 -1.0500  1.3529
 9067TIP3    H251397   4.154  -0.009   8.921 -1.0707  0.9642  0.2045
 9068TIP3   OH251398   0.707   5.699   9.410 -0.5067 -0.2657  0.1219
 9068TIP3    H151399   0.791   5.653   9.404 -2.4252 -3.9063 -2.1106
 9068TIP3    H251400   0.689   5.705   9.504  1.4585 -0.9209  0.5787
 9069TIP3   OH251401   6.584   6.404   7.914 -0.2361  0.4474 -0.5436
 9069TIP3    H151402   6.653   6.351   7.955  0.7977  0.6780 -1.9135
 9069TIP3    H251403   6.567   6.474   7.978 -2.8837 -2.3309  2.1472
 9070TIP3   OH251404   6.052   2.808   7.900  0.2649  0.5024 -0.0800
 9070TIP3    H151405   6.074   2.878   7.961 -0.2972  0.3499  0.3009
 9070TIP3    H251406   6.102   2.733   7.930  0.3387  0.5521 -0.0790
 9071TIP3   OH251407   0.500   0.337  10.085  0.0857 -0.6766  0.6835
 9071TIP3    H151408   0.579   0.334  10.032  0.2235  0.9611  0.7596
 9071TIP3    H251409   0.482   0.430  10.097 -2.9252 -0.8850 -0.9480
 9072TIP3   OH251410   2.810   4.012   8.517 -0.2397  0.5525 -0.0608
 9072TIP3    H151411   2.818   3.964   8.599  0.6598  1.2737  0.3012
 9072TIP3    H251412   2.755   4.088   8.539  0.1494  0.8417 -0.0698
 9073TIP3   OH251413   8.289   4.318   8.806  1.1455 -0.2250  0.2308
 9073TIP3    H151414   8.197   4.311   8.782  0.7371 -0.5402  1.8182
 9073TIP3    H251415   8.310   4.411   8.793  0.6516 -0.1732 -0.2407
 9074TIP3   OH251416   5.782   7.836   7.839  0.6216  0.2038  0.6598
 9074TIP3    H151417   5.850   7.770   7.846  0.2466 -0.1175  1.3467
 9074TIP3    H251418   5.701   7.787   7.827  0.2392  0.4824  1.9119
 9075TIP3   OH251419   3.601   5.948   8.294  0.4955  0.0706  0.0204
 9075TIP3    H151420   3.572   5.936   8.384  0.4177  1.6407  0.2257
 9075TIP3    H251421   3.521   5.938   8.241  0.1444  1.1973  0.3151
 9076TIP3   OH251422   7.623   0.863   9.476  0.1292 -0.0746  0.0056
 9076TIP3    H151423   7.567   0.941   9.486 -0.3973 -0.5052  0.4794
 9076TIP3    H251424   7.649   0.864   9.384  3.0696  2.6377  0.7024
 9077TIP3   OH251425   8.147   7.574   8.984  0.2761  0.3563  0.8533
 9077TIP3    H151426   8.092   7.631   9.037  0.8498  0.9178  0.8532
 9077TIP3    H251427   8.085   7.515   8.940 -0.2893  0.7059  1.1730
 9078TIP3   OH251428   8.356   6.256   8.075  0.0061  0.0849  0.2740
 9078TIP3    H151429   8.300   6.307   8.017  0.4681  0.0285 -0.2332
 9078TIP3    H251430   8.403   6.197   8.016 -0.0238 -0.4535  0.7820
 9079TIP3   OH251431   7.076   0.011  10.174  0.2752 -0.2670  0.2919
 9079TIP3    H151432   7.049  -0.081  10.167  0.8636 -0.3864 -0.5992
 9079TIP3    H251433   7.009   0.059  10.125  1.1375 -0.4715 -1.1532
 9080TIP3   OH251434   1.540   8.373   8.513  0.1228 -0.6415 -0.7187
 9080TIP3    H151435   1.504   8.461   8.509  1.0977 -0.2738 -2.4032
 9080TIP3    H251436   1.627   8.383   8.551 -0.2813 -1.0985  0.3834
 9081TIP3   OH251437   3.311   4.081   9.302 -0.0120  0.3133  0.0341
 9081TIP3    H151438   3.375   4.152   9.306 -0.8493  1.1020 -0.2651
 9081TIP3    H251439   3.238   4.111   9.357  0.1113 -0.8326  0.8506
 9082TIP3   OH251440   7.106   0.895   8.768 -0.4778 -0.0917  0.2264
 9082TIP3    H151441   7.032   0.955   8.774 -1.1485 -0.8668 -0.0327
 9082TIP3    H251442   7.148   0.899   8.854  0.4273  1.8886 -0.2605
 9083TIP3   OH251443   7.856   0.947   9.299 -0.4487 -0.2478 -0.9442
 9083TIP3    H151444   7.950   0.962   9.310 -0.6503  0.6582 -0.3330
 9083TIP3    H251445   7.821   1.033   9.274 -1.4465  0.0028  1.1631
 9084TIP3   OH251446   0.021   4.881   9.175 -0.1948  0.6119 -0.0031
 9084TIP3    H151447   0.034   4.789   9.196 -1.8219  0.0704 -1.1584
 9084TIP3    H251448   0.067   4.894   9.092 -0.9492  0.5210 -0.4431
 9085TIP3   OH251449   0.552   4.029   9.228 -0.2784  0.9090  0.1523
 9085TIP3    H151450   0.622   3.985   9.275  0.7833  2.8753  0.5373
 9085TIP3    H251451   0.489   4.053   9.296 -0.7100  0.2505 -0.0120
 9086TIP3   OH251452   1.005   7.715   8.556  0.3100 -0.7732  0.0512
 9086TIP3    H151453   0.913   7.734   8.536  0.6025  0.5442 -0.1345
 9086TIP3    H251454   1.037   7.666   8.480 -0.7171 -2.9238  0.9444
 9087TIP3   OH251455   7.953   3.700   9.014 -0.1371  0.1701  0.3448
 9087TIP3    H151456   8.048   3.694   9.019 -0.2287 -0.7381  1.4806
 9087TIP3    H251457   7.933   3.698   8.921  0.9358 -0.1494  0.1169
 9088TIP3   OH251458   4.828   7.857   8.975  0.2789 -0.7762  0.1999
 9088TIP3    H151459   4.789   7.819   8.896  0.9120  1.1727 -1.1247
 9088TIP3    H251460   4.789   7.945   8.980  1.8795 -0.0712  0.8087
 9089TIP3   OH251461   5.965   2.200   8.001 -0.4567 -0.3931  0.0398
 9089TIP3    H151462   6.015   2.218   8.081  0.9095 -0.2052 -0.8326
 9089TIP3    H251463   5.898   2.138   8.029 -0.1434 -0.1538  1.3866
 9090TIP3   OH251464   1.314   3.804   9.927 -0.6840  0.3246  0.2669
 9090TIP3    H151465   1.268   3.754   9.860  1.9135 -0.1770 -1.2680
 9090TIP3    H251466   1.317   3.746  10.002 -2.9131  0.5833  0.6380
 9091TIP3   OH251467   5.564   3.251   7.612  0.3976  0.0002  0.0649
 9091TIP3    H151468   5.627   3.294   7.554  0.4138 -0.1236 -0.0090
 9091TIP3    H251469   5.490   3.312   7.616  0.6766  0.3272  0.4545
 9092TIP3   OH251470   6.446   3.424   8.896 -0.0279  0.2491  0.4658
 9092TIP3    H151471   6.506   3.459   8.831 -0.3197  0.4188  0.2859
 9092TIP3    H251472   6.424   3.337   8.864 -0.0317  0.2633  0.4300
 9093TIP3   OH251473   6.680   7.264   9.245  0.4040  0.3503  0.2191
 9093TIP3    H151474   6.667   7.282   9.339 -0.0210 -1.8707  0.6310
 9093TIP3    H251475   6.623   7.328   9.202  1.8890  2.5733  1.3463
 9094TIP3   OH251476   3.443   5.501   8.788 -0.3934  0.0930  0.3813
 9094TIP3    H151477   3.434   5.412   8.822 -2.2805  0.5143  1.1218
 9094TIP3    H251478   3.426   5.557   8.864  0.9691  1.1102 -0.0261
 9095TIP3   OH251479   6.882   5.721   9.563 -0.5737  0.2237  0.3034
 9095TIP3    H151480   6.863   5.711   9.470  0.1728  0.7995  0.0811
 9095TIP3    H251481   6.961   5.668   9.577  0.0571  1.1448  0.3274
 9096TIP3   OH251482   1.597   3.689   9.000 -0.0152 -1.0312 -0.1749
 9096TIP3    H151483   1.569   3.766   9.050  0.7175 -2.0008  1.8389
 9096TIP3    H251484   1.534   3.683   8.928 -0.2033  1.3239 -0.3046
 9097TIP3   OH251485   5.222   2.448   8.789 -0.0636  0.4111 -0.2042
 9097TIP3    H151486   5.147   2.482   8.838  1.2122  1.6502  0.9789
 9097TIP3    H251487   5.228   2.505   8.712 -1.5446 -0.9969 -1.4325
 9098TIP3   OH251488   6.949   6.830   8.161 -0.0033  0.5230  0.1767
 9098TIP3    H151489   6.964   6.781   8.242  1.4863 -1.2684 -1.1071
 9098TIP3    H251490   6.909   6.912   8.190  0.0618 -0.2437  2.6720
 9099TIP3   OH251491   5.419   0.610   9.613  0.1411 -0.5111 -0.1089
 9099TIP3    H151492   5.514   0.602   9.614  0.1589 -0.2705  0.3674
 9099TIP3    H251493   5.402   0.702   9.634 -0.1434 -0.0675 -2.1331
 9100TIP3   OH251494   4.300   1.331   8.223 -0.6368 -0.3907  0.2547
 9100TIP3    H151495   4.209   1.357   8.241 -1.1813 -2.5445  0.8460
 9100TIP3    H251496   4.292   1.247   8.178  1.0487  0.1125 -1.0404
 9101TIP3   OH251497   5.173   7.222   8.763 -0.0076  0.3707 -0.6447
 9101TIP3    H151498   5.214   7.297   8.805 -1.5086  0.6704  0.3585
 9101TIP3    H251499   5.247   7.169   8.732  1.1190  1.2529  0.4061
 9102TIP3   OH251500   0.540   5.217   7.932  0.4075 -0.4926  0.5583
 9102TIP3    H151501   0.584   5.137   7.959  2.8804  0.6763  0.2672
 9102TIP3    H251502   0.572   5.284   7.992  1.3734  0.9684 -1.4461
 9103TIP3   OH251503   7.039   5.085   8.355  0.2241 -0.1564  0.0926
 9103TIP3    H151504   7.085   5.101   8.437 -0.1264  0.4648  0.1731
 9103TIP3    H251505   6.958   5.041   8.381 -0.1078  0.4620  0.1342
 9104TIP3   OH251506   3.240   1.192   9.901  0.2202  0.3524  0.0464
 9104TIP3    H151507   3.155   1.198   9.945  1.6171  1.6269  2.8183
 9104TIP3    H251508   3.266   1.101   9.912 -0.4780  0.1163 -0.2137
 9105TIP3   OH251509   6.063   6.217   9.071  0.7472 -0.2065 -0.2147
 9105TIP3    H151510   6.086   6.295   9.021 -0.6334  0.5434  0.2789
 9105TIP3    H251511   6.146   6.169   9.080  1.6709  1.3163 -0.2870
 9106TIP3   OH251512   5.355   3.856   9.944  0.1879 -0.1020  0.3957
 9106TIP3    H151513   5.431   3.825   9.993  0.7464 -1.8753 -1.4468
 9106TIP3    H251514   5.341   3.946   9.974  2.9169  0.2198  0.9252
 9107TIP3   OH251515   6.428   4.260   8.427  0.1123 -0.6769  0.1365
 9107TIP3    H151516   6.441   4.350   8.457 -2.0793 -0.1900 -0.1975
 9107TIP3    H251517   6.416   4.268   8.333 -1.0122 -1.1689  0.2216
 9108TIP3   OH251518   2.247   7.127   9.572 -0.2661  0.4009  0.3956
 9108TIP3    H151519   2.233   7.063   9.502  0.8902 -0.1302  0.6103
 9108TIP3    H251520   2.342   7.124   9.588 -0.3623  1.2924  1.2499
 9109TIP3   OH251521   3.044   6.417   8.156 -0.0593  0.3827  0.8309
 9109TIP3    H151522   3.057   6.487   8.091 -1.1511 -0.5863 -0.4826
 9109TIP3    H251523   3.132   6.397   8.187  0.8578 -0.7079 -2.1077
 9110TIP3   OH251524   5.594   4.854   8.494  0.9471 -0.3900  0.1317
 9110TIP3    H151525   5.680   4.824   8.524  0.4857 -1.2905  0.5818
 9110TIP3    H251526   5.541   4.856   8.573  0.3746 -0.4829 -0.2476
 9111TIP3   OH251527   4.304   2.401   9.012  0.0438 -0.1004 -0.1010
 9111TIP3    H151528   4.309   2.468   8.944  1.1797  1.1503  1.1421
 9111TIP3    H251529   4.394   2.391   9.043 -0.4391 -0.6129  1.2301
 9112TIP3   OH251530   8.163   1.754   7.949  0.0391 -0.5056 -0.2898
 9112TIP3    H151531   8.203   1.700   7.880  0.8141 -0.6094  0.2267
 9112TIP3    H251532   8.149   1.693   8.022 -1.2486 -0.5095 -0.5226
 9113TIP3   OH251533   8.102   4.898   8.748 -0.6925 -0.5280 -0.2114
 9113TIP3    H151534   8.039   4.970   8.740 -0.6548 -0.3265  1.0127
 9113TIP3    H251535   8.104   4.879   8.842  1.6105 -0.0327 -0.0939
 9114TIP3   OH251536   0.723   0.301   9.919 -0.1315 -0.0491 -0.1403
 9114TIP3    H151537   0.808   0.272   9.951  0.8347  4.0435  1.6119
 9114TIP3    H251538   0.743   0.352   9.841 -0.9044  0.9969  0.3192
 9115TIP3   OH251539   3.094   3.418   7.754 -0.2687  0.3677  0.1323
 9115TIP3    H151540   3.064   3.451   7.838 -1.0516 -0.2431  0.0955
 9115TIP3    H251541   3.122   3.329   7.771  1.3680  0.8477  0.1245
 9116TIP3   OH251542   0.857   2.619   9.550  0.5575  0.2212 -0.0319
 9116TIP3    H151543   0.944   2.658   9.549  0.8109 -0.3315 -1.0097
 9116TIP3    H251544   0.803   2.681   9.599  1.3534  0.8735  0.0399
 9117TIP3   OH251545   3.962   1.836   8.121  0.3356 -0.2792  0.8325
 9117TIP3    H151546   3.867   1.829   8.107  0.4327  0.4357 -0.2801
 9117TIP3    H251547   3.983   1.927   8.099  1.5811 -0.9449 -0.8915
 9118TIP3   OH251548   1.792   0.944   8.964  0.5548 -0.4219 -0.8930
 9118TIP3    H151549   1.725   0.997   8.920  0.9998 -0.5639 -1.7631
 9118TIP3    H251550   1.835   1.005   9.023  0.7716  0.0922 -1.5669
 9119TIP3   OH251551   0.636   5.163   8.839 -0.0245 -0.0292  0.0455
 9119TIP3    H151552   0.726   5.133   8.855  0.9573  2.5811  0.0114
 9119TIP3    H251553   0.616   5.218   8.914 -1.7028 -0.7143  0.1282
 9120TIP3   OH251554   7.182   3.214   9.983 -0.1912  0.0258 -0.1437
 9120TIP3    H151555   7.201   3.276  10.053  2.1042 -2.0359  1.2102
 9120TIP3    H251556   7.239   3.139  10.000 -2.5817 -2.4036 -1.8185
 9121TIP3   OH251557   5.181   1.392   8.163 -0.0833 -0.5005 -0.2576
 9121TIP3    H151558   5.106   1.400   8.221  0.3833 -1.6790  0.5373
 9121TIP3    H251559   5.238   1.327   8.205  1.3137  0.2472 -0.9108
 9122TIP3   OH251560   0.098   0.409   8.081  0.1714  0.0370  0.4904
 9122TIP3    H151561   0.185   0.387   8.049 -0.0394 -1.8260  1.0852
 9122TIP3    H251562   0.090   0.363   8.164 -1.2102  0.5445  0.6692
 9123TIP3   OH251563   1.602   3.416   8.448  0.6924 -0.5206  0.0091
 9123TIP3    H151564   1.673   3.377   8.500  1.6201  0.0093 -0.8233
 9123TIP3    H251565   1.598   3.507   8.477  0.0708 -0.6461  0.3344
 9124TIP3   OH251566   2.437   6.026   8.365  0.3463 -0.5549  0.4165
 9124TIP3    H151567   2.356   6.076   8.368  0.0900 -0.7613 -1.8017
 9124TIP3    H251568   2.488   6.065   8.294  2.7992  0.3602  2.4906
 9125TIP3   OH251569   1.213   6.969   8.867  0.5526  0.4702  0.0635
 9125TIP3    H151570   1.224   7.056   8.830 -0.4864  0.3323 -0.6201
 9125TIP3    H251571   1.168   6.984   8.951 -1.0229  0.5236 -0.7535
 9126TIP3   OH251572   8.319   0.951   9.618 -0.2431  0.0758  0.2607
 9126TIP3    H151573   8.350   0.928   9.530 -1.0801 -0.1700  0.0154
 9126TIP3    H251574   8.351   0.880   9.673 -0.1106 -0.0152  0.0693
 9127TIP3   OH251575   3.759   5.821   9.896  0.4839  0.1612  0.1885
 9127TIP3    H151576   3.816   5.862   9.830  0.6485  0.2932  0.4126
 9127TIP3    H251577   3.740   5.892   9.958 -1.4011  0.6387 -0.8353
 9128TIP3   OH251578   2.661   8.318   8.415 -0.0145  0.3265  0.0680
 9128TIP3    H151579   2.746   8.274   8.412  0.9605  2.1595 -0.5411
 9128TIP3    H251580   2.652   8.359   8.329 -0.8954  1.2660  0.5923
 9129TIP3   OH251581   0.047   1.706   8.268  0.4218 -0.3671  0.0743
 9129TIP3    H151582   0.129   1.693   8.219 -1.1152  0.3490 -2.9186
 9129TIP3    H251583   0.046   1.799   8.288 -0.9225  0.2405 -2.5117
 9130TIP3   OH251584   5.465   3.638   9.742 -0.6106  0.0113 -0.3607
 9130TIP3    H151585   5.445   3.688   9.821  2.3375  0.2637  0.3204
 9130TIP3    H251586   5.437   3.549   9.763 -2.4940  0.5900 -0.1894
 9131TIP3   OH251587   5.729   4.919   7.771 -0.2361  0.0580  0.2457
 9131TIP3    H151588   5.765   4.851   7.829 -2.0751  1.4042  3.2023
 9131TIP3    H251589   5.635   4.906   7.775 -0.6603  2.8308  1.0940
 9132TIP3   OH251590   5.642   3.353   8.096  0.0983  0.4758 -0.0034
 9132TIP3    H151591   5.597   3.436   8.114 -1.5183  0.0166 -1.6133
 9132TIP3    H251592   5.580   3.285   8.124  0.6194 -0.1873 -0.4308
 9133TIP3   OH251593   2.491   2.713   9.149 -0.3404 -0.4229 -0.0713
 9133TIP3    H151594   2.412   2.662   9.169 -0.2430 -0.6102 -0.1561
 9133TIP3    H251595   2.458   2.793   9.108 -0.6629  0.7043  2.2151
 9134TIP3   OH251596   4.226   0.662   8.223  0.3238 -0.2345 -0.3518
 9134TIP3    H151597   4.299   0.599   8.228 -0.4265 -1.0659  0.4933
 9134TIP3    H251598   4.149   0.611   8.247 -0.4051  0.8752 -0.2722
 9135TIP3   OH251599   5.139   7.364   8.441 -0.0165 -0.2565  0.0022
 9135TIP3    H151600   5.105   7.391   8.356  0.4528  1.3477  0.2991
 9135TIP3    H251601   5.083   7.407   8.505  1.8742  1.6360  0.4900
 9136TIP3   OH251602   6.271   6.733  10.357 -0.1221  0.4896 -0.1783
 9136TIP3    H151603   6.237   6.784  10.284  1.5052  0.3917 -1.0496
 9136TIP3    H251604   6.364   6.720  10.337  0.3368  0.2958  1.8089
 9137TIP3   OH251605   4.644   2.058   8.312  0.2964 -0.0865  0.6729
 9137TIP3    H151606   4.604   2.142   8.332 -0.4458 -0.7750  2.3065
 9137TIP3    H251607   4.649   2.013   8.397  1.1594 -1.4798 -0.0693
 9138TIP3   OH251608   4.162   1.777   9.475  0.3550  0.3133  0.0525
 9138TIP3    H151609   4.186   1.761   9.384 -0.6102 -1.1189  0.0038
 9138TIP3    H251610   4.243   1.803   9.518  0.5556  2.3892 -1.4851
 9139TIP3   OH251611   1.231   2.883   8.675  0.2438  0.0165 -0.2046
 9139TIP3    H151612   1.327   2.877   8.681  0.2175  0.5489  1.1507
 9139TIP3    H251613   1.212   2.975   8.689 -0.4180  0.1363 -1.7514
 9140TIP3   OH251614   0.556   4.357   7.565  0.3976  0.5221  0.2663
 9140TIP3    H151615   0.540   4.292   7.634 -1.4357 -1.0847 -1.5003
 9140TIP3    H251616   0.468   4.387   7.540  0.8204 -0.0146 -2.2169
 9141TIP3   OH251617   7.081   0.079   8.354 -0.0638 -0.3966 -0.6474
 9141TIP3    H151618   7.095   0.136   8.279  0.4284 -1.0157 -1.0356
 9141TIP3    H251619   7.019   0.127   8.409  1.0484  0.9376 -0.4929
 9142TIP3   OH251620   0.768   2.241   8.674 -0.1452  0.2921  0.1915
 9142TIP3    H151621   0.854   2.208   8.649  0.4588  2.0694 -0.2311
 9142TIP3    H251622   0.749   2.310   8.610 -0.9238  1.3632  1.5213
 9143TIP3   OH251623   7.545   5.440   9.731 -0.3407 -0.0454 -0.8597
 9143TIP3    H151624   7.451   5.436   9.746 -0.0004 -0.8339  1.4719
 9143TIP3    H251625   7.568   5.532   9.740 -0.7384 -0.0021 -0.2550
 9144TIP3   OH251626   3.627   8.038   8.107 -0.1274  0.0845  0.1237
 9144TIP3    H151627   3.540   8.037   8.147  0.1787  2.2890  1.0006
 9144TIP3    H251628   3.613   8.076   8.021 -0.2755 -1.3942 -0.5338
 9145TIP3   OH251629   4.321   2.399   9.558  0.1436  0.1375  0.1662
 9145TIP3    H151630   4.353   2.431   9.473 -0.2763  1.5848  0.5309
 9145TIP3    H251631   4.401   2.383   9.609  0.3989 -0.7511 -0.4788
 9146TIP3   OH251632   0.444   4.669   8.143 -0.4596 -0.0762  0.1957
 9146TIP3    H151633   0.459   4.679   8.049 -0.2830  1.4064  0.3575
 9146TIP3    H251634   0.352   4.646   8.151 -0.9545  1.6093 -0.2765
 9147TIP3   OH251635   2.344   2.775   8.082 -0.0641  0.1977 -0.1159
 9147TIP3    H151636   2.389   2.833   8.021  0.6241  1.3037  1.3543
 9147TIP3    H251637   2.367   2.810   8.169 -1.1470 -1.1783  0.7698
 9148TIP3   OH251638   5.094   4.449   8.349 -0.2615  0.0805 -0.2434
 9148TIP3    H151639   5.090   4.485   8.438  3.4556 -1.8080  0.8746
 9148TIP3    H251640   5.009   4.406   8.337 -1.5121  1.8500  1.6677
 9149TIP3   OH251641   4.458   6.396   8.264  0.5240 -0.2193  0.4871
 9149TIP3    H151642   4.463   6.415   8.357 -1.2362 -0.8435  0.7580
 9149TIP3    H251643   4.490   6.475   8.221 -2.3203  1.7121  1.6171
 9150TIP3   OH251644   5.061   3.856   8.641  0.3245 -0.4125 -0.0869
 9150TIP3    H151645   5.038   3.763   8.648 -0.6473 -0.1549  0.2469
 9150TIP3    H251646   5.156   3.857   8.653 -0.0020 -1.0207  3.6326
 9151TIP3   OH251647   5.652   0.866  10.069 -0.5287  0.0873 -0.5623
 9151TIP3    H151648   5.684   0.777  10.054 -0.0881  0.0937  0.2922
 9151TIP3    H251649   5.678   0.914   9.990 -1.2042 -0.6433 -1.2494
 9152TIP3   OH251650   4.483   8.257   8.573  0.0012 -0.0658 -0.4785
 9152TIP3    H151651   4.504   8.312   8.649  0.9729 -1.7512  0.5300
 9152TIP3    H251652   4.388   8.261   8.566 -0.1194  0.0087  0.9124
 9153TIP3   OH251653   6.209   5.554   9.232  0.1364 -0.0477 -0.3019
 9153TIP3    H151654   6.185   5.541   9.324  0.3493 -0.8580 -0.3535
 9153TIP3    H251655   6.269   5.629   9.234  1.4178 -1.0464  0.4470
 9154TIP3   OH251656   0.510   2.300   9.846 -0.4710  0.1530 -0.3516
 9154TIP3    H151657   0.600   2.292   9.813 -0.8052 -1.1839 -1.0066
 9154TIP3    H251658   0.468   2.362   9.787 -0.0910  0.5049 -0.2616
 9155TIP3   OH251659   2.101   0.768  10.001  0.2452 -0.2961 -0.0176
 9155TIP3    H151660   2.165   0.747  10.068  1.1028 -1.6061 -1.1924
 9155TIP3    H251661   2.145   0.750   9.918 -2.0180 -2.6317 -0.8729
 9156TIP3   OH251662   5.571   4.491   9.803  0.1092 -0.8916  0.5493
 9156TIP3    H151663   5.479   4.517   9.804  0.1314 -0.7726  1.7168
 9156TIP3    H251664   5.608   4.533   9.725 -1.2455 -2.5464 -1.0644
 9157TIP3   OH251665   0.317   7.464   7.921 -0.6289 -0.2552 -0.1833
 9157TIP3    H151666   0.340   7.520   7.847 -0.5593 -0.6758 -0.4902
 9157TIP3    H251667   0.350   7.510   7.998 -1.9909  0.9030 -0.2564
 9158TIP3   OH251668   4.073   7.240   8.533  0.4310  0.1886 -0.4437
 9158TIP3    H151669   4.046   7.270   8.619 -0.3350 -0.7712 -0.3259
 9158TIP3    H251670   4.128   7.164   8.550 -1.1541 -1.1062 -0.8013
 9159TIP3   OH251671   1.961   5.814   7.756  0.1324  0.0499 -0.4085
 9159TIP3    H151672   1.905   5.882   7.720 -0.4100  0.1204  0.5509
 9159TIP3    H251673   1.911   5.733   7.746  0.1926 -0.0050 -0.2724
 9160TIP3   OH251674   7.680   2.780   8.516  0.5732 -0.0865  0.1478
 9160TIP3    H151675   7.623   2.709   8.487 -0.4071  1.0678 -0.8444
 9160TIP3    H251676   7.766   2.758   8.481  0.8889 -2.0096  1.9211
 9161TIP3   OH251677   0.495   5.571   9.235  0.1332  0.6097  0.3301
 9161TIP3    H151678   0.481   5.665   9.231 -0.8360  0.4823  0.5034
 9161TIP3    H251679   0.571   5.560   9.292 -0.7568  1.2196  1.6918
 9162TIP3   OH251680   5.217   3.163   8.631 -0.0037  0.1036 -0.5055
 9162TIP3    H151681   5.148   3.099   8.612 -0.4384  0.8341 -1.4448
 9162TIP3    H251682   5.193   3.198   8.717 -1.0488  0.6320 -0.9911
 9163TIP3   OH251683   5.782   4.102   9.428 -0.0195 -0.0057 -0.0635
 9163TIP3    H151684   5.833   4.154   9.366  1.8856 -1.4881  0.1836
 9163TIP3    H251685   5.723   4.166   9.469  2.6299  2.1603  0.6857
 9164TIP3   OH251686   7.715   5.333   8.462  0.3820 -0.3259  0.3991
 9164TIP3    H151687   7.745   5.420   8.488 -0.2428 -0.3838  1.3517
 9164TIP3    H251688   7.717   5.335   8.366  3.6704 -0.4226  0.3238
 9165TIP3   OH251689   6.745   0.388   7.609 -0.0512 -0.3968 -0.3159
 9165TIP3    H151690   6.733   0.333   7.531  0.9176 -1.0592 -0.0120
 9165TIP3    H251691   6.673   0.451   7.604 -0.5655 -1.0196 -1.2401
 9166TIP3   OH251692   2.451   8.186   9.395 -0.4093  0.2852  0.0297
 9166TIP3    H151693   2.492   8.108   9.359 -1.5851 -0.3443  0.0138
 9166TIP3    H251694   2.523   8.237   9.432  0.5275 -0.1573 -1.1600
 9167TIP3   OH251695   3.409   5.018   7.882 -0.3532 -0.0754  0.4844
 9167TIP3    H151696   3.348   5.070   7.830  0.0480  0.5422  0.6198
 9167TIP3    H251697   3.487   5.073   7.889  0.2867 -0.9218  0.1673
 9168TIP3   OH251698   6.460   4.338   8.110 -0.2195  0.5731 -0.5103
 9168TIP3    H151699   6.499   4.423   8.128 -2.6798  1.9180 -1.1999
 9168TIP3    H251700   6.529   4.289   8.064  1.2017  2.2014 -0.1920
 9169TIP3   OH251701   7.449   2.221   7.838  0.2562 -0.4966 -0.6470
 9169TIP3    H151702   7.389   2.170   7.894 -0.2619  0.4315 -0.3336
 9169TIP3    H251703   7.526   2.165   7.830  0.2172 -0.8027  0.7381
 9170TIP3   OH251704   8.224   0.282   9.907 -0.0543  0.6029 -0.6419
 9170TIP3    H151705   8.198   0.234   9.828 -0.9437  0.5725 -0.3410
 9170TIP3    H251706   8.163   0.356   9.911 -1.3460 -0.5002  1.0845
 9171TIP3   OH251707   4.596   0.361   9.808 -0.2739 -0.0585 -0.1390
 9171TIP3    H151708   4.660   0.303   9.848  1.4027  1.5646 -0.3568
 9171TIP3    H251709   4.600   0.342   9.715  0.7238  0.7978 -0.2834
 9172TIP3   OH251710   5.661   3.686   8.361  0.1447  0.6424 -0.1329
 9172TIP3    H151711   5.716   3.726   8.428  1.8881 -2.0729  0.2054
 9172TIP3    H251712   5.721   3.668   8.288 -0.7436 -0.4051 -0.6395
 9173TIP3   OH251713   2.484   7.506   8.583 -0.0845  0.0896 -0.3774
 9173TIP3    H151714   2.402   7.469   8.549  0.0651  1.3006 -2.2404
 9173TIP3    H251715   2.456   7.578   8.640 -0.3292 -1.5324  1.6482
 9174TIP3   OH251716   2.430   5.407   8.281  0.4105 -0.0068 -0.1758
 9174TIP3    H151717   2.462   5.497   8.273 -0.7233  0.3985 -0.3277
 9174TIP3    H251718   2.422   5.393   8.375 -0.5861  0.4944 -0.1762
 9175TIP3   OH251719   0.137   3.213   8.902  0.3300  0.4501 -0.5591
 9175TIP3    H151720   0.043   3.227   8.899  0.6470  3.3783 -0.4514
 9175TIP3    H251721   0.162   3.238   8.992  1.3368  1.2032 -1.0263
 9176TIP3   OH251722   6.650   8.249   8.696  1.3835 -0.8111  0.4110
 9176TIP3    H151723   6.707   8.309   8.744  1.5411 -0.7284  0.1226
 9176TIP3    H251724   6.696   8.233   8.614  0.2004  0.6623 -0.6022
 9177TIP3   OH251725   4.959   5.044  10.118 -0.5491 -0.6177  0.1003
 9177TIP3    H151726   4.972   5.138  10.134 -1.8515 -0.6846  1.8854
 9177TIP3    H251727   4.918   5.039  10.032  0.6643  0.3343 -0.5690
 9178TIP3   OH251728   3.199   7.979   9.433  0.0307 -0.2271  0.7799
 9178TIP3    H151729   3.239   8.012   9.353  0.0743  0.8131  1.2194
 9178TIP3    H251730   3.164   7.893   9.409  0.8275 -0.3153 -0.1115
 9179TIP3   OH251731   4.876   0.330   9.673 -0.7547 -0.4540  0.2708
 9179TIP3    H151732   4.842   0.314   9.585  0.3684 -0.6741 -0.1389
 9179TIP3    H251733   4.820   0.277   9.730 -0.4948 -1.5934 -0.4891
 9180TIP3   OH251734   7.268   2.110   9.413  0.2316 -0.1359 -0.3077
 9180TIP3    H151735   7.275   2.131   9.320 -2.6193  0.3403 -0.5292
 9180TIP3    H251736   7.313   2.182   9.458  2.3447 -0.7887 -1.2678
 9181TIP3   OH251737   0.079   1.963   7.683  0.1303 -0.5044 -0.6148
 9181TIP3    H151738   0.094   1.885   7.736  2.2027  0.7465  0.7984
 9181TIP3    H251739   0.144   1.957   7.613  0.1789 -0.1667 -0.6018
 9182TIP3   OH251740   5.754   8.012   9.683 -0.5750 -0.0345  0.2235
 9182TIP3    H151741   5.790   8.056   9.760 -0.2520  0.6758 -0.3121
 9182TIP3    H251742   5.768   7.919   9.699  0.2537  0.1514  0.6479
 9183TIP3   OH251743   0.394   2.569   9.251 -0.3884  0.2306  0.1942
 9183TIP3    H151744   0.472   2.536   9.295 -0.0618  1.0679  0.2683
 9183TIP3    H251745   0.417   2.659   9.226 -0.7727 -0.0272 -1.1734
 9184TIP3   OH251746   4.232   0.038   8.340 -0.3314  0.2547 -0.1998
 9184TIP3    H151747   4.250   0.029   8.434 -0.6880 -1.9407 -0.2915
 9184TIP3    H251748   4.317   0.023   8.299 -0.3311  0.4430 -0.2685
 9185TIP3   OH251749   0.752   7.746   8.502 -0.2036 -0.0183  0.2249
 9185TIP3    H151750   0.706   7.763   8.419  2.7404  3.0250 -1.0751
 9185TIP3    H251751   0.706   7.799   8.566 -0.2902  0.6750 -0.3892
 9186TIP3   OH251752   1.551   3.217   7.962  0.0915  0.0145 -0.5446
 9186TIP3    H151753   1.633   3.169   7.966  0.5337  0.7411 -0.8606
 9186TIP3    H251754   1.507   3.183   7.883 -0.4954 -1.2649  0.2848
 9187TIP3   OH251755   3.724   7.412   9.387 -0.7887 -0.3293 -0.1233
 9187TIP3    H151756   3.712   7.437   9.479 -2.7791  0.6646 -0.5875
 9187TIP3    H251757   3.673   7.331   9.377  1.3629 -1.7920  0.1460
 9188TIP3   OH251758   7.876   6.344   9.491  0.4277  0.7582 -0.0324
 9188TIP3    H151759   7.955   6.387   9.522  0.4744  0.4994  0.2125
 9188TIP3    H251760   7.812   6.414   9.482  0.1537  0.7226  1.4629
 9189TIP3   OH251761   4.205   0.345   8.850 -0.1791  0.0000 -0.3386
 9189TIP3    H151762   4.142   0.417   8.845 -1.2672 -0.7487  1.3825
 9189TIP3    H251763   4.201   0.304   8.764 -1.1278  0.7353 -0.6686
 9190TIP3   OH251764   2.348   4.929   7.914 -0.0530  0.0406  0.2848
 9190TIP3    H151765   2.309   5.016   7.925 -0.3698  0.0798 -1.0208
 9190TIP3    H251766   2.411   4.939   7.843 -1.4002 -1.1749 -1.1541
 9191TIP3   OH251767   1.280   1.178   8.263 -0.1658 -0.0153 -0.5042
 9191TIP3    H151768   1.352   1.116   8.251 -0.8966 -0.9584 -0.1048
 9191TIP3    H251769   1.201   1.125   8.258 -0.7809  0.7279  0.7746
 9192TIP3   OH251770   8.372   8.415   8.459 -0.1076  0.0564  0.2899
 9192TIP3    H151771   8.365   8.322   8.480  2.5312 -0.3744 -0.3887
 9192TIP3    H251772   8.356   8.460   8.542  0.5765 -1.1228  1.0934
 9193TIP3   OH251773   5.325   4.607   9.761 -0.0598 -0.0518  0.0576
 9193TIP3    H151774   5.290   4.519   9.771 -1.3494  0.3216 -0.9017
 9193TIP3    H251775   5.278   4.659   9.827  0.2115  0.0581  0.1677
 9194TIP3   OH251776   4.871   2.333   9.466  0.1557 -0.4003 -0.5153
 9194TIP3    H151777   4.894   2.389   9.540  0.5317 -0.6106 -0.4713
 9194TIP3    H251778   4.822   2.260   9.505  0.4977 -0.5972 -0.4512
 9195TIP3   OH251779   4.657   6.719   9.360  0.4968 -0.2959 -0.3427
 9195TIP3    H151780   4.649   6.797   9.413  0.8559 -0.3516 -0.2081
 9195TIP3    H251781   4.646   6.646   9.422  2.1113 -0.3802 -0.1361
 9196TIP3   OH251782   1.360   6.607   8.678  0.3551 -0.3663  0.1268
 9196TIP3    H151783   1.309   6.644   8.606 -2.3114  0.6845  2.3800
 9196TIP3    H251784   1.419   6.677   8.704  0.3647 -0.2632 -0.1707
 9197TIP3   OH251785   1.963   4.805   9.316 -0.1129  0.3261 -0.3655
 9197TIP3    H151786   1.993   4.722   9.279 -0.4199  0.2226 -0.3787
 9197TIP3    H251787   2.041   4.841   9.359 -0.3190 -0.6881  0.9525
 9198TIP3   OH251788   3.384   0.624   7.831  0.1800 -0.1062 -0.3036
 9198TIP3    H151789   3.424   0.542   7.802 -0.2063  0.1621 -1.7094
 9198TIP3    H251790   3.294   0.600   7.852  0.6297 -0.4230  1.3789
 9199TIP3   OH251791   1.956   5.551   8.732  0.4953  0.0114  0.1679
 9199TIP3    H151792   1.987   5.461   8.728  1.0427  0.2234 -0.5571
 9199TIP3    H251793   1.984   5.590   8.649  0.3673  0.8831  0.5232
 9200TIP3   OH251794   0.793   6.071   7.752  0.0193 -0.0522 -0.6930
 9200TIP3    H151795   0.866   6.134   7.750 -0.3584  0.3840 -1.0083
 9200TIP3    H251796   0.759   6.078   7.841  0.7962 -0.7747 -0.3214
 9201TIP3   OH251797   1.071   2.386   7.661  0.0446  0.5031 -0.0420
 9201TIP3    H151798   1.164   2.375   7.681  0.0062 -0.3261 -0.2850
 9201TIP3    H251799   1.039   2.297   7.645 -0.7417  0.8011 -0.1758
 9202TIP3   OH251800   7.199   6.584   8.366  0.4207 -0.3938  0.0860
 9202TIP3    H151801   7.220   6.639   8.441 -1.1629  3.6436 -2.0924
 9202TIP3    H251802   7.136   6.521   8.400  0.8727  0.3095  2.4402
 9203TIP3   OH251803   2.612   1.995   9.694 -0.7245  0.0165  0.2340
 9203TIP3    H151804   2.701   1.961   9.708 -1.3169 -2.5283 -1.4577
 9203TIP3    H251805   2.616   2.086   9.724  3.0032  0.6336 -1.5405
 9204TIP3   OH251806   7.767   2.659   7.656 -0.0525  0.3595 -0.2995
 9204TIP3    H151807   7.826   2.635   7.727  0.5085 -0.2812 -0.9631
 9204TIP3    H251808   7.785   2.752   7.640  1.0180  0.1000 -0.6971
 9205TIP3   OH251809   6.041   7.574  10.175  0.1059 -0.5081 -0.1967
 9205TIP3    H151810   6.128   7.611  10.186 -0.0770  0.0932 -0.7483
 9205TIP3    H251811   6.050   7.483  10.204  0.8812 -0.4180 -0.1345
 9206TIP3   OH251812   0.324   6.889   8.780 -0.8459  0.9171 -0.2617
 9206TIP3    H151813   0.247   6.852   8.736 -0.1570 -2.0633  0.7533
 9206TIP3    H251814   0.349   6.821   8.844  1.5706  2.5578  0.6765
 9207TIP3   OH251815   6.560   0.377   9.557  0.5110  0.3765  0.0768
 9207TIP3    H151816   6.655   0.373   9.564  0.4971 -0.8101 -0.1130
 9207TIP3    H251817   6.528   0.317   9.625 -0.0106 -0.9767 -1.2986
 9208TIP3   OH251818   4.077   5.632   8.619  0.1094  0.0277 -0.0136
 9208TIP3    H151819   4.023   5.560   8.589  0.7065 -0.7788  0.7968
 9208TIP3    H251820   4.020   5.683   8.676  0.2153 -0.8705  0.9121
 9209TIP3   OH251821   4.270   2.638   7.936  0.1271 -0.0912 -0.2961
 9209TIP3    H151822   4.224   2.712   7.976 -2.2195 -1.0336 -1.0639
 9209TIP3    H251823   4.267   2.656   7.842  0.2816 -0.7656 -0.4340
 9210TIP3   OH251824   5.936   6.937   9.327  0.1566  0.2417  0.0771
 9210TIP3    H151825   5.986   6.897   9.398  1.2118 -1.6687 -1.6285
 9210TIP3    H251826   5.856   6.885   9.322  1.2882 -1.4884 -1.7889
 9211TIP3   OH251827   3.627   3.359   8.387  0.6546  0.0084  0.0915
 9211TIP3    H151828   3.582   3.423   8.332  2.0642  1.5402  0.6213
 9211TIP3    H251829   3.587   3.370   8.473  0.2110 -0.5396 -0.0461
 9212TIP3   OH251830   5.059   5.331   9.625  0.0916 -0.8423 -0.3765
 9212TIP3    H151831   5.062   5.270   9.552 -0.2438 -2.0530  0.5784
 9212TIP3    H251832   4.966   5.347   9.640  0.1772  0.9562 -1.4095
 9213TIP3   OH251833   7.690   8.396   9.217  0.2681 -0.7257 -0.1226
 9213TIP3    H151834   7.660   8.419   9.305  1.3037 -0.2454  0.1236
 9213TIP3    H251835   7.784   8.379   9.227  0.4158 -0.5938 -1.1488
 9214TIP3   OH251836   6.311   3.956   9.188  0.4120 -0.2314 -0.1727
 9214TIP3    H151837   6.386   3.959   9.247  0.0978 -0.9688  0.2807
 9214TIP3    H251838   6.250   4.021   9.224  1.1531  0.9552 -1.0119
 9215TIP3   OH251839   0.331   0.201   9.364 -0.1446 -0.3853 -0.1322
 9215TIP3    H151840   0.399   0.230   9.424  0.7445 -0.5343 -1.0418
 9215TIP3    H251841   0.252   0.197   9.418  0.1376  1.6403  0.5238
 9216TIP3   OH251842   6.283   3.640   8.823  0.0292  0.0663  0.7105
 9216TIP3    H151843   6.317   3.725   8.852  0.4582  0.4284 -0.7292
 9216TIP3    H251844   6.338   3.575   8.865  0.7035  0.5678  0.6091
 9217TIP3   OH251845   3.214   3.590   8.708  0.6365  0.1374  0.1290
 9217TIP3    H151846   3.255   3.621   8.627 -0.0883  1.6171  0.2929
 9217TIP3    H251847   3.183   3.502   8.687  1.9748 -0.1707 -0.6551
 9218TIP3   OH251848   2.727   5.360   7.955  0.1427  0.3384 -0.2388
 9218TIP3    H151849   2.725   5.396   7.866  0.1677 -1.6084 -1.0807
 9218TIP3    H251850   2.815   5.324   7.965  0.3101  0.9799  0.7955
 9219TIP3   OH251851   4.186   6.332   8.684  0.3346 -0.0218 -0.2711
 9219TIP3    H151852   4.155   6.276   8.613 -0.4360  2.3221 -1.9344
 9219TIP3    H251853   4.262   6.286   8.721 -0.8549 -2.5683 -0.8037
 9220TIP3   OH251854   5.484   4.001   8.154  0.3809  0.8134 -0.0496
 9220TIP3    H151855   5.437   4.077   8.119  1.2543  0.1346 -2.9250
 9220TIP3    H251856   5.574   4.032   8.165  0.5411  0.4652 -0.3582
 9221TIP3   OH251857   4.969   4.349   8.758  0.4274 -0.2349 -0.7371
 9221TIP3    H151858   5.033   4.279   8.746 -0.4466 -0.6551 -3.6232
 9221TIP3    H251859   4.986   4.410   8.687 -0.8240  0.9174 -0.0861
 9222TIP3   OH251860   7.557   8.058   8.416  0.8486 -0.4316  0.2796
 9222TIP3    H151861   7.580   8.068   8.508  0.7436 -0.4162  0.3041
 9222TIP3    H251862   7.625   8.106   8.369 -0.0180  1.0025  0.4332
 9223TIP3   OH251863   4.083   6.133   9.256  0.5342 -0.0132 -1.0338
 9223TIP3    H151864   3.998   6.101   9.226  0.8931 -0.3470 -1.7076
 9223TIP3    H251865   4.118   6.063   9.311 -0.1755  0.6459  0.3199
 9224TIP3   OH251866   2.553   2.292   9.739  0.4867  0.3206  0.6395
 9224TIP3    H151867   2.560   2.374   9.788  0.9043 -0.7952  2.5553
 9224TIP3    H251868   2.467   2.295   9.697 -0.8925  0.4327  3.2623
 9225TIP3   OH251869   1.303   0.009   7.576  0.7023  0.2328 -0.0457
 9225TIP3    H151870   1.372  -0.051   7.604  1.3169  0.1838 -1.5768
 9225TIP3    H251871   1.255   0.029   7.656  3.2013  1.1968  1.3304
 9226TIP3   OH251872   4.482   4.599   8.010  0.6298  0.2672 -0.2906
 9226TIP3    H151873   4.557   4.635   7.963  0.7482 -0.7266 -0.8794
 9226TIP3    H251874   4.508   4.602   8.102  1.1396  0.5145 -0.4392
 9227TIP3   OH251875   8.153   6.147  10.225 -0.5107 -0.1958 -0.0244
 9227TIP3    H151876   8.180   6.055  10.216 -2.0189 -0.7967  1.2171
 9227TIP3    H251877   8.225   6.196  10.187  1.4015 -1.8018  1.2663
 9228TIP3   OH251878   5.970   5.943   8.530 -0.4583  0.3548 -0.3664
 9228TIP3    H151879   5.913   5.908   8.598  0.1655 -0.2455 -0.1364
 9228TIP3    H251880   6.017   6.015   8.572  0.3822 -0.4119  0.0445
 9229TIP3   OH251881   1.743   1.388   8.968  0.0241  0.1390  0.1839
 9229TIP3    H151882   1.764   1.367   8.877 -2.6798 -0.0024 -0.4870
 9229TIP3    H251883   1.738   1.303   9.012 -0.3372  0.0918  0.0531
 9230TIP3   OH251884   3.167   0.005   9.188  0.5642  0.4641 -0.3442
 9230TIP3    H151885   3.148  -0.075   9.237 -1.2581  0.7877 -0.4771
 9230TIP3    H251886   3.222  -0.024   9.115  1.3134 -0.3898  0.5265
 9231TIP3   OH251887   4.901   0.571   9.407  0.0417 -0.1625 -0.0180
 9231TIP3    H151888   4.996   0.565   9.420  0.4907  1.9232 -1.7360
 9231TIP3    H251889   4.869   0.611   9.488  1.3670  3.3565 -1.0154
 9232TIP3   OH251890   0.068   0.168   9.134  0.1493 -0.0644  0.0435
 9232TIP3    H151891   0.147   0.221   9.128 -0.4570  0.8072 -0.3999
 9232TIP3    H251892   0.015   0.196   9.059 -0.3796 -0.9711  0.0687
 9233TIP3   OH251893   5.773   2.749   8.504  0.0150 -0.1786  0.2920
 9233TIP3    H151894   5.726   2.826   8.471  0.4511 -0.6330 -1.4709
 9233TIP3    H251895   5.728   2.674   8.465  0.7473 -0.7293  0.4833
 9234TIP3   OH251896   0.611   7.939   8.013 -0.1089 -0.1551  0.2583
 9234TIP3    H151897   0.629   7.997   7.938 -0.0918 -0.9283 -0.3531
 9234TIP3    H251898   0.632   7.992   8.090  2.3355 -0.1466 -0.3403
 9235TIP3   OH251899   5.024   4.736   9.404  0.0328  0.5238  0.0243
 9235TIP3    H151900   5.116   4.755   9.420  0.3299 -1.7587  1.3322
 9235TIP3    H251901   5.014   4.746   9.309  1.8619 -0.1473 -0.2698
 9236TIP3   OH251902   3.905   1.649   9.463  0.3434  0.4952 -0.3165
 9236TIP3    H151903   3.990   1.691   9.480 -1.2492  2.5909  3.8515
 9236TIP3    H251904   3.905   1.572   9.520  0.1153 -0.6232 -1.7803
 9237TIP3   OH251905   7.129   6.015   8.494  0.0810  0.4409  0.3385
 9237TIP3    H151906   7.041   6.046   8.469  0.1559  0.0009 -0.5199
 9237TIP3    H251907   7.181   6.027   8.415  0.2366 -1.3842  0.1309
 9238TIP3   OH251908   7.097   7.453   8.454 -0.2816 -0.4282  0.4140
 9238TIP3    H151909   7.006   7.479   8.442 -0.2395  0.5542  1.9367
 9238TIP3    H251910   7.120   7.484   8.542  0.9661 -2.2778  0.8030
 9239TIP3   OH251911   7.860   6.861   8.738 -0.0971 -0.0953  0.0831
 9239TIP3    H151912   7.802   6.808   8.682 -0.4711 -1.1875  1.4625
 9239TIP3    H251913   7.894   6.799   8.802  0.6032  1.0696  0.8616
 9240TIP3   OH251914   0.532   5.417   9.573  0.0996  0.4390  0.4792
 9240TIP3    H151915   0.626   5.409   9.554  0.4770  3.2632  0.6379
 9240TIP3    H251916   0.494   5.335   9.543  2.2700  0.1788 -1.8792
 9241TIP3   OH251917   6.441   3.765   7.824 -0.4152  0.3655 -0.0309
 9241TIP3    H151918   6.386   3.726   7.892 -2.1296 -1.1858 -2.1704
 9241TIP3    H251919   6.395   3.845   7.799 -0.8756 -0.0778 -0.6627
 9242TIP3   OH251920   5.338   5.848   7.784  0.1871  0.7085 -0.3326
 9242TIP3    H151921   5.361   5.756   7.788  0.2018  0.7768  2.1028
 9242TIP3    H251922   5.244   5.848   7.764 -0.0271  0.1350  0.6531
 9243TIP3   OH251923   0.809   0.910   9.218 -0.0912  0.3629 -0.1287
 9243TIP3    H151924   0.847   0.987   9.176 -1.2160  0.1248 -1.7309
 9243TIP3    H251925   0.733   0.944   9.265  1.5947  0.7386  2.4752
 9244TIP3   OH251926   2.076   2.560   8.469 -0.1945  0.3026  0.7725
 9244TIP3    H151927   2.073   2.655   8.462  0.6146  0.2303 -1.5846
 9244TIP3    H251928   2.120   2.543   8.552 -0.8048  1.9634  1.4710
 9245TIP3   OH251929   1.350   3.252   8.112  0.7935  0.1145  0.8819
 9245TIP3    H151930   1.296   3.182   8.076  0.5634  0.0411  1.3549
 9245TIP3    H251931   1.433   3.246   8.066 -0.1901  1.3508 -1.1700
 9246TIP3   OH251932   3.071   8.342   8.389 -0.3095 -0.7293  0.1483
 9246TIP3    H151933   3.050   8.414   8.330  0.3723 -0.7090 -0.0753
 9246TIP3    H251934   3.090   8.384   8.473  0.9913 -0.5517 -0.2105
 9247TIP3   OH251935   1.066   4.205   7.554 -0.1106 -0.1463 -0.4963
 9247TIP3    H151936   0.974   4.180   7.545 -0.7859  1.1821  1.9412
 9247TIP3    H251937   1.066   4.300   7.554  1.5626 -0.0572 -2.2973
 9248TIP3   OH251938   7.884   6.449   8.562 -0.7744  0.2210 -0.0958
 9248TIP3    H151939   7.966   6.475   8.603  0.3395 -0.0543 -2.0759
 9248TIP3    H251940   7.865   6.363   8.600  1.0520 -0.7370 -1.2388
 9249TIP3   OH251941   3.228   5.042   8.374  0.5268 -0.0809  0.0625
 9249TIP3    H151942   3.250   5.129   8.408 -1.9225  0.8658 -0.5548
 9249TIP3    H251943   3.157   5.011   8.430 -0.2482 -0.6073 -1.1675
 9250TIP3   OH251944   5.793   7.755   9.761 -0.4447 -0.3773 -0.2110
 9250TIP3    H151945   5.807   7.751   9.855 -1.8423  0.1228  0.0361
 9250TIP3    H251946   5.878   7.730   9.723 -0.0010 -1.0516  1.1617
 9251TIP3   OH251947   4.433   3.288   8.306 -0.5559  1.0164 -0.0332
 9251TIP3    H151948   4.377   3.253   8.236 -1.6946  1.1477  0.7853
 9251TIP3    H251949   4.481   3.212   8.338 -0.9922  0.7083 -0.0962
 9252TIP3   OH251950   6.369   2.731   9.181  0.3376  0.2096 -0.4759
 9252TIP3    H151951   6.344   2.647   9.219  0.8571 -0.1904 -1.0011
 9252TIP3    H251952   6.406   2.781   9.254 -0.2901  0.1247 -0.0897
 9253TIP3   OH251953   8.169   2.393   7.948 -0.0368  0.2276  0.0232
 9253TIP3    H151954   8.081   2.367   7.922 -0.5407  0.0810  1.7621
 9253TIP3    H251955   8.175   2.485   7.923 -0.4658  0.0926 -0.6045
 9254TIP3   OH251956   7.923   3.538   8.726 -0.3345 -0.3017 -0.2254
 9254TIP3    H151957   7.938   3.446   8.707  0.7495 -0.5952  1.7555
 9254TIP3    H251958   7.836   3.541   8.765 -0.4252 -0.4580 -0.4148
 9255TIP3   OH251959   6.911   6.592   7.999 -0.3017  0.0532  0.4011
 9255TIP3    H151960   6.927   6.657   8.067 -0.7042  0.5608  0.0221
 9255TIP3    H251961   6.898   6.644   7.920  0.5465 -0.5457 -0.1462
 9256TIP3   OH251962   5.713   3.257   9.078  0.1984 -0.5433  0.2847
 9256TIP3    H151963   5.628   3.300   9.066  0.4988  0.0742  0.3274
 9256TIP3    H251964   5.728   3.210   8.996  0.6994  0.9264 -0.5021
 9257TIP3   OH251965   8.235   5.421   8.793  0.1317  0.1281 -0.6153
 9257TIP3    H151966   8.174   5.405   8.722 -0.1268 -0.5939 -0.2419
 9257TIP3    H251967   8.322   5.407   8.754  0.0932  1.3331 -1.1913
 9258TIP3   OH251968   5.421   7.642   8.819  0.0261 -0.0368 -0.1469
 9258TIP3    H151969   5.487   7.661   8.752 -0.1161  2.2272  0.2879
 9258TIP3    H251970   5.463   7.667   8.901 -0.9403  0.2706  0.2620
 9259TIP3   OH251971   5.305   8.300   7.743  0.4573  0.3351 -0.3936
 9259TIP3    H151972   5.282   8.391   7.760  0.3008  0.2524 -0.1619
 9259TIP3    H251973   5.359   8.274   7.818 -0.4581 -0.1082  0.1233
 9260TIP3   OH251974   2.687   1.173   8.756  0.6217 -0.0110  0.0215
 9260TIP3    H151975   2.712   1.252   8.709 -2.6525  1.1385 -0.0186
 9260TIP3    H251976   2.592   1.177   8.762  0.3057 -3.8110  0.3032
 9261TIP3   OH251977   7.683   7.264   8.953 -0.7182 -0.9035 -0.2804
 9261TIP3    H151978   7.718   7.225   8.872  0.3125 -0.5578 -0.0192
 9261TIP3    H251979   7.661   7.354   8.929  1.1327 -0.2845  0.1915
 9262TIP3   OH251980   4.248   4.724   9.074  0.2521 -0.2859  0.4748
 9262TIP3    H151981   4.307   4.667   9.026  0.8819  0.4366  0.3820
 9262TIP3    H251982   4.262   4.811   9.037  0.1974  0.1471  1.4442
 9263TIP3   OH251983   5.401   7.452   8.476  0.1644  0.0675  0.4971
 9263TIP3    H151984   5.462   7.379   8.489 -0.9244 -1.2197 -1.1725
 9263TIP3    H251985   5.315   7.417   8.499 -0.2376  1.2102  0.8034
 9264TIP3   OH251986   5.677   3.521   7.738 -0.0993  0.2870 -0.6976
 9264TIP3    H151987   5.709   3.608   7.714  2.4913 -0.2310  0.5011
 9264TIP3    H251988   5.688   3.468   7.659 -1.4405  0.9303 -1.3530
 9265TIP3   OH251989   2.032   2.884  10.158 -0.8508 -0.6585 -0.7257
 9265TIP3    H151990   1.991   2.954  10.106 -0.5246  0.6594  0.7080
 9265TIP3    H251991   2.119   2.918  10.179 -1.1267 -0.9520  1.0003
 9266TIP3   OH251992   1.759   7.458   7.842  0.5502  0.4143  0.0726
 9266TIP3    H151993   1.782   7.520   7.772 -0.3052  1.0944  0.3806
 9266TIP3    H251994   1.668   7.434   7.825  0.2349  0.8098  1.1023
 9267TIP3   OH251995   6.952   8.365   8.818  0.1772  0.0555  0.3803
 9267TIP3    H151996   6.878   8.425   8.820  1.4804  1.7047  0.9652
 9267TIP3    H251997   7.017   8.404   8.876  1.1154 -1.8992  0.7321
 9268TIP3   OH251998   7.539   2.503   7.702  0.7827 -0.3074  0.3617
 9268TIP3    H151999   7.563   2.410   7.706  1.4995 -0.1171  0.6984
 9268TIP3    H252000   7.619   2.547   7.672  0.6459  0.2642  0.8130
 9269TIP3   OH252001   0.693   5.341   8.615  0.8007  0.1841  0.2730
 9269TIP3    H152002   0.733   5.414   8.663 -0.8377  0.8260  0.7524
 9269TIP3    H252003   0.659   5.283   8.683  1.3293 -0.5987 -0.1175
 9270TIP3   OH252004   0.328   3.645   7.818 -0.1247  0.0979  0.3502
 9270TIP3    H152005   0.273   3.622   7.893 -2.1145  1.8003 -0.4920
 9270TIP3    H252006   0.363   3.561   7.787  1.6981 -0.5812  3.7810
 9271TIP3   OH252007   0.495   3.331   7.802  0.4807  0.1163  0.2183
 9271TIP3    H152008   0.413   3.342   7.849  0.7255 -1.4172  1.0629
 9271TIP3    H252009   0.471   3.285   7.722  0.2628  1.4292 -0.4850
 9272TIP3   OH252010   0.879   5.774   7.743  0.1885 -0.5319  0.2890
 9272TIP3    H152011   0.796   5.727   7.729 -0.2396  0.1681  0.4376
 9272TIP3    H252012   0.864   5.860   7.706  1.0840 -0.6048 -0.2702
 9273TIP3   OH252013   3.873   0.532   8.105  0.1657  0.5960  0.2442
 9273TIP3    H152014   3.865   0.477   8.183 -0.5993  1.3482  0.7179
 9273TIP3    H252015   3.926   0.481   8.045  0.7967  0.0136  1.2706
 9274TIP3   OH252016   2.221   4.968   9.176 -0.3103  0.0037 -0.2079
 9274TIP3    H152017   2.313   4.979   9.151 -0.2477 -1.7013 -0.9153
 9274TIP3    H252018   2.183   4.915   9.106 -1.8131  0.5538  0.1464
 9275TIP3   OH252019   1.381   7.019   8.450 -0.5382  0.0784  0.3056
 9275TIP3    H152020   1.341   7.042   8.367 -1.4147 -0.6752  0.5006
 9275TIP3    H252021   1.320   6.958   8.490  0.2364 -0.1609  1.1662
 9276TIP3   OH252022   6.219   7.274   9.236  0.4941 -0.5435 -0.0361
 9276TIP3    H152023   6.200   7.344   9.298  0.0345 -0.7406  0.0561
 9276TIP3    H252024   6.228   7.196   9.290  1.2457 -0.5199 -0.1153
 9277TIP3   OH252025   1.214   3.041   8.010 -0.1045 -0.0653  0.0146
 9277TIP3    H152026   1.199   3.057   7.917 -1.4190  1.3279  0.4213
 9277TIP3    H252027   1.231   2.947   8.016  0.0423 -0.1652 -1.6330
 9278TIP3   OH252028   4.033   8.173   9.061 -0.1158  0.0615  0.2009
 9278TIP3    H152029   4.071   8.261   9.068  2.5872 -0.6344 -3.1050
 9278TIP3    H252030   4.091   8.118   9.115 -0.1911 -0.0950  0.1238
 9279TIP3   OH252031   0.698   4.230   9.790 -0.1286  0.1563 -0.0978
 9279TIP3    H152032   0.753   4.265   9.719 -2.1036  0.5558 -1.5226
 9279TIP3    H252033   0.715   4.288   9.864  2.2207 -0.4441 -0.0965
 9280TIP3   OH252034   0.447   5.613   7.389  0.3438  0.1591 -0.5462
 9280TIP3    H152035   0.448   5.609   7.293  0.6798  0.2646 -0.5485
 9280TIP3    H252036   0.445   5.522   7.417  0.4407  0.1244 -0.6528
 9281TIP3   OH252037   8.079   7.681   8.563 -0.6055  0.0775 -0.0256
 9281TIP3    H152038   8.005   7.667   8.503 -0.0348 -0.2607 -0.6599
 9281TIP3    H252039   8.043   7.735   8.633 -1.0876  1.1583 -1.0734
 9282TIP3   OH252040   3.417   5.082   8.649 -0.5485 -0.1907  0.2974
 9282TIP3    H152041   3.395   5.154   8.590 -0.2342 -0.0760  0.3211
 9282TIP3    H252042   3.448   5.013   8.592 -0.0796 -0.0180  0.3426
 9283TIP3   OH252043   3.357   1.415   8.391  0.1618 -0.3181  0.6151
 9283TIP3    H152044   3.325   1.337   8.437 -2.3737 -0.6884 -1.5377
 9283TIP3    H252045   3.392   1.381   8.308  0.9834  0.6605  0.5470
 9284TIP3   OH252046   5.229   0.071   8.101  0.1221  0.1201  0.6640
 9284TIP3    H152047   5.179   0.143   8.061 -0.1802 -0.8218 -0.7008
 9284TIP3    H252048   5.201   0.071   8.192 -1.7433  0.1783  0.1382
 9285TIP3   OH252049   6.425   4.836   8.180 -0.2858 -0.2957  0.2971
 9285TIP3    H152050   6.434   4.873   8.268 -3.0445  0.5507  0.3119
 9285TIP3    H252051   6.390   4.908   8.127 -0.1356 -1.2345 -1.1257
 9286TIP3   OH252052   0.484   1.769   7.912 -0.9963  0.0728  0.2515
 9286TIP3    H152053   0.546   1.747   7.981 -1.2300 -1.5144 -0.0166
 9286TIP3    H252054   0.538   1.812   7.845 -0.7000  1.2492  1.2101
 9287TIP3   OH252055   0.790   2.181   7.845  0.3080  0.0735  0.4329
 9287TIP3    H152056   0.846   2.118   7.801 -0.6097 -0.5260  0.0913
 9287TIP3    H252057   0.784   2.254   7.784 -0.5511 -0.5389 -0.2501
 9288TIP3   OH252058   6.877   4.550   9.470 -0.2263 -0.4060 -0.2587
 9288TIP3    H152059   6.794   4.559   9.424 -0.2656  0.4367 -0.0422
 9288TIP3    H252060   6.867   4.471   9.522 -1.0863 -0.0408  0.1467
 9289TIP3   OH252061   3.222   3.223   7.908 -0.1747  0.2676  0.6401
 9289TIP3    H152062   3.226   3.232   8.003  4.0568 -2.4746  0.9759
 9289TIP3    H252063   3.159   3.151   7.894  0.0953 -0.1464  1.4850
 9290TIP3   OH252064   6.523   2.796   8.973  0.1672 -0.0967  0.1345
 9290TIP3    H152065   6.489   2.757   9.054  1.9323 -0.1617  0.8935
 9290TIP3    H252066   6.551   2.884   8.998  0.4505 -0.0052 -0.4775
 9291TIP3   OH252067   0.314   0.347   9.110  0.0730  0.0884  0.5992
 9291TIP3    H152068   0.370   0.421   9.088  1.7530 -2.1042 -3.6050
 9291TIP3    H252069   0.363   0.299   9.177  1.6631 -0.0022 -0.5658
 9292TIP3   OH252070   0.570   4.878   9.380  0.6517  0.0664  0.3358
 9292TIP3    H152071   0.496   4.937   9.397  0.6904  0.1355  0.2644
 9292TIP3    H252072   0.637   4.904   9.444  0.9226  0.5457 -0.1307
 9293TIP3   OH252073   3.171   2.915   8.487 -0.1897  0.1786 -0.5335
 9293TIP3    H152074   3.169   2.824   8.457  0.2973 -0.2957  0.7860
 9293TIP3    H252075   3.262   2.943   8.477  0.1103 -0.1718  0.9172
 9294TIP3   OH252076   7.624   1.692   9.081  0.0641 -0.7015 -0.1418
 9294TIP3    H152077   7.564   1.708   9.008 -0.2321  1.1133  0.4608
 9294TIP3    H252078   7.580   1.727   9.158  0.8214 -1.6502  0.7628
 9295TIP3   OH252079   6.346   0.964   9.484  0.3122  0.0875  0.2502
 9295TIP3    H152080   6.440   0.974   9.497  0.2650  0.4269  0.3262
 9295TIP3    H252081   6.306   1.026   9.545  0.0217 -0.4978  0.6733
 9296TIP3   OH252082   2.346   1.598   8.777  0.3651 -0.3740 -0.0724
 9296TIP3    H152083   2.327   1.614   8.684  0.4229 -0.2060 -0.0570
 9296TIP3    H252084   2.334   1.684   8.818  2.4900  0.0660 -0.2806
 9297TIP3   OH252085   7.237   2.729   7.879 -0.1889  0.4479  0.0317
 9297TIP3    H152086   7.151   2.694   7.905  0.6970 -0.3882  2.0359
 9297TIP3    H252087   7.289   2.652   7.858  0.2973  0.9105 -0.5098
 9298TIP3   OH252088   5.025   5.090   7.955 -0.2600  0.9023  0.3064
 9298TIP3    H152089   5.068   5.168   7.989  0.5820  0.2637  0.7606
 9298TIP3    H252090   5.093   5.046   7.904  0.0977 -0.8143  2.1352
 9299TIP3   OH252091   6.904   7.363   8.862 -0.1235  0.1659 -0.3543
 9299TIP3    H152092   6.971   7.302   8.831 -0.2723  0.1807 -0.7105
 9299TIP3    H252093   6.934   7.389   8.949  0.6682  0.6641 -0.7654
 9300TIP3   OH252094   8.430   0.908   9.356 -0.7554 -0.3171 -0.1049
 9300TIP3    H152095   8.439   0.991   9.309 -1.0199  0.3491  0.9919
 9300TIP3    H252096   8.510   0.859   9.334 -0.3669  0.4194 -0.3612
 9301TIP3   OH252097   0.502   4.207   8.826  0.1343  0.2362 -0.2359
 9301TIP3    H152098   0.436   4.261   8.783  1.0444  3.7006  2.3181
 9301TIP3    H252099   0.586   4.245   8.800  0.8543 -0.3379  1.1546
 9302TIP3   OH252100   7.030   2.427   9.295 -0.4888 -0.4572  0.5172
 9302TIP3    H152101   7.048   2.464   9.208  0.9654  0.0100  0.9900
 9302TIP3    H252102   7.114   2.390   9.322 -0.6650  0.2553  2.1321
 9303TIP3   OH252103   1.947   6.618   8.245  0.1109 -0.0115 -0.0166
 9303TIP3    H152104   2.013   6.551   8.262 -0.2225 -0.3342  0.0222
 9303TIP3    H252105   1.987   6.700   8.275  0.2829 -0.2868  0.5141
 9304TIP3   OH252106   3.395   6.410   8.545  0.3322  0.9232  0.0766
 9304TIP3    H152107   3.423   6.456   8.467 -0.9148 -1.0020 -1.6128
 9304TIP3    H252108   3.301   6.395   8.531  0.9038 -3.4930 -0.3807
 9305TIP3   OH252109   0.310   1.795   8.450 -0.2471 -0.4110 -0.2918
 9305TIP3    H152110   0.237   1.852   8.428 -0.4406 -0.8658 -0.8464
 9305TIP3    H252111   0.359   1.787   8.369  0.1085 -0.5599 -0.0637
 9306TIP3   OH252112   5.939   6.551  10.434 -0.0156  0.3417  0.4524
 9306TIP3    H152113   5.860   6.604  10.438  1.0234  1.9549  0.7081
 9306TIP3    H252114   5.972   6.551  10.524  0.2044 -0.4542  0.3819
 9307TIP3   OH252115   4.044   6.868   8.305 -0.1272 -0.3629 -0.3767
 9307TIP3    H152116   4.127   6.911   8.325 -0.9334  1.3731 -0.5816
 9307TIP3    H252117   4.061   6.775   8.317  0.8543  0.1610  3.3043
 9308TIP3   OH252118   4.449   3.418   8.657 -0.2634  0.6265 -0.0313
 9308TIP3    H152119   4.475   3.431   8.748 -1.2237  0.7412  0.2396
 9308TIP3    H252120   4.476   3.328   8.637 -1.1646  0.1579  0.7803
 9309TIP3   OH252121   0.093   7.546   9.448  0.6223 -0.8485 -0.2111
 9309TIP3    H152122   0.102   7.478   9.515  0.2713  0.0921  0.8168
 9309TIP3    H252123   0.141   7.621   9.484  0.6363 -0.4027 -1.1371
 9310TIP3   OH252124   2.490   6.957   9.382 -0.2592 -0.1552  0.3269
 9310TIP3    H152125   2.583   6.942   9.396 -0.3218  1.2599  2.7161
 9310TIP3    H252126   2.483   7.050   9.362 -1.2684  0.0690  1.6085
 9311TIP3   OH252127   7.177   4.068   7.813 -0.5002  0.0333  0.2183
 9311TIP3    H152128   7.119   3.994   7.830  0.7543 -0.6991  1.6168
 9311TIP3    H252129   7.261   4.028   7.789 -0.0802  1.0115 -0.0075
 9312TIP3   OH252130   1.795   0.249   8.806  0.5355 -0.1091  0.4808
 9312TIP3    H152131   1.830   0.278   8.722  0.9030 -0.0926  0.6349
 9312TIP3    H252132   1.831   0.312   8.869  0.4783 -0.2776  0.6809
 9313TIP3   OH252133   0.793   4.588   7.902  0.2659  0.1743  0.2592
 9313TIP3    H152134   0.757   4.627   7.982  0.2847 -2.2791  1.5512
 9313TIP3    H252135   0.726   4.527   7.872  1.9815 -2.1904  0.9595
 9314TIP3   OH252136   6.689   0.047   8.886  0.4338  0.0576 -0.0999
 9314TIP3    H152137   6.720   0.018   8.972 -0.0472  1.7469  0.6807
 9314TIP3    H252138   6.596   0.065   8.899 -0.1569 -1.5866 -1.5253
 9315TIP3   OH252139   5.766   2.886   7.937 -0.2938  0.6340  0.0563
 9315TIP3    H152140   5.833   2.871   7.870 -0.7689 -0.6444 -0.1584
 9315TIP3    H252141   5.713   2.957   7.901  0.4427  1.0911 -0.1530
 9316TIP3   OH252142   6.588   7.175   8.933 -0.2919  0.0389  0.1214
 9316TIP3    H152143   6.611   7.228   8.857 -1.1582  0.7494  0.3388
 9316TIP3    H252144   6.586   7.236   9.006  2.7518 -0.9929  1.2251
 9317TIP3   OH252145   0.614   2.868   8.138 -0.1342  0.2303 -0.0228
 9317TIP3    H152146   0.605   2.891   8.230 -0.1206  0.4394 -0.0733
 9317TIP3    H252147   0.640   2.950   8.095  2.0761 -0.3130  0.1207
 9318TIP3   OH252148   2.306   1.675   8.504 -0.2195 -0.0775 -0.1392
 9318TIP3    H152149   2.246   1.627   8.448 -1.5593  0.4143  0.8253
 9318TIP3    H252150   2.376   1.705   8.445 -1.7430  0.7272 -1.6105
 9319TIP3   OH252151   8.217   7.484   8.217 -0.0211  0.5147  0.5912
 9319TIP3    H152152   8.278   7.550   8.185  0.9423  0.3716  2.0104
 9319TIP3    H252153   8.133   7.505   8.176  0.9680  0.6942 -1.4542
 9320TIP3   OH252154   0.069   3.000   9.428 -0.4532  0.1024  0.1018
 9320TIP3    H152155   0.073   2.991   9.333 -1.3306  0.3251  0.0367
 9320TIP3    H252156   0.156   2.971   9.459 -0.7435 -1.6751 -0.6227
 9321TIP3   OH252157   1.815   3.122   7.976  0.0812 -0.1904 -0.3903
 9321TIP3    H152158   1.904   3.151   7.998  0.1914 -0.6648 -0.1857
 9321TIP3    H252159   1.822   3.026   7.971 -0.2992 -0.1905 -0.9175
 9322TIP3   OH252160   1.466   0.942   8.255 -0.0224  0.2584 -0.2809
 9322TIP3    H152161   1.472   0.862   8.203 -0.6925 -0.0965  0.1697
 9322TIP3    H252162   1.443   0.912   8.343  0.7414  0.8724  0.1469
 9323TIP3   OH252163   2.925   1.013   8.732  0.8269  0.1531 -0.2550
 9323TIP3    H152164   2.940   1.048   8.644 -2.0703 -2.9104 -2.1825
 9323TIP3    H252165   2.836   1.041   8.754  1.0810 -0.1109  1.2700
 9324TIP3   OH252166   6.692   0.260   8.715  0.0470  0.0145 -0.2870
 9324TIP3    H152167   6.778   0.251   8.674  0.9294  1.2645  1.1591
 9324TIP3    H252168   6.690   0.190   8.781  1.0863  1.4944  1.4201
 9325TIP3   OH252169   4.524   1.437   8.887 -0.1833 -0.2854 -0.2905
 9325TIP3    H152170   4.496   1.365   8.944 -0.1524 -0.8121 -0.9366
 9325TIP3    H252171   4.612   1.413   8.860 -0.1881 -0.0205 -0.5416
 9326TIP3   OH252172   4.096   4.402   9.404  0.4924  0.0878  0.2017
 9326TIP3    H152173   4.097   4.481   9.349 -3.4616  0.4659  0.3492
 9326TIP3    H252174   4.134   4.334   9.349  2.1986  1.6540 -0.6633
 9327TIP3   OH252175   3.428   2.603   8.632 -0.4230 -0.0799 -0.5594
 9327TIP3    H152176   3.434   2.621   8.726  0.1148 -1.2668 -0.3436
 9327TIP3    H252177   3.338   2.575   8.618 -0.1967 -1.0597 -0.1565
 9328TIP3   OH252178   7.005   1.836   9.859 -0.1545 -0.6612 -0.4193
 9328TIP3    H152179   6.990   1.749   9.821 -0.1940 -0.7590 -0.1768
 9328TIP3    H252180   7.093   1.832   9.895 -1.2701 -1.6534  2.4493
 9329TIP3   OH252181   6.290   7.970   7.977 -0.1728  0.6353 -0.2891
 9329TIP3    H152182   6.370   7.959   7.926 -0.0832  1.3005 -0.3018
 9329TIP3    H252183   6.277   8.064   7.980 -1.5762  0.5110 -1.2562
 9330TIP3   OH252184   6.510   4.441   9.014  0.5868  0.3592  0.4223
 9330TIP3    H152185   6.493   4.429   9.107  0.1541 -2.6574  0.0576
 9330TIP3    H252186   6.599   4.477   9.010  0.8837 -0.1371  1.9773
 9331TIP3   OH252187   3.450   5.957   9.210  0.4947 -0.1128 -0.0555
 9331TIP3    H152188   3.365   5.953   9.165  0.5282  0.7535 -0.2152
 9331TIP3    H252189   3.433   6.009   9.288  0.6124 -0.9726  0.5518
 9332TIP3   OH252190   7.442   5.992   8.970 -0.7206 -0.1836  0.2784
 9332TIP3    H152191   7.387   6.016   9.045 -1.0115 -0.4935  0.1662
 9332TIP3    H252192   7.509   6.061   8.966 -0.6948 -0.1744  0.8317
 9333TIP3   OH252193   5.168   6.183   8.715 -0.4839  0.4235 -0.7893
 9333TIP3    H152194   5.095   6.217   8.767 -0.5715  0.9821 -1.2733
 9333TIP3    H252195   5.165   6.088   8.729 -0.2104  0.5968  0.6095
 9334TIP3   OH252196   3.562   0.272   9.906 -0.3176  0.0273  0.2198
 9334TIP3    H152197   3.521   0.189   9.929 -2.7904  0.4400 -2.1087
 9334TIP3    H252198   3.546   0.329   9.980 -0.5996 -0.9197  0.9029
 9335TIP3   OH252199   0.574   2.251   8.025  0.3557 -0.6209  0.1236
 9335TIP3    H152200   0.538   2.222   7.941 -1.2375  1.4215 -0.0008
 9335TIP3    H252201   0.661   2.286   8.003 -0.5870  1.1708 -1.0033
 9336TIP3   OH252202   0.572   0.971   8.476 -0.1021  0.2465 -0.4391
 9336TIP3    H152203   0.594   1.060   8.501  0.6543 -0.0528  0.0159
 9336TIP3    H252204   0.486   0.977   8.434  0.5948  1.4087 -1.7864
 9337TIP3   OH252205   1.270   0.966   8.778 -0.3715  0.6955  0.1581
 9337TIP3    H152206   1.305   1.055   8.780 -0.3481  0.7551 -1.5798
 9337TIP3    H252207   1.322   0.918   8.843 -1.0201  2.1350  1.7962
 9338TIP3   OH252208   5.940   5.516   9.134  0.1818 -0.4065 -0.3597
 9338TIP3    H152209   5.915   5.427   9.158 -2.3670  0.3432  0.0687
 9338TIP3    H252210   6.025   5.530   9.176 -0.6746 -1.6919  1.9698
 9339TIP3   OH252211   2.487   7.617   8.236  0.1400  0.5192 -0.8749
 9339TIP3    H152212   2.395   7.642   8.227 -0.0366  0.5556  0.8586
 9339TIP3    H252213   2.487   7.522   8.230 -0.3000  0.3594  1.1712
 9340TIP3   OH252214   6.538   0.504   9.319  0.3969  0.0935 -0.5126
 9340TIP3    H152215   6.458   0.528   9.272  0.9037  1.8578 -0.5421
 9340TIP3    H252216   6.506   0.459   9.398 -0.5919  0.1969 -0.8397
 9341TIP3   OH252217   5.532   7.653   9.525  0.8063 -0.6865 -0.1763
 9341TIP3    H152218   5.449   7.695   9.501  1.2048  0.7586  0.8637
 9341TIP3    H252219   5.545   7.586   9.458 -0.3812  0.1570 -1.2934
 9342TIP3   OH252220   8.355   8.265   8.753  0.0961 -0.2733  0.2695
 9342TIP3    H152221   8.263   8.252   8.773 -0.0375  0.0028 -0.1394
 9342TIP3    H252222   8.401   8.245   8.834 -0.4303  0.9292  0.8862
 9343TIP3   OH252223   3.436   7.216  10.096  0.3365 -0.2543  0.0278
 9343TIP3    H152224   3.346   7.235  10.069  0.0448 -0.9881  0.4494
 9343TIP3    H252225   3.463   7.143  10.040  0.3006 -0.7096  0.5965
 9344TIP3   OH252226   4.475   2.629   8.913 -0.0403 -0.7005 -0.5417
 9344TIP3    H152227   4.383   2.644   8.888 -0.4390 -0.7126  0.8433
 9344TIP3    H252228   4.481   2.662   9.002  1.6133  0.3842 -1.0089
 9345TIP3   OH252229   7.448   7.071   9.291  0.3014  0.1667  0.1060
 9345TIP3    H152230   7.541   7.069   9.315  0.5446  1.5183 -0.6163
 9345TIP3    H252231   7.447   7.095   9.198 -0.7627 -0.0593  0.0443
 9346TIP3   OH252232   5.274   5.660   9.042  0.2922 -0.3137  0.2763
 9346TIP3    H152233   5.307   5.744   9.075 -1.5290  0.2765  0.7381
 9346TIP3    H252234   5.346   5.599   9.055  2.8855  1.7370 -2.9172
 9347TIP3   OH252235   3.001   3.074   9.275  0.4302  0.3442  0.3954
 9347TIP3    H152236   3.032   3.001   9.327 -0.0088  1.0665  1.7017
 9347TIP3    H252237   2.995   3.147   9.336 -0.2045  1.1979 -0.6410
 9348TIP3   OH252238   4.928   3.917   9.159 -0.4054  0.0753  0.0429
 9348TIP3    H152239   4.855   3.916   9.097 -0.5998  1.8341  0.1887
 9348TIP3    H252240   4.965   4.005   9.151  1.1585 -0.4968  0.6136
 9349TIP3   OH252241   2.325   7.719   7.787 -0.3985  0.8519  0.8340
 9349TIP3    H152242   2.406   7.750   7.827 -0.2402 -0.3959  1.5496
 9349TIP3    H252243   2.332   7.744   7.695  1.4765 -0.4314  0.5654
 9350TIP3   OH252244   1.500   5.204   8.817  0.2369 -0.0581 -0.4224
 9350TIP3    H152245   1.466   5.264   8.882  2.1888  1.2169 -0.4822
 9350TIP3    H252246   1.550   5.139   8.867 -0.0026 -0.3128 -0.5105
 9351TIP3   OH252247   6.490   6.980  10.566 -0.1125 -0.0093 -0.0323
 9351TIP3    H152248   6.504   6.898  10.613 -0.3022  0.8615  1.6296
 9351TIP3    H252249   6.558   7.039  10.599 -0.7520  0.8722 -0.2291
 9352TIP3   OH252250   7.810   0.677  10.420  0.3302  0.1549  0.9040
 9352TIP3    H152251   7.716   0.670  10.439  0.4254 -1.9134  0.8416
 9352TIP3    H252252   7.847   0.719  10.498 -0.7845  2.4044  0.3128
 9353TIP3   OH252253   4.539   7.102   9.743 -0.1877  0.0437 -0.5884
 9353TIP3    H152254   4.454   7.145   9.753 -0.3259 -0.1865 -0.7497
 9353TIP3    H252255   4.602   7.165   9.779 -0.5854 -0.5204  1.1956
 9354TIP3   OH252256   0.794   8.139   8.606  0.4170  0.1680 -0.0350
 9354TIP3    H152257   0.750   8.054   8.615 -1.1290  1.0471  1.3775
 9354TIP3    H252258   0.784   8.162   8.514  0.4351 -0.9691 -0.3260
 9355TIP3   OH252259   5.949   7.437   8.112  0.0371  0.1335 -0.7391
 9355TIP3    H152260   5.895   7.359   8.121  0.5158 -0.1556 -0.3140
 9355TIP3    H252261   5.938   7.484   8.195  0.4867  0.0328 -0.6175
 9356TIP3   OH252262   1.412   5.901   9.272  0.8789  0.4984  0.1395
 9356TIP3    H152263   1.497   5.942   9.258  0.3914  1.5974  0.2510
 9356TIP3    H252264   1.357   5.936   9.201 -0.0257  1.4767  1.2783
 9357TIP3   OH252265   1.285   1.717   9.395  0.2113  0.0257 -0.0912
 9357TIP3    H152266   1.254   1.644   9.450 -1.5638  0.9677  0.2487
 9357TIP3    H252267   1.255   1.795   9.441  0.2170  0.9103 -1.5398
 9358TIP3   OH252268   5.328   4.708   8.165 -0.4543 -0.6990  0.1385
 9358TIP3    H152269   5.386   4.781   8.185  0.1959 -0.9714 -0.6852
 9358TIP3    H252270   5.241   4.747   8.158  0.0840  0.3059 -1.8448
 9359TIP3   OH252271   7.646   7.190   8.494  0.1165  0.1141 -0.2518
 9359TIP3    H152272   7.562   7.233   8.481  0.2516  0.8788  1.2181
 9359TIP3    H252273   7.636   7.105   8.449 -1.2875  0.3387 -0.4251
 9360TIP3   OH252274   1.857   4.217   8.281  0.1797 -0.5461  0.8235
 9360TIP3    H152275   1.772   4.246   8.251 -0.0038 -1.6593  0.1901
 9360TIP3    H252276   1.913   4.222   8.204  0.9395  1.0103  1.4372
 9361TIP3   OH252277   5.475   7.259   8.195 -0.4633 -0.4737 -0.3239
 9361TIP3    H152278   5.445   7.259   8.104  2.3932 -2.2340 -1.4072
 9361TIP3    H252279   5.449   7.173   8.229  0.4878 -0.7716 -0.2959
 9362TIP3   OH252280   4.748   5.453   8.501 -0.1805  0.4439  0.2104
 9362TIP3    H152281   4.830   5.503   8.501 -0.6517  1.2850  1.9323
 9362TIP3    H252282   4.755   5.397   8.578 -0.9024 -0.0557 -0.0834
 9363TIP3   OH252283   7.699   7.485  10.345  0.0378 -0.2185 -0.3856
 9363TIP3    H152284   7.698   7.488  10.440  0.2719  0.3922 -0.4001
 9363TIP3    H252285   7.622   7.432  10.322  1.0589 -2.0626  0.1858
 9364TIP3   OH252286   4.260   5.930   8.123  0.2286  0.6506 -0.0542
 9364TIP3    H152287   4.336   5.890   8.079  0.1288  0.2809  0.1032
 9364TIP3    H252288   4.297   6.002   8.173  0.2505  1.5410 -1.3152
 9365TIP3   OH252289   3.685   7.297   8.631  0.3680 -0.2139  0.0188
 9365TIP3    H152290   3.732   7.243   8.567 -1.3932 -0.6224 -1.0068
 9365TIP3    H252291   3.694   7.386   8.598  0.5456 -0.2737 -0.0982
 9366TIP3   OH252292   4.704   1.950   8.554  0.0054  0.1298 -0.1487
 9366TIP3    H152293   4.700   2.023   8.615  0.7068 -0.1310  0.2258
 9366TIP3    H252294   4.723   1.874   8.610 -1.3005 -0.4379 -0.4561
 9367TIP3   OH252295   3.722   4.606   8.566  0.4494  0.1290  0.0938
 9367TIP3    H152296   3.752   4.616   8.475  1.5832  1.3920  0.5654
 9367TIP3    H252297   3.790   4.551   8.607 -2.1387 -4.1671 -0.7236
 9368TIP3   OH252298   0.513   3.576  10.065  0.3385  0.4984 -0.4348
 9368TIP3    H152299   0.477   3.608  10.148  1.6168 -0.3321  0.4667
 9368TIP3    H252300   0.443   3.594  10.001 -0.7666  0.9467  0.8325
 9369TIP3   OH252301   2.166   3.555   7.777 -0.4182 -0.1460  0.3635
 9369TIP3    H152302   2.204   3.514   7.855  1.0529  0.0861 -0.2108
 9369TIP3    H252303   2.181   3.649   7.790 -0.3747 -0.0900 -0.1019
 9370TIP3   OH252304   5.396   6.507   8.498 -0.0906 -0.2155 -0.2202
 9370TIP3    H152305   5.405   6.416   8.471  1.7620  0.3514 -1.7665
 9370TIP3    H252306   5.431   6.557   8.425 -2.4227  1.8547 -0.0440
 9371TIP3   OH252307   6.035   8.215   9.026  0.3658  0.0551  0.1893
 9371TIP3    H152308   5.948   8.221   9.063 -0.4278  0.6408 -1.6633
 9371TIP3    H252309   6.089   8.272   9.082  0.0105 -1.6603  2.4059
 9372TIP3   OH252310   5.995   5.952   9.444  0.2725  1.0077  0.2848
 9372TIP3    H152311   5.939   5.881   9.474 -0.0275  1.4716  0.8574
 9372TIP3    H252312   6.058   5.964   9.516  0.5887  1.0346  0.0061
 9373TIP3   OH252313   2.828   4.039   7.802 -0.0328 -0.2233  0.1310
 9373TIP3    H152314   2.838   3.991   7.720 -1.1041 -1.1174  0.4926
 9373TIP3    H252315   2.789   4.123   7.776  1.2142  0.2126 -0.4299
 9374TIP3   OH252316   3.998   6.797   9.776 -0.2856 -0.0944 -0.0480
 9374TIP3    H152317   4.038   6.883   9.765 -0.6340 -0.0795 -1.3330
 9374TIP3    H252318   3.947   6.805   9.857 -0.9665  1.1770 -0.5653
 9375TIP3   OH252319   4.625   6.514   8.717  0.0616 -0.1366  0.0499
 9375TIP3    H152320   4.690   6.584   8.722  1.1568 -0.9642 -1.6926
 9375TIP3    H252321   4.652   6.461   8.641 -1.7817 -1.3845  0.1974
 9376TIP3   OH252322   8.217   5.419   7.805  0.0632  1.0519 -0.3303
 9376TIP3    H152323   8.165   5.492   7.839 -1.0973 -0.2849  0.9046
 9376TIP3    H252324   8.158   5.374   7.745  0.8157  1.1915 -1.1838
 9377TIP3   OH252325   5.117   1.679   9.433 -0.1174 -0.2931  0.4416
 9377TIP3    H152326   5.081   1.619   9.498 -1.9630  0.2418 -0.0094
 9377TIP3    H252327   5.173   1.738   9.483 -1.8686  0.4069  1.6983
 9378TIP3   OH252328   0.237   7.040   9.296  0.0996 -0.6474 -0.1300
 9378TIP3    H152329   0.191   6.989   9.230 -1.4141  0.6616 -0.1555
 9378TIP3    H252330   0.186   7.026   9.376  0.7575 -0.6578  0.2901
 9379TIP3   OH252331   4.001   0.536   8.825  0.3230  0.3920  0.9614
 9379TIP3    H152332   4.064   0.600   8.791  0.2757  0.4523  0.9858
 9379TIP3    H252333   3.916   0.565   8.790  0.2335  0.6182  1.3570
 9380TIP3   OH252334   2.995   1.590   8.217  0.3240 -0.0277  0.0067
 9380TIP3    H152335   3.031   1.521   8.162  0.0193 -2.4652  2.6497
 9380TIP3    H252336   3.071   1.642   8.244  0.7340 -0.1354 -0.9055
 9381TIP3   OH252337   7.530   3.581   8.768 -0.0698  0.1333 -0.9343
 9381TIP3    H152338   7.449   3.574   8.818  0.6929 -3.4670  0.0906
 9381TIP3    H252339   7.512   3.648   8.702 -2.7551  1.6571  1.1427
 9382TIP3   OH252340   6.539   7.323   8.015  0.0198 -0.1445  0.4402
 9382TIP3    H152341   6.461   7.314   8.070 -0.4495  1.8974  0.2122
 9382TIP3    H252342   6.508   7.309   7.926  0.4004 -1.5507  0.5021
 9383TIP3   OH252343   6.451   4.460   8.744 -0.3332  0.1538 -0.0802
 9383TIP3    H152344   6.515   4.528   8.721 -1.3465  0.6257 -1.6212
 9383TIP3    H252345   6.456   4.455   8.840  2.2109 -0.0648 -0.1381
 9384TIP3   OH252346   5.128   8.236   9.550 -0.1456  0.1117  0.2223
 9384TIP3    H152347   5.102   8.328   9.560  0.6173  0.5137 -1.1864
 9384TIP3    H252348   5.049   8.186   9.573 -0.8454  1.1534  0.1386
 9385TIP3   OH252349   4.580   6.934   9.522  0.2647  0.6495  0.8870
 9385TIP3    H152350   4.552   6.979   9.601  1.6350 -1.9528  3.0379
 9385TIP3    H252351   4.524   6.969   9.453 -0.9966  3.0533  2.9686
 9386TIP3   OH252352   7.456   3.903   8.801 -0.0877  0.4765  0.2508
 9386TIP3    H152353   7.466   3.945   8.715 -0.2830  0.5396  0.2598
 9386TIP3    H252354   7.364   3.879   8.806  0.2828 -1.1515 -0.3084
 9387TIP3   OH252355   5.754   4.022   9.908  0.6338  0.0147 -0.5181
 9387TIP3    H152356   5.826   3.987   9.856  1.3550  1.6161 -0.6564
 9387TIP3    H252357   5.749   4.114   9.883 -1.0895  0.0732 -0.0685
 9388TIP3   OH252358   3.788   2.046   7.756 -0.1210 -1.0001  0.0884
 9388TIP3    H152359   3.875   2.021   7.724 -0.6205 -0.6959 -1.5963
 9388TIP3    H252360   3.761   1.973   7.811  0.6736 -1.6992 -0.4218
 9389TIP3   OH252361   2.242   4.865   7.597  0.6006  0.1446  0.1044
 9389TIP3    H152362   2.249   4.873   7.502 -0.2452 -0.9052 -0.0613
 9389TIP3    H252363   2.270   4.951   7.630  0.3113  0.7400 -1.1217
 9390TIP3   OH252364   8.374   0.740   9.788  0.2265 -0.6019  0.1979
 9390TIP3    H152365   8.364   0.720   9.881  1.5270 -3.1360 -0.1207
 9390TIP3    H252366   8.397   0.656   9.748  0.0565  0.4932 -2.3705
 9391TIP3   OH252367   3.282   5.276   7.853 -0.3142 -0.8784  0.5017
 9391TIP3    H152368   3.292   5.362   7.893  0.0511 -0.3074 -0.7624
 9391TIP3    H252369   3.188   5.259   7.855 -0.5554  0.2315 -0.5702
 9392TIP3   OH252370   6.779   2.667   8.881  0.1406 -0.1782 -0.3780
 9392TIP3    H152371   6.699   2.683   8.930 -0.0358  0.9727 -1.0214
 9392TIP3    H252372   6.788   2.743   8.823  3.0661  1.0631  1.4994
 9393TIP3   OH252373   1.584   1.485  10.065 -0.1637  0.4991  0.2918
 9393TIP3    H152374   1.645   1.413  10.081 -1.0475 -0.0085  1.5310
 9393TIP3    H252375   1.509   1.443  10.022 -0.7472  0.6251  1.1530
 9394TIP3   OH252376   2.789   8.237   8.150  0.2306 -0.0653 -0.5006
 9394TIP3    H152377   2.731   8.235   8.074  0.4852  0.4322 -0.7125
 9394TIP3    H252378   2.869   8.278   8.117  1.1704 -1.8230 -0.5361
 9395TIP3   OH252379   6.980   3.874   8.052  0.6799 -0.0048  0.2815
 9395TIP3    H152380   6.948   3.798   8.004  2.0530 -0.3295 -0.1681
 9395TIP3    H252381   6.961   3.949   7.995  1.1138 -0.2432 -0.1836
 9396TIP3   OH252382   0.681   0.158   9.333 -0.2265 -0.2464 -0.4812
 9396TIP3    H152383   0.746   0.148   9.403  0.6485  1.1824 -1.0370
 9396TIP3    H252384   0.699   0.245   9.297  0.2941 -1.4666 -3.4329
 9397TIP3   OH252385   1.618   6.848   8.471  0.7901 -0.1293 -0.3748
 9397TIP3    H152386   1.549   6.908   8.501 -0.8114 -1.7790 -0.5715
 9397TIP3    H252387   1.649   6.887   8.390 -0.3781  0.3403 -0.6240
 9398TIP3   OH252388   0.707   1.435   7.572  0.1671  0.0291  0.2778
 9398TIP3    H152389   0.650   1.497   7.527 -1.2748 -0.3190  1.5129
 9398TIP3    H252390   0.682   1.349   7.538  1.0109 -0.0168 -0.2455
 9399TIP3   OH252391   1.487   5.405   9.027  0.3856 -0.8734 -0.1883
 9399TIP3    H152392   1.544   5.462   8.975  2.1975 -0.4353  2.0627
 9399TIP3    H252393   1.466   5.457   9.105 -1.4687 -1.7922 -0.0287
 9400TIP3   OH252394   4.035   2.834   8.821 -0.8202  0.4228  0.3054
 9400TIP3    H152395   4.007   2.921   8.849 -2.7406  0.2974 -1.0442
 9400TIP3    H252396   4.024   2.834   8.726  3.3113  0.0845 -0.3431
 9401TIP3   OH252397   0.968   4.896   7.600 -0.1095  0.6472  0.7026
 9401TIP3    H152398   0.905   4.963   7.626  1.6302  2.1123  1.3917
 9401TIP3    H252399   0.979   4.842   7.678 -1.6421 -0.6257  0.0943
 9402TIP3   OH252400   5.563   2.286   9.070  0.4397 -0.2319  0.2009
 9402TIP3    H152401   5.630   2.351   9.091  1.0382 -1.8590  4.1774
 9402TIP3    H252402   5.586   2.255   8.983  0.5101  4.2178 -1.6471
 9403TIP3   OH252403   3.431   2.844   8.898  0.5157  0.2291 -0.7748
 9403TIP3    H152404   3.507   2.889   8.935  0.2922 -0.0312  0.0303
 9403TIP3    H252405   3.390   2.908   8.841  0.9934  0.5805 -0.7282
 9404TIP3   OH252406   6.121   2.204   8.235  0.2218 -0.2348 -0.4852
 9404TIP3    H152407   6.194   2.176   8.289  1.1947  0.2193 -1.5271
 9404TIP3    H252408   6.063   2.251   8.295  2.7313  2.9779 -0.2873
 9405TIP3   OH252409   6.041   3.847   9.152  0.0463  0.1978  0.1017
 9405TIP3    H152410   6.129   3.877   9.132  0.0040 -0.6330 -1.5529
 9405TIP3    H252411   6.011   3.805   9.071 -2.3717  1.6204  0.1649
 9406TIP3   OH252412   6.529   5.036   9.854  0.4514  0.0762 -0.6707
 9406TIP3    H152413   6.585   4.963   9.830  1.3030  0.6351 -0.4085
 9406TIP3    H252414   6.570   5.112   9.815  0.8244  0.7328  0.9354
 9407TIP3   OH252415   0.533   7.753   7.747 -0.5502 -0.0268  0.0078
 9407TIP3    H152416   0.480   7.795   7.814 -1.1364  0.3874 -0.7032
 9407TIP3    H252417   0.528   7.811   7.671 -0.2892 -0.7183 -0.5593
 9408TIP3   OH252418   6.066   0.203   8.672  0.4770 -0.0838 -0.2121
 9408TIP3    H152419   5.971   0.200   8.664  0.5971 -2.0962 -1.3246
 9408TIP3    H252420   6.082   0.284   8.721 -1.7951  0.2057  0.1957
 9409TIP3   OH252421   4.632   6.049   8.657 -0.0475  0.0831  0.0262
 9409TIP3    H152422   4.716   6.043   8.701  1.6480 -1.4030 -3.1058
 9409TIP3    H252423   4.600   5.959   8.655  1.7579 -0.7514 -4.6576
 9410TIP3   OH252424   6.136   5.337   8.559  0.4287  0.2450 -0.7235
 9410TIP3    H152425   6.153   5.247   8.587 -2.8249 -0.1565  0.3824
 9410TIP3    H252426   6.135   5.334   8.464  1.4452 -0.6072 -0.7243
 9411TIP3   OH252427   7.937   2.548   8.622  0.0017 -0.7130  0.7611
 9411TIP3    H152428   8.022   2.575   8.657 -1.0949  2.4476  1.3559
 9411TIP3    H252429   7.955   2.526   8.530  1.2911  1.2408  0.4876
 9412TIP3   OH252430   4.054   4.608   8.442  0.2269  0.5249  0.2371
 9412TIP3    H152431   4.097   4.590   8.359  2.3646  1.1381  1.1324
 9412TIP3    H252432   4.074   4.533   8.497 -0.9295  0.2530  0.3149
 9413TIP3   OH252433   0.883   3.308   7.608 -0.1204  0.1076  0.6118
 9413TIP3    H152434   0.844   3.355   7.535  0.1811  1.6585  1.4068
 9413TIP3    H252435   0.809   3.267   7.652 -0.4091 -0.0458 -0.0044
 9414TIP3   OH252436   5.740   3.261   8.354  0.2807 -0.3535 -0.4322
 9414TIP3    H152437   5.690   3.318   8.296 -2.8226 -0.4897  1.8385
 9414TIP3    H252438   5.769   3.317   8.426 -0.7594 -1.1389  0.6400
 9415TIP3   OH252439   8.274   0.975   7.969 -0.1127  0.2182 -0.3503
 9415TIP3    H152440   8.182   0.993   7.988 -0.7823 -0.2234 -2.8048
 9415TIP3    H252441   8.286   1.005   7.879  1.6264 -1.4394 -0.7368
 9416TIP3   OH252442   7.668   2.211   9.927  0.4882  0.2344 -0.4674
 9416TIP3    H152443   7.673   2.180   9.837  0.3220  1.5867 -0.9720
 9416TIP3    H252444   7.577   2.238   9.938  0.9099  1.8074 -0.5377
 9417TIP3   OH252445   2.134   2.676   8.929 -0.1331 -0.4676  0.0859
 9417TIP3    H152446   2.066   2.609   8.925  0.9154 -1.5351 -0.9607
 9417TIP3    H252447   2.138   2.711   8.840 -0.2629  0.5881  0.4850
 9418TIP3   OH252448   7.942   6.430   9.092 -0.1960  0.1663  0.0146
 9418TIP3    H152449   7.922   6.457   9.181 -1.8146  0.2053 -0.3307
 9418TIP3    H252450   7.863   6.384   9.062  0.5453 -0.3765 -1.1811
 9419TIP3   OH252451   0.332   2.290   8.128 -0.8939 -0.5137 -0.7368
 9419TIP3    H152452   0.277   2.256   8.057 -0.9605 -0.3864 -0.7458
 9419TIP3    H252453   0.421   2.281   8.096 -0.9802  0.8451 -1.4021
 9420TIP3   OH252454   8.136   4.502   8.994 -0.3170  0.0648  0.2224
 9420TIP3    H152455   8.142   4.573   9.058 -1.1379  0.7970 -0.4823
 9420TIP3    H252456   8.199   4.525   8.926 -0.9830  0.4243 -0.2835
 9421TIP3   OH252457   6.628   3.286   7.542 -0.2701  0.3460  0.2937
 9421TIP3    H152458   6.637   3.379   7.522  1.0314  0.1515 -0.1669
 9421TIP3    H252459   6.602   3.282   7.633 -2.1787  1.1930 -0.1838
 9422TIP3   OH252460   8.302   8.411   9.211 -0.2717  0.8272 -0.4959
 9422TIP3    H152461   8.289   8.374   9.298  0.2241  1.4636 -0.1382
 9422TIP3    H252462   8.390   8.448   9.214  0.6774 -1.1306 -2.0013
 9423TIP3   OH252463   3.652   2.204   9.053  0.0872 -0.2503  0.3977
 9423TIP3    H152464   3.672   2.128   8.998  0.1908  0.2279 -0.2361
 9423TIP3    H252465   3.586   2.172   9.114  0.3500 -0.9336  0.3379
 9424TIP3   OH252466   1.225   1.467   7.982 -0.4449  0.2926 -0.2268
 9424TIP3    H152467   1.272   1.535   7.935 -0.2333 -0.0577 -0.5212
 9424TIP3    H252468   1.132   1.484   7.963 -0.5500  1.6510  1.2378
 9425TIP3   OH252469   3.322   4.958   9.649 -0.9908  0.7960  0.2520
 9425TIP3    H152470   3.316   5.042   9.603 -0.5886  0.0040 -1.3240
 9425TIP3    H252471   3.398   4.966   9.706  0.5869  0.6820 -1.7433
 9426TIP3   OH252472   1.704   1.164   9.812  0.5838 -1.0673 -0.4819
 9426TIP3    H152473   1.783   1.116   9.836  1.0725 -0.5945 -1.1085
 9426TIP3    H252474   1.639   1.096   9.796  1.5942 -1.6070 -2.5555
 9427TIP3   OH252475   6.948   6.740   9.692 -0.4137  0.2071 -0.2789
 9427TIP3    H152476   7.020   6.685   9.724 -0.0887  0.2678 -0.8947
 9427TIP3    H252477   6.985   6.787   9.618 -0.5755  1.5215  0.4364
 9428TIP3   OH252478   7.677   6.545   9.454 -0.2859 -1.1001 -0.1657
 9428TIP3    H152479   7.738   6.602   9.406  1.9836 -1.6047  1.9041
 9428TIP3    H252480   7.636   6.602   9.518  1.5183 -1.5344  1.4837
 9429TIP3   OH252481   4.624   7.403   8.074  0.3944  0.0048  0.6241
 9429TIP3    H152482   4.673   7.485   8.067 -1.6585  1.2605  0.1278
 9429TIP3    H252483   4.541   7.428   8.114 -0.4781 -1.7622  0.0323
 9430TIP3   OH252484   1.366   4.815   9.030  0.1902 -0.3821  0.4330
 9430TIP3    H152485   1.354   4.859   8.945 -0.1258 -1.4720 -0.1121
 9430TIP3    H252486   1.298   4.852   9.086 -0.3278 -0.4585 -0.1313
 9431TIP3   OH252487   2.984   6.849   9.783  0.2108 -0.1907 -0.3017
 9431TIP3    H152488   2.974   6.941   9.808 -2.1342  0.3734 -2.8214
 9431TIP3    H252489   3.029   6.851   9.699 -2.0701 -1.0616 -1.6485
 9432TIP3   OH252490   5.344   0.074  10.375 -0.0663  0.0782  0.0700
 9432TIP3    H152491   5.419   0.129  10.352  0.7679 -0.9250  0.3154
 9432TIP3    H252492   5.340   0.008  10.305 -0.0044 -0.5511  0.6404
 9433TIP3   OH252493   3.497   7.089   8.475 -0.0617  0.8906  0.0766
 9433TIP3    H152494   3.558   7.124   8.411 -0.8565  1.2638 -0.4965
 9433TIP3    H252495   3.543   7.095   8.558  1.8639 -1.6603 -0.6821
 9434TIP3   OH252496   7.213   3.372   8.252  0.2560 -0.1532  0.1863
 9434TIP3    H152497   7.169   3.288   8.236  0.9808 -0.5407  0.2154
 9434TIP3    H252498   7.144   3.428   8.289  0.1318 -1.1880  1.5859
 9435TIP3   OH252499   0.450   2.448   7.550  0.3633 -0.0949  0.2568
 9435TIP3    H152500   0.369   2.451   7.499  2.0936 -1.2498 -2.8500
 9435TIP3    H252501   0.481   2.538   7.551  1.0169 -0.2028 -2.2422
 9436TIP3   OH252502   6.531   5.390   8.705 -0.8684 -0.3471 -0.1598
 9436TIP3    H152503   6.529   5.384   8.609 -0.9885  1.4359 -0.2920
 9436TIP3    H252504   6.513   5.300   8.734  0.1010 -1.1301 -1.7886
 9437TIP3   OH252505   1.943   1.660   8.159  0.3506  0.3988 -0.1405
 9437TIP3    H152506   1.941   1.754   8.139 -1.2137  0.5975  0.7167
 9437TIP3    H252507   1.900   1.619   8.084 -1.9388  0.7481  0.8831
 9438TIP3   OH252508   1.161   1.330   8.862 -0.5014 -0.3165 -0.6596
 9438TIP3    H152509   1.153   1.425   8.858 -1.9118 -0.4392 -1.0170
 9438TIP3    H252510   1.254   1.315   8.882  0.2034  1.0878 -2.6059
 9439TIP3   OH252511   3.481   0.579   9.371  0.1814  0.6618  0.1702
 9439TIP3    H152512   3.532   0.596   9.450  2.3062  0.6392 -1.1147
 9439TIP3    H252513   3.523   0.503   9.331 -1.9838 -0.4663 -0.0845
 9440TIP3   OH252514   2.160   2.481   7.984 -1.1346  0.2197 -0.1575
 9440TIP3    H152515   2.235   2.497   8.041 -0.3073  0.2676 -1.2208
 9440TIP3    H252516   2.124   2.568   7.967 -1.4447  0.1969  0.3521
 9441TIP3   OH252517   8.132   2.430   9.000 -0.4443 -0.3490  0.0324
 9441TIP3    H152518   8.215   2.390   9.025  0.0403 -0.3835 -1.4980
 9441TIP3    H252519   8.105   2.382   8.921 -0.2195  1.7754 -1.4231
 9442TIP3   OH252520   4.066   3.984   8.928  0.1715 -0.2543 -0.5814
 9442TIP3    H152521   4.137   3.969   8.991 -1.1636  0.4368  1.1960
 9442TIP3    H252522   4.057   4.079   8.925  1.3405 -0.1517 -3.2372
 9443TIP3   OH252523   4.326   0.128   8.615 -0.2499  0.6126 -0.6834
 9443TIP3    H152524   4.280   0.087   8.688  0.5424  1.1751  0.1502
 9443TIP3    H252525   4.415   0.140   8.647 -0.0896  1.5808 -1.4651
 9444TIP3   OH252526   3.450   1.571   8.720  0.4521  0.0270  0.5249
 9444TIP3    H152527   3.460   1.654   8.767  0.4456  0.5430 -0.3573
 9444TIP3    H252528   3.359   1.545   8.737 -0.0908  1.1078 -0.6078
 9445TIP3   OH252529   7.691   0.548   9.491  0.1172 -0.0141 -0.0117
 9445TIP3    H152530   7.680   0.640   9.468 -1.5488  0.2794  1.6930
 9445TIP3    H252531   7.780   0.527   9.463  1.0327  2.4814  0.7557
 9446TIP3   OH252532   2.096   0.895   8.160  0.1604 -0.0486 -0.4250
 9446TIP3    H152533   2.184   0.930   8.154 -0.5094  1.7167 -0.6670
 9446TIP3    H252534   2.089   0.860   8.249  0.9616  0.1838 -0.2665
 9447TIP3   OH252535   2.803   4.797   8.548  0.5676 -0.4645 -0.2661
 9447TIP3    H152536   2.774   4.798   8.457 -0.8546  0.1024  0.1737
 9447TIP3    H252537   2.729   4.832   8.597  1.3190 -0.7555  1.1129
 9448TIP3   OH252538   1.081   3.685   7.590  0.2476 -0.0771  0.4840
 9448TIP3    H152539   0.988   3.707   7.585  0.4994  1.5562  1.9218
 9448TIP3    H252540   1.087   3.620   7.660  0.0908 -1.0390 -0.3691
 9449TIP3   OH252541   2.398   5.747   9.683  0.0531  0.3283  0.2152
 9449TIP3    H152542   2.317   5.797   9.683  0.6629  1.3509  1.0698
 9449TIP3    H252543   2.376   5.665   9.639 -1.2434  0.8952 -0.2149
 9450TIP3   OH252544   0.563   2.609   8.611  0.4814  0.4432 -0.3642
 9450TIP3    H152545   0.593   2.699   8.600  1.7345 -0.0157 -0.9792
 9450TIP3    H252546   0.578   2.591   8.704 -1.6199  1.4568  0.2239
 9451TIP3   OH252547   6.323   8.184   8.438  0.3935 -0.2056  0.5638
 9451TIP3    H152548   6.407   8.210   8.401  0.3277 -0.3202  0.3343
 9451TIP3    H252549   6.266   8.260   8.423  0.0105 -0.7260 -0.7175
 9452TIP3   OH252550   8.049   2.084  10.291 -0.2237  0.2917 -0.7124
 9452TIP3    H152551   7.978   2.095  10.227 -0.5317  0.6956 -0.3112
 9452TIP3    H252552   8.108   2.158  10.273 -1.0436  1.2626  0.3872
 9453TIP3   OH252553   6.138   0.024   8.055  0.3533  0.0266 -0.1485
 9453TIP3    H152554   6.068   0.053   7.997 -0.0666  2.4081  1.4040
 9453TIP3    H252555   6.191   0.102   8.070  1.9508 -1.1359  0.6518
 9454TIP3   OH252556   8.137   7.158   8.447 -0.2655  0.5184 -0.5908
 9454TIP3    H152557   8.058   7.211   8.444 -1.0932 -0.6300 -0.0660
 9454TIP3    H252558   8.128   7.097   8.373  0.0730  0.3137 -0.4676
 9455TIP3   OH252559   7.520   1.444   8.018  0.1503 -0.0837  0.1206
 9455TIP3    H152560   7.443   1.437   7.961  0.6649  1.0360 -0.7370
 9455TIP3    H252561   7.506   1.377   8.084 -1.4847 -0.0244 -0.1208
 9456TIP3   OH252562   1.436   7.819   8.623 -0.2273 -0.1833 -0.3420
 9456TIP3    H152563   1.452   7.784   8.536  0.7293 -0.2931 -0.1344
 9456TIP3    H252564   1.480   7.905   8.623 -0.4462 -0.0679 -0.0552
 9457TIP3   OH252565   7.198   6.748   8.594 -0.1881 -0.3335  0.8058
 9457TIP3    H152566   7.256   6.823   8.606  0.5111 -0.5665 -0.8555
 9457TIP3    H252567   7.113   6.777   8.627  0.3912  0.6978  1.4260
 9458TIP3   OH252568   5.063   1.559   7.938 -0.3293  0.1718 -0.1620
 9458TIP3    H152569   5.134   1.517   7.889 -0.3410  1.3871 -1.2932
 9458TIP3    H252570   5.030   1.491   7.996  0.9224 -0.7877 -0.5230
 9459TIP3   OH252571   1.169   6.760   7.952  0.6703 -0.4281  0.5946
 9459TIP3    H152572   1.089   6.804   7.924 -0.0281 -1.3160  1.1060
 9459TIP3    H252573   1.168   6.768   8.048  0.8997 -0.9282  0.6427
 9460TIP3   OH252574   6.885   0.101  10.012 -0.2598  1.0214 -0.2823
 9460TIP3    H152575   6.808   0.153  10.038 -1.0613  0.2269 -1.0033
 9460TIP3    H252576   6.870   0.081   9.920  1.5776  2.1201 -0.8724
 9461TIP3   OH252577   1.090   0.065   9.122  0.1856  0.4675  0.5055
 9461TIP3    H152578   1.157   0.079   9.054  1.1049  0.1694  1.3243
 9461TIP3    H252579   1.066  -0.027   9.113 -0.2894  0.6290  0.0679
 9462TIP3   OH252580   7.279   7.870  10.194 -0.0609  0.5089  0.0143
 9462TIP3    H152581   7.363   7.828  10.176  0.1724  0.4140  1.2631
 9462TIP3    H252582   7.280   7.888  10.288 -1.0507  1.3655 -0.1187
 9463TIP3   OH252583   5.455   1.691   8.429 -0.3105  0.0122 -0.3804
 9463TIP3    H152584   5.488   1.634   8.360  1.5088  3.0987 -2.2722
 9463TIP3    H252585   5.364   1.707   8.405 -0.8086 -1.8592  0.0999
 9464TIP3   OH252586   5.001   1.240   8.878  0.2027 -0.0081  0.9384
 9464TIP3    H152587   5.054   1.222   8.956  0.1309  3.4620  1.9693
 9464TIP3    H252588   5.061   1.284   8.818 -0.3624 -0.3672  0.0995
 9465TIP3   OH252589   7.752   3.141   9.197  0.4380 -0.7933 -0.3176
 9465TIP3    H152590   7.707   3.109   9.119 -1.1780  0.1278  0.1847
 9465TIP3    H252591   7.685   3.137   9.266  1.4650 -0.4125  0.7210
 9466TIP3   OH252592   5.132   6.873   9.234  0.1092  0.3643 -0.1636
 9466TIP3    H152593   5.132   6.936   9.163 -2.3816  2.3869  1.4827
 9466TIP3    H252594   5.168   6.920   9.309 -0.0471 -0.7717  0.6668
 9467TIP3   OH252595   0.882   3.278   9.218  0.0108  0.0434 -0.4431
 9467TIP3    H152596   0.874   3.196   9.169 -0.8554 -0.9569  1.2542
 9467TIP3    H252597   0.916   3.252   9.304 -0.3821  1.4397  0.1732
 9468TIP3   OH252598   2.495   1.940   9.443 -0.3769 -0.3397 -0.0945
 9468TIP3    H152599   2.555   1.924   9.516 -0.0527  2.2132  0.3132
 9468TIP3    H252600   2.485   2.035   9.441 -3.3192 -0.5645 -1.0653
 9469TIP3   OH252601   2.584   5.564   8.128 -0.3086  0.2808 -0.7917
 9469TIP3    H152602   2.643   5.489   8.127 -2.2809 -1.3573 -1.4546
 9469TIP3    H252603   2.623   5.627   8.067  0.7149 -0.7444 -1.2219
 9470TIP3   OH252604   6.216   0.415   9.370  0.0907  0.1095  0.2132
 9470TIP3    H152605   6.147   0.481   9.360  0.4682  0.3365 -1.0902
 9470TIP3    H252606   6.264   0.418   9.287 -0.0178 -1.9626  0.0246
 9471TIP3   OH252607   4.285   4.048   9.558 -0.2756 -0.4449 -0.1763
 9471TIP3    H152608   4.259   4.140   9.566 -2.2937 -0.8704 -1.2171
 9471TIP3    H252609   4.209   3.999   9.588  0.0068 -1.7749 -1.5319
 9472TIP3   OH252610   6.783   8.385   9.446 -0.1743 -0.0646  0.1109
 9472TIP3    H152611   6.855   8.323   9.451 -0.5560 -0.4089  2.1183
 9472TIP3    H252612   6.816   8.463   9.490 -0.2806  0.6094 -0.9516
 9473TIP3   OH252613   6.528   4.012   9.317 -0.4157  0.5063 -0.0995
 9473TIP3    H152614   6.580   4.020   9.236 -1.7969  0.8658 -0.9723
 9473TIP3    H252615   6.553   4.087   9.369 -0.8033  1.2531 -0.9632
 9474TIP3   OH252616   5.607   2.101   8.489 -0.3394 -0.3305  0.0671
 9474TIP3    H152617   5.611   2.021   8.436 -1.9632  0.8074 -1.9022
 9474TIP3    H252618   5.516   2.107   8.518  0.1066  0.0503  1.5087
 9475TIP3   OH252619   0.188   0.170   9.650  0.3884  0.1723  0.2462
 9475TIP3    H152620   0.160   0.252   9.610  1.5645  0.8874  0.8186
 9475TIP3    H252621   0.136   0.103   9.608 -1.2357  1.2988  0.3789
 9476TIP3   OH252622   6.213   3.284   8.702  0.2632  0.4837  0.2256
 9476TIP3    H152623   6.256   3.203   8.729  0.1105  0.4709  0.4328
 9476TIP3    H252624   6.175   3.264   8.616 -0.9192 -0.0817  0.8526
 9477TIP3   OH252625   5.275   4.761   9.478  0.1343  0.7206 -0.1092
 9477TIP3    H152626   5.278   4.758   9.574 -0.2044 -1.3263 -0.1238
 9477TIP3    H252627   5.335   4.832   9.455  1.1051  0.5183  1.5779
 9478TIP3   OH252628   0.928   5.530   8.274  0.2495  0.3681  0.4187
 9478TIP3    H152629   0.846   5.576   8.291 -0.7846  0.4222 -3.7519
 9478TIP3    H252630   0.978   5.589   8.218  2.3110 -0.5202  1.2224
 9479TIP3   OH252631   0.193   8.227   8.665 -0.0617 -0.3939 -0.4969
 9479TIP3    H152632   0.154   8.302   8.709 -0.0580 -0.0245 -1.1245
 9479TIP3    H252633   0.222   8.170   8.737 -1.8665 -0.7527 -0.0008
 9480TIP3   OH252634   2.667   0.740   8.489 -0.7233  0.4770  0.1147
 9480TIP3    H152635   2.652   0.668   8.427  1.0189 -0.0594  0.2478
 9480TIP3    H252636   2.629   0.709   8.571  0.2987 -0.4749  0.2558
 9481TIP3   OH252637   1.469   4.309   7.727  0.1476  0.3904 -0.3768
 9481TIP3    H152638   1.543   4.268   7.682 -0.2783 -0.6230 -0.1840
 9481TIP3    H252639   1.508   4.358   7.798  0.5634 -1.5364  0.8055
 9482TIP3   OH252640   4.099   8.247   9.455 -0.5173  0.0430 -0.0983
 9482TIP3    H152641   4.168   8.275   9.395 -0.0686  1.9313  1.2009
 9482TIP3    H252642   4.125   8.159   9.482  3.0849  1.6487  2.5344
 9483TIP3   OH252643   4.946   0.110   7.784  0.0113  0.2064 -0.9599
 9483TIP3    H152644   4.911   0.022   7.776 -2.9654  0.9485  1.7494
 9483TIP3    H252645   5.000   0.122   7.706  1.1807 -4.1836 -1.1036
 9484TIP3   OH252646   2.283   4.312   9.085 -0.2287  0.2465 -0.3408
 9484TIP3    H152647   2.287   4.310   8.989 -0.2447  1.7705 -0.4042
 9484TIP3    H252648   2.192   4.291   9.106 -0.9837  2.6764 -0.8437
 9485TIP3   OH252649   3.647   1.563   9.190 -0.2400 -0.0471 -0.3602
 9485TIP3    H152650   3.633   1.556   9.285 -0.7741 -0.2744 -0.4561
 9485TIP3    H252651   3.560   1.561   9.152 -0.0616  0.6640 -0.8269
 9486TIP3   OH252652   1.294   8.090   9.400 -0.4032  0.0541 -0.0733
 9486TIP3    H152653   1.368   8.040   9.365 -0.0752 -0.2445  1.0012
 9486TIP3    H252654   1.225   8.024   9.414 -1.1455  0.4407 -1.7372
 9487TIP3   OH252655   2.203   4.217   9.458  0.0121  0.1196  0.2659
 9487TIP3    H152656   2.197   4.124   9.477 -1.7154  0.3063  0.8393
 9487TIP3    H252657   2.226   4.258   9.541  2.5166  0.1170 -0.3388
 9488TIP3   OH252658   0.223   3.595   8.095 -0.3033 -0.0907 -0.0081
 9488TIP3    H152659   0.314   3.623   8.098 -0.5661  0.7488  0.5001
 9488TIP3    H252660   0.183   3.636   8.172 -0.6457 -2.1339  0.9799
 9489TIP3   OH252661   0.716   4.972   8.007  0.0830  1.0064 -0.1267
 9489TIP3    H152662   0.672   4.937   7.930 -0.8397 -0.5993  1.0520
 9489TIP3    H252663   0.808   4.949   7.995 -0.3531 -1.1581  0.1688
 9490TIP3   OH252664   2.104   0.867   8.818 -0.3648  0.7019  0.2913
 9490TIP3    H152665   2.050   0.946   8.810  0.6206  1.4466  0.9158
 9490TIP3    H252666   2.105   0.847   8.911 -1.8903 -1.0065  0.0269
 9491TIP3   OH252667   1.942   4.271   7.443 -0.0584  0.2389  0.1117
 9491TIP3    H152668   2.008   4.207   7.473  0.8433  0.2949 -1.6318
 9491TIP3    H252669   1.975   4.355   7.475 -0.2455  0.0620  0.7874
 9492TIP3   OH252670   1.614   4.120   9.239 -0.4047 -0.3938  0.5558
 9492TIP3    H152671   1.707   4.109   9.258 -0.1442 -0.9744 -0.9009
 9492TIP3    H252672   1.571   4.119   9.324  0.7864 -1.5244  1.1718
 9493TIP3   OH252673   1.390   4.012   8.618 -0.1765 -0.6889 -0.2596
 9493TIP3    H152674   1.334   4.087   8.597 -0.9681 -1.0677  0.4666
 9493TIP3    H252675   1.390   4.007   8.713 -0.3265 -1.7498 -0.3015
 9494TIP3   OH252676   0.570   3.746   8.458 -0.0580 -0.3391  0.7250
 9494TIP3    H152677   0.609   3.700   8.384 -1.7974 -0.3662 -0.2237
 9494TIP3    H252678   0.613   3.708   8.535  1.3608 -0.7306 -0.2204
 9495TIP3   OH252679   6.081   2.043   9.735  0.4443 -0.3227 -0.0558
 9495TIP3    H152680   6.083   2.081   9.647  3.8029  0.0945  0.0677
 9495TIP3    H252681   5.994   2.065   9.768 -0.0964  1.5616 -2.3937
 9496TIP3   OH252682   0.518   7.064   8.683 -0.6494  0.4689  0.3871
 9496TIP3    H152683   0.576   6.989   8.673 -1.9228 -0.4012 -0.9105
 9496TIP3    H252684   0.433   7.026   8.707 -1.4443  1.4165 -0.7892
 9497TIP3   OH252685   2.059   1.636   8.685 -0.2908 -0.1716  0.0085
 9497TIP3    H152686   1.972   1.603   8.663 -0.2879  0.2620 -0.6745
 9497TIP3    H252687   2.108   1.559   8.714  0.5164 -1.3595 -3.9473
 9498TIP3   OH252688   1.666   7.408   9.733  0.7612  0.0617 -1.0188
 9498TIP3    H152689   1.679   7.412   9.639  2.0362  0.9225 -0.8408
 9498TIP3    H252690   1.615   7.487   9.754  0.6884  0.0012 -0.9691
 9499TIP3   OH252691   6.445   5.385   9.246 -0.1162  0.1316 -0.2664
 9499TIP3    H152692   6.505   5.353   9.179  1.5508  0.4953  0.9798
 9499TIP3    H252693   6.376   5.431   9.197  1.0717  0.4433 -1.7086
 9500TIP3   OH252694   7.390   6.496   9.548 -0.3212  0.5163  0.2966
 9500TIP3    H152695   7.447   6.437   9.596  0.6786  1.3402  0.1640
 9500TIP3    H252696   7.374   6.451   9.464 -3.7363 -1.8959  1.9751
 9501TIP3   OH252697   6.035   8.122   8.508 -0.1052  0.1084 -0.2021
 9501TIP3    H152698   6.053   8.107   8.415  0.7163  1.8304 -0.3558
 9501TIP3    H252699   6.119   8.104   8.551 -1.1189 -3.3523  0.6316
 9502TIP3   OH252700   4.531   7.542   9.104  0.1978 -0.1527  0.1928
 9502TIP3    H152701   4.497   7.456   9.129 -1.0694 -0.2237 -1.5341
 9502TIP3    H252702   4.452   7.596   9.092  0.8236  0.5469 -1.0305
 9503TIP3   OH252703   1.483   0.734   7.816  0.1429  0.0511  0.6199
 9503TIP3    H152704   1.423   0.784   7.761 -0.0942 -1.0862 -0.1812
 9503TIP3    H252705   1.549   0.798   7.843 -0.9110  1.1106  0.7669
 9504TIP3   OH252706   3.909   1.335   9.306 -0.8329 -0.0290  0.0130
 9504TIP3    H152707   3.886   1.358   9.396 -1.0783  1.4213 -0.3936
 9504TIP3    H252708   3.830   1.294   9.271 -0.8832 -0.1974  0.3178
 9505TIP3   OH252709   2.464   8.172   8.571 -0.9387 -0.1090  0.5128
 9505TIP3    H152710   2.395   8.236   8.587 -0.5642  0.5684 -0.4435
 9505TIP3    H252711   2.535   8.223   8.532 -0.6177 -1.0965 -0.2489
 9506TIP3   OH252712   2.025   3.028   8.224  0.4314 -0.3942 -0.5718
 9506TIP3    H152713   2.048   3.088   8.153 -0.9979  0.2208 -0.5656
 9506TIP3    H252714   1.931   3.041   8.236 -0.0243 -2.9089 -0.8115
 9507TIP3   OH252715   7.765   0.851   8.167  0.2044  0.6876  0.2437
 9507TIP3    H152716   7.760   0.885   8.256  0.3890 -1.0744  0.9838
 9507TIP3    H252717   7.858   0.831   8.155 -0.1296 -1.4458  0.6765
 9508TIP3   OH252718   0.250   3.162   9.171  0.5132 -0.5320 -0.1418
 9508TIP3    H152719   0.345   3.153   9.185  0.5501  0.2583  0.1426
 9508TIP3    H252720   0.218   3.200   9.253 -0.1984 -1.6901  0.1390
 9509TIP3   OH252721   0.620   4.392   7.908 -0.1209  0.1719  0.5476
 9509TIP3    H152722   0.541   4.375   7.959 -1.2119 -0.4055 -1.2346
 9509TIP3    H252723   0.663   4.306   7.902 -0.1485  0.1744  0.2832
 9510TIP3   OH252724   4.576   5.995   9.927  0.2570  0.2847 -0.2490
 9510TIP3    H152725   4.492   5.952   9.945  1.1852 -0.3878  3.2755
 9510TIP3    H252726   4.556   6.057   9.857 -2.9380 -0.5488 -0.2606
 9511TIP3   OH252727   3.656   1.541   9.645  0.5070  0.1288  0.2991
 9511TIP3    H152728   3.561   1.531   9.655  0.5191 -0.1392  0.1517
 9511TIP3    H252729   3.666   1.594   9.565  0.5092 -0.7642 -0.3022
 9512TIP3   OH252730   8.079   7.238   9.352  0.1234 -0.1215 -0.7508
 9512TIP3    H152731   8.164   7.272   9.381  1.8542 -3.4052 -1.4105
 9512TIP3    H252732   8.084   7.240   9.256 -1.0998  0.8246 -0.8053
 9513TIP3   OH252733   8.183   4.028   8.889  0.2928 -0.0912  0.1235
 9513TIP3    H152734   8.141   3.953   8.929  1.6164 -0.4694  0.8545
 9513TIP3    H252735   8.150   4.029   8.799 -0.7126 -0.7791  0.4744
 9514TIP3   OH252736   0.843   8.128   7.598  0.2845 -0.7591  0.4950
 9514TIP3    H152737   0.824   8.218   7.571 -1.1861 -1.0280  0.5173
 9514TIP3    H252738   0.932   8.112   7.567 -0.1733  0.0066 -1.3764
 9515TIP3   OH252739   2.209   2.519   8.696 -0.0703  0.3459  0.7945
 9515TIP3    H152740   2.291   2.564   8.714  0.7728 -1.0868  0.6717
 9515TIP3    H252741   2.234   2.428   8.681 -1.4963  0.1677 -0.8342
 9516TIP3   OH252742   6.343   1.764   8.180  0.0423 -0.2485 -0.2813
 9516TIP3    H152743   6.408   1.700   8.210  0.9757  0.1701 -1.3405
 9516TIP3    H252744   6.384   1.849   8.197  0.7498  0.0183 -2.8750
 9517TIP3   OH252745   4.142   3.303   7.788  0.4670 -0.2076 -0.1608
 9517TIP3    H152746   4.072   3.346   7.838 -0.4391 -2.0829  0.2467
 9517TIP3    H252747   4.217   3.301   7.848  0.2265 -0.0546  0.1448
 9518TIP3   OH252748   5.696   8.095   7.820 -1.4391  0.3962 -0.8834
 9518TIP3    H152749   5.711   8.008   7.857  1.1118  1.7693  1.6407
 9518TIP3    H252750   5.771   8.111   7.763 -0.3409  1.9755  0.9032
 9519TIP3   OH252751   2.248   1.911   8.617 -0.2497 -0.2075  0.5311
 9519TIP3    H152752   2.274   1.968   8.544 -0.9949  0.3244  0.6653
 9519TIP3    H252753   2.258   1.822   8.583  0.7802  0.0002  0.2607
 9520TIP3   OH252754   1.277   4.060   7.719 -0.0604  0.0628 -0.0534
 9520TIP3    H152755   1.359   4.056   7.769  0.7158 -3.1731 -1.3304
 9520TIP3    H252756   1.295   4.122   7.649  1.1033 -0.1531  0.0210
 9521TIP3   OH252757   5.699   5.261   8.822 -0.0479  0.4213  0.0657
 9521TIP3    H152758   5.759   5.332   8.800  1.6898 -0.9345  0.1839
 9521TIP3    H252759   5.756   5.185   8.834 -1.9685 -1.5251 -2.1588
 9522TIP3   OH252760   3.643   7.729   8.515 -0.4786 -0.2482  0.9218
 9522TIP3    H152761   3.597   7.675   8.580  1.3843 -0.3224  2.2313
 9522TIP3    H252762   3.584   7.802   8.499 -2.6182 -2.0658 -0.1268
 9523TIP3   OH252763   1.901   3.779   8.348  0.4604 -0.2433  0.0346
 9523TIP3    H152764   1.922   3.846   8.413  0.7014  3.0091 -3.0698
 9523TIP3    H252765   1.806   3.785   8.338  0.6727  1.1499 -1.5963
 9524TIP3   OH252766   6.362   3.108   9.320 -0.3453 -0.2687 -0.0392
 9524TIP3    H152767   6.414   3.178   9.358  0.1159 -0.2539 -0.6893
 9524TIP3    H252768   6.347   3.135   9.229 -1.8247 -0.0811  0.2278
 9525TIP3   OH252769   3.357   3.467   8.316  0.0133  0.3193 -0.2920
 9525TIP3    H152770   3.273   3.513   8.316  0.2740  0.8833  1.7393
 9525TIP3    H252771   3.422   3.534   8.294  0.2639  0.7197  1.5105
 9526TIP3   OH252772   5.226   2.555   8.555  0.8455  0.1500  0.5253
 9526TIP3    H152773   5.272   2.493   8.498  0.8093  1.2900 -0.7925
 9526TIP3    H252774   5.253   2.641   8.523 -1.6713  0.8529  0.1395
 9527TIP3   OH252775   0.443   2.266   7.746  0.1332 -0.5069  0.1235
 9527TIP3    H152776   0.450   2.356   7.713 -0.6159 -0.3617  0.3482
 9527TIP3    H252777   0.349   2.248   7.748  0.2392 -1.0282  0.7881
 9528TIP3   OH252778   7.707   5.466   7.581  0.0631 -0.1075 -0.5153
 9528TIP3    H152779   7.668   5.473   7.668  0.2658  0.3005 -0.4569
 9528TIP3    H252780   7.719   5.372   7.568 -1.7978 -0.3111 -0.9167
 9529TIP3   OH252781   1.668   0.829   9.314  0.3462  0.2646  0.3210
 9529TIP3    H152782   1.622   0.913   9.316  3.3909  2.1230 -0.3336
 9529TIP3    H252783   1.760   0.852   9.328  1.1939 -3.1443  1.3500
 9530TIP3   OH252784   5.697   5.450   8.418 -0.2059 -0.7144  0.0341
 9530TIP3    H152785   5.754   5.375   8.435 -1.1611 -0.9721  2.6036
 9530TIP3    H252786   5.741   5.524   8.461 -0.4798 -0.3458 -0.3099
 9531TIP3   OH252787   2.828   2.599   8.898 -0.2900  0.2087 -0.1689
 9531TIP3    H152788   2.870   2.514   8.881 -1.3664 -0.8999  2.2851
 9531TIP3    H252789   2.901   2.659   8.912  0.5029 -0.2158 -2.0862
 9532TIP3   OH252790   1.665   8.263   7.909 -0.2272 -0.2514  0.2859
 9532TIP3    H152791   1.698   8.350   7.931 -0.1282 -0.1038 -0.4197
 9532TIP3    H252792   1.743   8.207   7.914  0.4246  0.2741 -2.3901
 9533TIP3   OH252793   4.589   8.277   7.885 -0.0223  0.1498 -0.0487
 9533TIP3    H152794   4.662   8.263   7.825 -0.6280  1.3629 -1.1013
 9533TIP3    H252795   4.557   8.188   7.903  1.2908 -0.3565 -0.0625
 9534TIP3   OH252796   1.660   4.523   9.314 -0.1631  0.4031  0.3948
 9534TIP3    H152797   1.585   4.492   9.366 -1.3193 -0.1674 -1.4919
 9534TIP3    H252798   1.716   4.446   9.305 -0.0729  0.4427  0.6155
 9535TIP3   OH252799   4.723   5.022   8.465  0.4369  0.2025  0.1966
 9535TIP3    H152800   4.641   5.069   8.448 -0.0070 -0.8016 -0.5581
 9535TIP3    H252801   4.792   5.085   8.445 -0.1218  0.3031 -1.6111
 9536TIP3   OH252802   5.485   8.331   8.287  0.4363 -0.4174  1.0046
 9536TIP3    H152803   5.412   8.383   8.319 -0.5079 -1.7121  1.0365
 9536TIP3    H252804   5.542   8.319   8.363  0.7719  0.6965  0.9485
 9537TIP3   OH252805   7.721   3.016   8.220 -0.7034 -0.1021  0.0923
 9537TIP3    H152806   7.741   3.006   8.127 -1.1089 -2.9285  0.2187
 9537TIP3    H252807   7.633   3.054   8.221 -0.1760  1.2072 -0.6145
 9538TIP3   OH252808   6.562   6.368  10.557  0.8490 -0.0136 -0.6236
 9538TIP3    H152809   6.632   6.393  10.498 -0.0171 -1.4347 -2.3280
 9538TIP3    H252810   6.550   6.274  10.543  1.3252 -0.6893  2.6260
 9539TIP3   OH252811   0.764   0.506   9.724  0.4286  0.2946 -0.4384
 9539TIP3    H152812   0.848   0.550   9.737  2.0158 -2.9758  1.9295
 9539TIP3    H252813   0.708   0.538   9.795  1.2451 -0.6738  0.6856
 9540TIP3   OH252814   8.027   2.469   9.460 -0.4875 -0.0846 -0.0646
 9540TIP3    H152815   7.965   2.408   9.498  0.9250 -1.2053  0.5203
 9540TIP3    H252816   7.974   2.546   9.438 -2.1670 -1.1957 -0.1181
 9541TIP3   OH252817   7.028   8.111   8.078 -0.1175  0.6077 -0.2924
 9541TIP3    H152818   6.959   8.143   8.020  0.0363  1.4375 -0.0267
 9541TIP3    H252819   7.003   8.020   8.097 -0.7619  0.6832 -0.7584
 9542TIP3   OH252820   6.021   4.163   7.578  0.0191 -0.3810 -0.4052
 9542TIP3    H152821   5.939   4.115   7.582 -0.0034 -0.3257 -0.1495
 9542TIP3    H252822   6.075   4.114   7.516 -0.0749 -0.6232 -0.2973
 9543TIP3   OH252823   6.917   4.852   8.076  0.0256 -0.3613  0.2375
 9543TIP3    H152824   6.853   4.849   8.146 -0.1520 -1.2812  0.0478
 9543TIP3    H252825   6.992   4.802   8.109 -0.7068 -2.2628 -0.8356
 9544TIP3   OH252826   4.986   4.782   9.136 -0.1824 -0.8591 -0.4625
 9544TIP3    H152827   4.961   4.874   9.134  1.2889 -0.3950  0.7605
 9544TIP3    H252828   5.069   4.778   9.089  0.7840 -1.1683  1.1668
 9545TIP3   OH252829   2.174   3.226   9.473 -0.2249 -0.1401 -0.2381
 9545TIP3    H152830   2.120   3.303   9.492 -2.0928 -1.3132 -0.5440
 9545TIP3    H252831   2.178   3.177   9.555  2.5410  1.1191  0.4935
 9546TIP3   OH252832   1.630   5.474   8.482  0.0928 -0.3089 -0.2501
 9546TIP3    H152833   1.643   5.398   8.540 -3.2326 -1.1184 -0.3606
 9546TIP3    H252834   1.627   5.436   8.394 -3.6270 -0.5784 -0.1815
 9547TIP3   OH252835   3.473   5.660   9.281  0.0844  0.2965 -0.3711
 9547TIP3    H152836   3.458   5.745   9.240  0.5025  0.2532 -0.6220
 9547TIP3    H252837   3.444   5.671   9.371  0.4072  0.7943 -0.3205
 9548TIP3   OH252838   4.724   4.860   8.231 -0.4465 -0.8533  0.6505
 9548TIP3    H152839   4.732   4.897   8.319  0.9701  0.6908 -0.0803
 9548TIP3    H252840   4.631   4.870   8.210 -0.3842  1.0612  1.0618
 9549TIP3   OH252841   6.146   4.185   8.437  0.1455 -0.5306 -0.7069
 9549TIP3    H152842   6.165   4.153   8.349  1.3992 -0.7738 -0.3650
 9549TIP3    H252843   6.216   4.248   8.455  0.3359 -1.0454  0.4067
 9550TIP3   OH252844   3.017   4.471   8.246  0.6015  0.0325  0.1370
 9550TIP3    H152845   3.111   4.482   8.261  0.6255  3.0038 -1.5102
 9550TIP3    H252846   3.011   4.398   8.184  1.7659 -0.4876  0.6076
 9551TIP3   OH252847   0.427   5.955   7.916 -0.3907  0.4641  0.0923
 9551TIP3    H152848   0.435   5.861   7.934  2.4969  0.7712  0.9838
 9551TIP3    H252849   0.469   5.967   7.831 -0.6258  0.9813  0.0475
 9552TIP3   OH252850   0.637   5.369   8.133 -0.0902  0.3240 -0.7244
 9552TIP3    H152851   0.648   5.409   8.219 -0.0812  1.5141 -1.2444
 9552TIP3    H252852   0.683   5.429   8.073 -1.4338  0.3941 -1.7459
 9553TIP3   OH252853   2.873   2.631   7.708  0.3058 -0.1432 -0.4958
 9553TIP3    H152854   2.898   2.623   7.800  0.5964  0.4859 -0.5149
 9553TIP3    H252855   2.922   2.562   7.663  1.0600  0.2922 -0.3485
 9554TIP3   OH252856   1.596   1.744  10.158  0.4646  0.2045  0.3603
 9554TIP3    H152857   1.690   1.764  10.160  0.8390 -1.4215  0.0463
 9554TIP3    H252858   1.592   1.652  10.134 -1.2441  0.3973 -0.1870
 9555TIP3   OH252859   7.745   5.190   7.553 -1.1921 -0.1286 -1.3144
 9555TIP3    H152860   7.778   5.125   7.492 -2.4404 -1.1907 -0.9080
 9555TIP3    H252861   7.671   5.147   7.597 -0.7903  0.8400  0.4276
 9556TIP3   OH252862   2.455   2.310   7.640 -0.2676  0.5226 -0.1308
 9556TIP3    H152863   2.362   2.291   7.630  0.0340 -1.5726  0.6424
 9556TIP3    H252864   2.459   2.406   7.642 -2.2519  0.6993 -1.3538
 9557TIP3   OH252865   7.320   0.072   9.921  0.0941  0.1486  0.1453
 9557TIP3    H152866   7.241   0.019   9.918 -0.4945  0.9812  0.3609
 9557TIP3    H252867   7.314   0.120  10.004  0.2389  1.0666 -0.3571
 9558TIP3   OH252868   2.548   6.501   8.791  0.3184 -0.0827 -0.0339
 9558TIP3    H152869   2.534   6.593   8.814  1.3274 -0.5543  2.8920
 9558TIP3    H252870   2.628   6.477   8.838  0.6069 -2.2183 -1.5134
 9559TIP3   OH252871   7.392   0.657   9.938  0.6956  0.3011  0.6161
 9559TIP3    H152872   7.426   0.739   9.975 -0.1114  0.5467  0.8371
 9559TIP3    H252873   7.305   0.648   9.977  0.3634 -0.1326 -0.2041
 9560TIP3   OH252874   7.558   2.073   9.176  0.1387 -0.1180  0.4525
 9560TIP3    H152875   7.489   2.134   9.149  1.2575  0.5228 -1.0748
 9560TIP3    H252876   7.511   2.001   9.218 -1.5564 -0.1079 -1.2943
 9561TIP3   OH252877   3.539   8.292   9.173 -0.3610 -0.6294 -0.0682
 9561TIP3    H152878   3.526   8.348   9.096  1.7165  0.3843  0.2569
 9561TIP3    H252879   3.632   8.272   9.173 -0.2648 -0.4799  2.2469
 9562TIP3   OH252880   5.864   5.147   9.514  0.7707 -0.2664  0.3328
 9562TIP3    H152881   5.852   5.234   9.553  0.6098 -0.9056  1.7914
 9562TIP3    H252882   5.931   5.160   9.447 -0.8399  1.4212 -1.0898
 9563TIP3   OH252883   4.223   2.095   7.829 -0.2883  0.5737  0.2638
 9563TIP3    H152884   4.140   2.141   7.821 -1.0135 -0.2163  2.5186
 9563TIP3    H252885   4.286   2.162   7.855 -0.3419  1.0514 -0.7916
 9564TIP3   OH252886   1.117   3.785   8.817  0.5602  0.2826  0.7439
 9564TIP3    H152887   1.086   3.823   8.899  0.6756  0.5351  0.6723
 9564TIP3    H252888   1.160   3.858   8.772 -1.2033  0.6457 -0.4318
 9565TIP3   OH252889   7.706   2.365   8.153 -0.2035 -0.3648  0.6457
 9565TIP3    H152890   7.675   2.383   8.242  3.0127  3.7565  1.2484
 9565TIP3    H252891   7.638   2.402   8.096 -0.0740  1.5434  1.6348
 9566TIP3   OH252892   3.032   1.406   8.005 -0.0696 -0.1978 -0.8835
 9566TIP3    H152893   2.949   1.404   8.054 -0.0085  1.4414 -0.6542
 9566TIP3    H252894   3.006   1.397   7.913 -0.3828 -0.9318 -0.7314
 9567TIP3   OH252895   8.202   4.691   8.554  0.8315  0.3912  0.6635
 9567TIP3    H152896   8.152   4.730   8.625  0.7248  0.1038  0.7464
 9567TIP3    H252897   8.218   4.764   8.493 -0.4446  0.3065  0.1986
 9568TIP3   OH252898   8.053   1.701   8.236  0.0116 -0.5189 -0.3567
 9568TIP3    H152899   8.004   1.723   8.315  0.3586 -0.9896 -0.0115
 9568TIP3    H252900   8.135   1.665   8.267  1.0511  1.2269 -0.9287
 9569TIP3   OH252901   1.739   3.706   7.736  0.1161  0.2254  0.1541
 9569TIP3    H152902   1.756   3.612   7.733 -1.7130 -0.1555  0.4354
 9569TIP3    H252903   1.776   3.734   7.820  0.5753 -0.2586  0.1197
 9570TIP3   OH252904   7.999   8.356   8.593 -0.1397 -0.2933  0.1936
 9570TIP3    H152905   8.039   8.369   8.679 -0.6537  0.3761  0.3493
 9570TIP3    H252906   7.991   8.261   8.584 -1.9292 -0.3589  1.7844
 9571TIP3   OH252907   0.047   5.224   8.859 -0.7950 -0.1759 -0.3480
 9571TIP3    H152908   0.027   5.151   8.799  1.8194 -1.3520  0.0907
 9571TIP3    H252909   0.039   5.302   8.804 -1.1701 -0.9883 -1.5003
 9572TIP3   OH252910   8.047   1.265   8.344 -0.0822  0.3857 -0.2831
 9572TIP3    H152911   8.099   1.294   8.419  0.0782 -2.1190  0.6898
 9572TIP3    H252912   8.101   1.285   8.268  1.1624  0.2222  0.5251
 9573TIP3   OH252913   1.084   4.317   9.030 -0.4159  0.3218 -0.2681
 9573TIP3    H152914   1.123   4.392   8.986 -2.2118  1.5258  0.1043
 9573TIP3    H252915   0.991   4.320   9.006 -0.7705 -1.0371  0.7793
 9574TIP3   OH252916   4.706   1.907   8.950  0.5121 -0.0286  0.6279
 9574TIP3    H152917   4.656   1.985   8.972 -0.2863 -0.0607 -0.9017
 9574TIP3    H252918   4.652   1.834   8.982  1.3968  0.0123  2.3207
 9575TIP3   OH252919   6.305   4.473   7.781 -0.3864  0.3633 -0.0961
 9575TIP3    H152920   6.210   4.474   7.775 -0.5466 -0.8356  1.4668
 9575TIP3    H252921   6.325   4.526   7.858  0.0742 -0.5952  0.4695
 9576TIP3   OH252922   5.506   4.275   9.996 -0.2494  0.9369 -0.5556
 9576TIP3    H152923   5.515   4.327   9.916  1.2820 -0.2488 -1.2155
 9576TIP3    H252924   5.591   4.232  10.006 -1.8276 -2.5930 -0.9208
 9577TIP3   OH252925   5.949   3.844   8.343  0.3897 -0.1958 -0.3108
 9577TIP3    H152926   5.969   3.811   8.256  0.8696  0.0965 -0.3167
 9577TIP3    H252927   5.900   3.925   8.327 -0.7846 -0.8941 -0.2970
 9578TIP3   OH252928   1.515   0.526   8.841 -0.4110 -0.5841  0.9853
 9578TIP3    H152929   1.428   0.566   8.850  0.1897  1.2110 -0.4739
 9578TIP3    H252930   1.573   0.582   8.893  0.5102  0.7927 -1.3604
 9579TIP3   OH252931   7.011   3.470   9.474  0.0199  0.0613 -0.0521
 9579TIP3    H152932   7.044   3.492   9.562 -1.2177  1.0429  0.2073
 9579TIP3    H252933   6.916   3.485   9.480  0.1693  2.8183 -2.2561
 9580TIP3   OH252934   7.322   3.396   8.007 -0.6919 -0.2522 -0.0558
 9580TIP3    H152935   7.279   3.396   8.092 -0.5711  0.1280  0.0074
 9580TIP3    H252936   7.287   3.319   7.962 -1.4342  0.0542 -0.0071
 9581TIP3   OH252937   6.408   3.496   8.137  0.0377 -0.0961  0.4152
 9581TIP3    H152938   6.343   3.537   8.080  0.2612  1.4509  1.2204
 9581TIP3    H252939   6.479   3.471   8.077 -0.9617 -1.1499 -0.3647
 9582TIP3   OH252940   4.583   1.194   8.651  0.3380 -0.2550  0.6342
 9582TIP3    H152941   4.539   1.145   8.721 -0.2710 -2.0889 -0.9475
 9582TIP3    H252942   4.515   1.207   8.585  1.2226  0.3542 -0.1695
 9583TIP3   OH252943   2.772   0.969   8.393  0.1413  0.4908 -0.0573
 9583TIP3    H152944   2.727   0.939   8.472  0.5344 -1.5614 -0.5588
 9583TIP3    H252945   2.765   0.896   8.332  2.5526  0.8073 -0.8208
 9584TIP3   OH252946   7.813   4.054   8.232  0.1096  0.4703  0.2010
 9584TIP3    H152947   7.789   4.100   8.151 -0.3829  0.3820  0.2963
 9584TIP3    H252948   7.901   4.021   8.215 -0.3946 -0.4729 -0.7122
 9585TIP3   OH252949   2.890   2.016   7.840  0.3362 -0.1040  0.2573
 9585TIP3    H152950   2.899   1.921   7.826  1.0810 -0.2333  1.4495
 9585TIP3    H252951   2.928   2.031   7.926  0.3579  1.3187  0.0237
 9586TIP3   OH252952   1.753   2.597   8.530 -0.8647  0.1185  0.1020
 9586TIP3    H152953   1.781   2.636   8.447  1.1173  0.1933  0.7636
 9586TIP3    H252954   1.829   2.604   8.587 -1.3194 -2.2467  1.1306
 9587TIP3   OH252955   1.424   0.832   8.578 -0.5195 -0.0562  0.0278
 9587TIP3    H152956   1.346   0.861   8.626 -0.0798 -1.5374  1.7910
 9587TIP3    H252957   1.484   0.906   8.583 -0.1695 -0.4058  2.6581
 9588TIP3   OH252958   3.911   5.149   7.950 -0.3576  0.2659 -0.4381
 9588TIP3    H152959   3.925   5.243   7.948 -0.1231  0.2325 -0.4516
 9588TIP3    H252960   3.937   5.119   7.863  0.9638  0.0068  0.0154
 9589TIP3   OH252961   1.045   0.787   9.020  0.3443  0.3591  0.4205
 9589TIP3    H152962   0.992   0.865   9.002  1.7977  1.0802 -0.8940
 9589TIP3    H252963   0.996   0.715   8.980 -0.8703  0.5972  1.4088
 9590TIP3   OH252964   0.683   5.593   7.961 -0.1174 -0.3288  0.3719
 9590TIP3    H152965   0.696   5.677   8.005 -1.5550  0.2656 -0.2753
 9590TIP3    H252966   0.594   5.598   7.926  0.7756 -0.9207 -2.2081
 9591TIP3   OH252967   0.046   2.285   7.699  0.1125  0.1364 -0.1849
 9591TIP3    H152968  -0.037   2.330   7.682 -0.4945  0.2091  2.5155
 9591TIP3    H252969   0.027   2.192   7.681 -0.1720  0.2968 -0.7437
 9592TIP3   OH252970   5.817   6.589   8.957  0.1920  0.2817 -0.1892
 9592TIP3    H152971   5.750   6.575   9.025  0.8755  2.3987  1.0309
 9592TIP3    H252972   5.813   6.683   8.939  0.8642 -0.0343 -2.2592
 9593TIP3   OH252973   0.405   3.814   9.760 -0.1359 -0.0121  0.5947
 9593TIP3    H152974   0.340   3.883   9.770  1.0045  0.9395  1.7722
 9593TIP3    H252975   0.489   3.860   9.756  0.5926 -1.2871  0.5953
 9594TIP3   OH252976   5.085   8.214   8.912 -0.3162 -0.0228  0.0291
 9594TIP3    H152977   5.067   8.161   8.989  0.0049  0.6741  0.6026
 9594TIP3    H252978   5.003   8.215   8.864 -0.0392 -1.8683 -0.5351
 9595TIP3   OH252979   7.836   0.810   8.596  0.3202 -0.1906  0.2306
 9595TIP3    H152980   7.808   0.784   8.684 -1.1210  0.6951  0.0759
 9595TIP3    H252981   7.897   0.742   8.569 -1.0113 -1.7803  1.0009
 9596TIP3   OH252982   0.705   8.412   7.642 -0.0538  0.0601  0.4151
 9596TIP3    H152983   0.746   8.432   7.726  1.3349 -1.0473  0.0478
 9596TIP3    H252984   0.779   8.388   7.585 -1.0869 -0.5071 -0.7194
 9597TIP3   OH252985   7.170   0.332   8.978  0.6543  0.5995 -0.2477
 9597TIP3    H152986   7.163   0.380   8.895 -0.0089  0.0403 -0.5200
 9597TIP3    H252987   7.263   0.337   9.001  1.2060 -0.8532 -1.9938
 9598TIP3   OH252988   1.486   8.352   8.810  0.2525  0.9822  0.3330
 9598TIP3    H152989   1.457   8.359   8.719  0.4636 -1.6503 -0.0060
 9598TIP3    H252990   1.417   8.395   8.861 -1.1667  0.2319 -0.9049
 9599TIP3   OH252991   6.328   5.819   9.327 -0.0636  0.1051 -0.2801
 9599TIP3    H152992   6.416   5.856   9.334  0.3508 -0.7746 -0.6236
 9599TIP3    H252993   6.329   5.744   9.387 -0.7061  0.3025 -0.0072
 9600TIP3   OH252994   5.623   6.528   9.171 -0.2554  0.3808  0.0062
 9600TIP3    H152995   5.617   6.437   9.200  1.4005  0.2931  0.1472
 9600TIP3    H252996   5.534   6.561   9.180 -0.7528 -1.0243  0.6146
 9601TIP3   OH252997   3.413   2.580   9.292 -0.3055  0.0202 -0.0362
 9601TIP3    H152998   3.486   2.642   9.300  0.6445 -1.2532  1.8358
 9601TIP3    H252999   3.335   2.634   9.298  0.4876  1.1452  0.4900
 9602TIP3   OH253000   7.288   7.678  10.455 -0.0914  0.3008  0.4263
 9602TIP3    H153001   7.311   7.604  10.512  1.2041  0.6752  0.4188
 9602TIP3    H253002   7.358   7.741  10.469 -0.0168  0.6158 -1.2146
 9603TIP3   OH253003   7.460   3.931   9.746 -0.3779 -0.8440  0.1251
 9603TIP3    H153004   7.543   3.890   9.773 -0.0830 -1.3559 -1.4639
 9603TIP3    H253005   7.487   4.015   9.709 -0.7052 -0.4642  0.7404
 9604TIP3   OH253006   7.286   3.678   7.759  0.3494  0.1463  0.1573
 9604TIP3    H153007   7.239   3.725   7.690  0.6564  2.3361  1.3366
 9604TIP3    H253008   7.218   3.654   7.823 -0.1059 -2.8157 -1.2635
 9605TIP3   OH253009   1.331   4.264   8.361  0.3581 -0.0833  0.0494
 9605TIP3    H153010   1.262   4.200   8.376 -0.6874  0.7819 -0.8796
 9605TIP3    H253011   1.347   4.303   8.447 -1.7112  1.0540 -0.0104
 9606TIP3   OH253012   4.768   7.134   8.925  0.0412  0.2509  0.5999
 9606TIP3    H153013   4.751   7.070   8.994 -3.9879 -0.7232 -0.9724
 9606TIP3    H253014   4.761   7.219   8.968 -1.5231 -0.3480  1.6329
 9607TIP3   OH253015   2.361   2.587   7.708 -0.1386 -0.1645 -0.2711
 9607TIP3    H153016   2.279   2.568   7.753 -1.3131  0.8356 -1.9070
 9607TIP3    H253017   2.362   2.682   7.697  0.8519 -0.2405 -1.0042
 9608TIP3   OH253018   0.979   2.795   8.120 -0.1609 -0.4040 -0.0279
 9608TIP3    H153019   0.965   2.720   8.178 -0.9147  0.0776  0.4239
 9608TIP3    H253020   0.971   2.871   8.176 -1.9708  0.1223 -0.9186
 9609TIP3   OH253021   4.125   8.077   8.807  0.6245  0.0859  0.0590
 9609TIP3    H153022   4.097   7.986   8.800  0.1302  0.3236 -1.3565
 9609TIP3    H253023   4.081   8.109   8.886  0.0318 -0.6401  0.0422
 9610TIP3   OH253024   2.406   4.078   7.824 -0.4903 -0.3684  0.1997
 9610TIP3    H153025   2.398   4.163   7.866 -2.1115  1.9177 -4.0651
 9610TIP3    H253026   2.499   4.069   7.806 -0.4158  1.1324 -0.3019
 9611TIP3   OH253027   3.643   3.782   9.008  0.3270 -0.3291  0.1167
 9611TIP3    H153028   3.575   3.835   9.048  0.4000 -0.4664  0.4246
 9611TIP3    H253029   3.687   3.842   8.947 -0.1905 -0.2946 -0.2261
 9612TIP3   OH253030   5.650   4.633   9.549 -0.4319  0.9369  0.3051
 9612TIP3    H153031   5.685   4.722   9.551  1.3053  0.2881 -0.0562
 9612TIP3    H253032   5.713   4.583   9.498 -1.4395 -0.4959  0.4033
 9613TIP3   OH253033   6.382   4.146   7.582 -0.0109  0.0220 -0.2964
 9613TIP3    H153034   6.338   4.220   7.624 -0.4338 -1.2734  1.6825
 9613TIP3    H253035   6.476   4.164   7.593 -0.0364  1.2567 -1.7461
 9614TIP3   OH253036   4.382   6.486   8.553  0.0067  0.7719  0.6395
 9614TIP3    H153037   4.322   6.437   8.608  0.5754  0.1162  0.6827
 9614TIP3    H253038   4.466   6.483   8.599  0.6987 -0.4876 -0.6308
 9615TIP3   OH253039   4.092   5.970   8.731  0.0041  0.2518  0.4025
 9615TIP3    H153040   4.007   6.001   8.697 -0.6138  0.3298  1.9234
 9615TIP3    H253041   4.129   6.047   8.775 -0.7537 -0.6123  2.7258
 9616TIP3   OH253042   0.341   1.514   7.950 -0.2582  1.0026  0.4275
 9616TIP3    H153043   0.398   1.587   7.926 -0.0369  0.9153  0.6957
 9616TIP3    H253044   0.341   1.458   7.872 -1.6142  2.0268 -0.3583
 9617TIP3   OH253045   5.471   3.052   8.853 -0.3385 -0.6143  0.0250
 9617TIP3    H153046   5.492   3.033   8.944  0.8319  0.2998 -0.0277
 9617TIP3    H253047   5.511   3.138   8.836  0.7529 -1.4150 -1.7488
 9618TIP3   OH253048   0.802   3.396   7.996  0.1309 -0.5539 -0.1779
 9618TIP3    H153049   0.805   3.483   7.956 -0.3108  0.0281  1.0114
 9618TIP3    H253050   0.867   3.345   7.947  1.3677  0.8147 -0.0222
 9619TIP3   OH253051   2.149   3.564   9.384  0.1056  0.2123  0.4182
 9619TIP3    H153052   2.114   3.651   9.368  0.3187  0.4653  1.2660
 9619TIP3    H253053   2.109   3.537   9.467  1.2955  0.2026  1.0124
 9620TIP3   OH253054   6.090   7.119   9.835 -0.0410  0.1591 -0.0978
 9620TIP3    H153055   6.122   7.204   9.866 -0.3794  0.5959 -0.9237
 9620TIP3    H253056   6.087   7.064   9.914  3.3058 -0.1118 -0.0423
 9621TIP3   OH253057   1.313   2.201   7.676  0.2638 -0.0200  0.1274
 9621TIP3    H153058   1.290   2.133   7.740  1.1431 -0.8604 -0.4121
 9621TIP3    H253059   1.409   2.200   7.673  0.2931  1.2158  0.0539
 9622TIP3   OH253060   8.007   7.750   7.892 -0.1918 -0.1890 -0.3688
 9622TIP3    H153061   8.094   7.759   7.852  0.4104  4.2660  1.3195
 9622TIP3    H253062   7.946   7.753   7.819  0.9614 -2.2925 -1.5093
 9623TIP3   OH253063   6.241   6.209   8.213 -0.7041  0.2317 -0.1839
 9623TIP3    H153064   6.226   6.231   8.121  2.3744 -0.1423 -0.8736
 9623TIP3    H253065   6.181   6.136   8.230 -2.0171  0.9363 -1.5706
 9624TIP3   OH253066   8.168   6.986   9.574 -0.4637 -0.0334 -0.5877
 9624TIP3    H153067   8.209   6.899   9.571  0.1208  0.2418 -0.6541
 9624TIP3    H253068   8.234   7.045   9.540  0.2475  0.8826  2.1215
 9625TIP3   OH253069   0.461   4.279   8.338 -0.5255 -0.0831  0.1691
 9625TIP3    H153070   0.518   4.339   8.385 -0.0165  0.7822 -1.4447
 9625TIP3    H253071   0.484   4.192   8.371  1.5276  0.2677 -0.2044
 9626TIP3   OH253072   5.366   0.628   9.237  0.3055  0.8622 -0.1952
 9626TIP3    H153073   5.339   0.719   9.222  1.2684  0.9435 -1.5945
 9626TIP3    H253074   5.296   0.591   9.291 -1.7144  1.5661 -2.1537
 9627TIP3   OH253075   4.703   3.789   9.034 -0.3480  0.0569 -0.5005
 9627TIP3    H153076   4.735   3.738   8.960  0.6447 -0.5649  0.3299
 9627TIP3    H253077   4.612   3.759   9.046 -1.1609  1.4711 -2.5568
 9628TIP3   OH253078   3.990   0.332   7.936  0.4134  0.3719 -0.4384
 9628TIP3    H153079   4.036   0.269   7.992 -0.9507 -1.5126 -1.3172
 9628TIP3    H253080   4.030   0.321   7.850 -0.7476 -0.3459 -0.9119
 9629TIP3   OH253081   1.147   2.611   8.946  0.3283 -0.1053  0.4423
 9629TIP3    H153082   1.065   2.630   8.902  0.5490 -0.3840 -0.0943
 9629TIP3    H253083   1.189   2.545   8.892  0.2063 -1.1141  1.5403
 9630TIP3   OH253084   6.249   2.960   8.992  0.6301 -0.0129  0.2966
 9630TIP3    H153085   6.262   2.865   8.996 -0.6177 -0.2366 -0.5316
 9630TIP3    H253086   6.182   2.978   9.057  0.9996  0.3343  0.5832
 9631TIP3   OH253087   4.625   4.023   8.091 -0.0001 -0.0158  0.3786
 9631TIP3    H153088   4.670   4.100   8.058 -2.1101  0.4886 -1.5529
 9631TIP3    H253089   4.563   4.057   8.156 -1.1225 -0.0148 -0.6681
 9632TIP3   OH253090   0.228   1.872   9.846 -0.2168  0.4668  0.3069
 9632TIP3    H153091   0.154   1.828   9.888 -0.9123 -1.2421 -2.4383
 9632TIP3    H253092   0.226   1.961   9.882 -3.7133  0.5499  0.2713
 9633TIP3   OH253093   3.645   3.130   8.777 -0.3086  0.0077  0.2199
 9633TIP3    H153094   3.706   3.198   8.807 -0.6739  0.2665  0.3829
 9633TIP3    H253095   3.696   3.079   8.714  0.0465  0.2839  0.2765
 9634TIP3   OH253096   6.763   6.245   9.631 -0.2214  0.2527  0.2156
 9634TIP3    H153097   6.727   6.334   9.621 -0.2211  0.4263  1.5409
 9634TIP3    H253098   6.794   6.222   9.544 -2.8274  0.4025 -0.8466
 9635TIP3   OH253099   7.964   6.963   8.267 -0.0584  0.4133  0.0110
 9635TIP3    H153100   7.879   6.923   8.282  0.3588 -1.1986 -1.6600
 9635TIP3    H253101   7.948   7.028   8.198 -0.3421  1.8519  1.3561
 9636TIP3   OH253102   6.097   3.069   8.013  0.7643  0.1005 -0.2111
 9636TIP3    H153103   6.192   3.076   8.021  0.6415  0.8892  0.8376
 9636TIP3    H253104   6.075   3.130   7.942  1.0791 -0.4795 -0.8190
 9637TIP3   OH253105   4.352   3.665   8.532 -0.1257 -0.1545 -0.3499
 9637TIP3    H153106   4.419   3.691   8.596  1.4541 -0.9411 -1.6268
 9637TIP3    H253107   4.320   3.581   8.564 -1.1585  0.6109  0.7170
 9638TIP3   OH253108   2.841   2.924   7.689  0.8690  0.2896  0.4952
 9638TIP3    H153109   2.852   2.829   7.684  2.8000  0.5541 -1.1703
 9638TIP3    H253110   2.780   2.945   7.618  0.0454  0.2693  1.1804
 9639TIP3   OH253111   0.686   3.832   7.986  0.1120  0.6090  0.0260
 9639TIP3    H153112   0.754   3.868   7.929  0.7045  0.5716  0.6948
 9639TIP3    H253113   0.623   3.904   7.997  0.0224  0.6333 -0.6175
 9640TIP3   OH253114   5.626   8.336   9.964  0.2187 -0.1671 -0.0589
 9640TIP3    H153115   5.685   8.379  10.026  1.7723  0.9544 -2.1563
 9640TIP3    H253116   5.611   8.249  10.001  0.8503  0.5365  1.9746
 9641TIP3   OH253117   4.522   3.450   7.564  0.3528  0.1161  0.0098
 9641TIP3    H153118   4.441   3.400   7.549 -0.4561  1.1030  0.9225
 9641TIP3    H253119   4.498   3.541   7.548  1.1149  0.4914  0.8907
 9642TIP3   OH253120   2.321   4.093   8.589 -0.2357 -0.0733  0.2515
 9642TIP3    H153121   2.399   4.052   8.554  0.2904 -1.7217  2.9952
 9642TIP3    H253122   2.264   4.106   8.514  2.1177 -0.0616 -1.6274
 9643TIP3   OH253123   0.418   4.686   7.842  0.0020 -0.1913  0.0760
 9643TIP3    H153124   0.416   4.610   7.783  0.7637  1.5553 -2.4109
 9643TIP3    H253125   0.338   4.735   7.822  1.6958  2.0218 -2.0129
 9644TIP3   OH253126   6.846   3.066   7.981 -0.0256  0.0396 -0.5665
 9644TIP3    H153127   6.813   2.982   7.950 -1.2975  0.1188  0.5078
 9644TIP3    H253128   6.895   3.044   8.060 -0.8046  0.3557  0.0122
 9645TIP3   OH253129   5.848   0.105  10.318  0.1027  0.6253 -0.4117
 9645TIP3    H153130   5.877   0.052  10.244 -0.4613 -0.3373  0.0398
 9645TIP3    H253131   5.879   0.058  10.395 -1.3567  0.3241  0.0332
 9646TIP3   OH253132   2.977   7.133   9.800 -0.3879 -0.4374  0.3929
 9646TIP3    H153133   2.882   7.127   9.788 -0.5628  1.9615 -0.0340
 9646TIP3    H253134   3.001   7.215   9.756  1.8495 -0.8558  0.7188
 9647TIP3   OH253135   5.400   5.595   8.283  0.3995  0.1293  0.2076
 9647TIP3    H153136   5.468   5.655   8.315 -0.7123  1.4725  0.1741
 9647TIP3    H253137   5.318   5.636   8.311 -0.4469 -0.7223 -0.9590
 9648TIP3   OH253138   5.924   7.275   9.411  0.5345  0.3196 -0.0063
 9648TIP3    H153139   5.962   7.198   9.454  0.4971 -0.3897 -1.2000
 9648TIP3    H253140   5.886   7.325   9.483  0.4745 -0.8196  0.7968
 9649TIP3   OH253141   5.159   5.035   9.692 -0.5599 -0.7811 -0.4217
 9649TIP3    H153142   5.159   4.962   9.754  0.0014 -0.5005 -0.0779
 9649TIP3    H253143   5.179   5.111   9.746 -0.1303 -0.5206 -0.9398
 9650TIP3   OH253144   5.460   5.627   9.590 -0.4672  0.0957  0.0110
 9650TIP3    H153145   5.381   5.579   9.566 -1.5700  2.0282 -0.5060
 9650TIP3    H253146   5.512   5.565   9.640 -1.1766 -2.0021 -1.7002
 9651TIP3   OH253147   2.995   2.500   8.278 -0.2524  0.1453 -0.2750
 9651TIP3    H153148   3.005   2.448   8.198  1.9933 -0.8404  0.5513
 9651TIP3    H253149   2.967   2.436   8.344 -0.2017  0.5551  0.1425
 9652TIP3   OH253150   7.027   3.794   7.767  0.3458  0.0994  0.0196
 9652TIP3    H153151   7.051   3.714   7.814  3.4056  1.1305  0.4625
 9652TIP3    H253152   6.933   3.802   7.781  0.6140 -1.1192  3.7380
 9653TIP3   OH253153   2.116   0.686   7.933 -0.0933 -0.3607  0.2536
 9653TIP3    H153154   2.060   0.641   7.869 -0.4137  0.5234 -0.1089
 9653TIP3    H253155   2.060   0.754   7.970  0.1990 -0.6425  1.2379
 9654TIP3   OH253156   3.832   7.549   8.559  0.0468  0.2885 -0.3373
 9654TIP3    H153157   3.781   7.627   8.538  0.1715  0.2217 -0.8923
 9654TIP3    H253158   3.879   7.528   8.478 -1.3444 -1.4245 -0.7524
 9655TIP3   OH253159   3.896   5.966   9.101 -0.3508  0.4370 -0.2871
 9655TIP3    H153160   3.852   5.992   9.020 -1.5511  2.7097  0.9908
 9655TIP3    H253161   3.832   5.985   9.170  1.4803  0.8279  1.3863
 9656TIP3   OH253162   5.479   4.551   8.006  0.4242  0.1963  0.0005
 9656TIP3    H153163   5.453   4.620   8.068  0.0919  1.2857 -1.3172
 9656TIP3    H253164   5.573   4.541   8.020  0.4329  0.7340  0.3718
 9657TIP3   OH253165   2.212   5.176   7.899  0.6834 -0.4482 -0.2869
 9657TIP3    H153166   2.117   5.192   7.898  0.8243  0.4222 -0.5492
 9657TIP3    H253167   2.247   5.245   7.954  1.3380  0.2566 -1.5478
 9658TIP3   OH253168   0.705   7.680   8.142  0.5509 -0.0529  0.0879
 9658TIP3    H153169   0.762   7.725   8.204  0.1303  0.5435  0.0537
 9658TIP3    H253170   0.644   7.748   8.112  0.4998 -0.4279 -0.6753
 9659TIP3   OH253171   4.475   8.303   9.575 -0.0475 -0.4584  0.0519
 9659TIP3    H153172   4.560   8.280   9.612 -1.1303  0.6713  3.5623
 9659TIP3    H253173   4.422   8.223   9.584  0.2409 -0.7936 -1.0345
 9660TIP3   OH253174   0.924   5.837   8.026  0.1904 -0.0675  0.0719
 9660TIP3    H153175   0.939   5.805   7.937  1.0683 -1.5318  0.7107
 9660TIP3    H253176   0.875   5.918   8.015  1.8117  0.7282 -1.8272
 9661TIP3   OH253177   5.996   4.723   9.319 -0.0185 -0.7457 -0.2760
 9661TIP3    H153178   5.929   4.661   9.348  0.5347 -0.9406  0.5973
 9661TIP3    H253179   6.062   4.722   9.388  0.9002 -0.5644 -1.1235
 9662TIP3   OH253180   7.849   5.873   8.726 -0.4898 -1.0846  0.4196
 9662TIP3    H153181   7.768   5.835   8.761  0.2985 -0.7349  2.8127
 9662TIP3    H253182   7.884   5.925   8.798  0.4807  1.0516 -1.4606
 9663TIP3   OH253183   5.391   2.086   9.345 -0.5708 -0.1903 -0.5835
 9663TIP3    H153184   5.484   2.074   9.326 -0.5114  0.4083 -0.6859
 9663TIP3    H253185   5.368   2.010   9.398  0.2677  0.2377  0.4482
 9664TIP3   OH253186   7.296   1.452   8.363  0.0140 -1.2514 -0.3432
 9664TIP3    H153187   7.378   1.495   8.341 -0.9354  0.7677 -0.1313
 9664TIP3    H253188   7.286   1.467   8.457 -1.3731  0.0317 -0.6529
 9665TIP3   OH253189   2.787   3.862   9.615 -0.3013 -0.1802 -0.0485
 9665TIP3    H153190   2.728   3.925   9.656  1.5671  0.6090  1.5939
 9665TIP3    H253191   2.870   3.908   9.605  1.0234 -2.1956  0.8254
 9666TIP3   OH253192   8.399   2.159   9.954 -0.4469 -0.2844 -0.7206
 9666TIP3    H153193   8.409   2.199   9.868 -0.6108 -0.0815 -0.6460
 9666TIP3    H253194   8.459   2.208  10.010 -0.7588 -0.0384 -0.5958
 9667TIP3   OH253195   5.224   7.750   8.626 -0.0858 -0.4200 -0.6376
 9667TIP3    H153196   5.270   7.693   8.688  1.3888  1.1539 -0.2136
 9667TIP3    H253197   5.165   7.801   8.681 -0.0594 -0.2472 -0.7713
 9668TIP3   OH253198   2.726   8.023   7.834 -0.0821 -0.5095 -0.3607
 9668TIP3    H153199   2.770   7.974   7.902  0.2952 -0.4430 -0.5517
 9668TIP3    H253200   2.789   8.091   7.809 -0.5141 -0.0643 -0.2441
 9669TIP3   OH253201   4.061   6.644   9.058  0.1689  0.1462  0.2432
 9669TIP3    H153202   4.094   6.607   8.976  0.0107 -0.8862  0.6270
 9669TIP3    H253203   4.034   6.567   9.110 -1.6012  0.8672  0.4729
 9670TIP3   OH253204   6.483   0.444   8.410 -0.6557  0.0982 -0.2589
 9670TIP3    H153205   6.554   0.505   8.428 -0.4853 -0.5359  1.3656
 9670TIP3    H253206   6.414   0.498   8.372 -0.0800  1.0757  0.0600
 9671TIP3   OH253207   8.397   4.577   8.257 -0.3159 -0.1667 -0.0890
 9671TIP3    H153208   8.362   4.659   8.223  0.3451  0.2230  0.1445
 9671TIP3    H253209   8.426   4.598   8.346  0.0935 -0.5852 -0.1197
 9672TIP3   OH253210   1.405   2.273   8.828  0.1753 -0.4915  0.5652
 9672TIP3    H153211   1.382   2.255   8.919 -3.5876 -1.6283 -0.4368
 9672TIP3    H253212   1.413   2.186   8.788 -1.5020 -0.0562 -0.8282
 9673TIP3   OH253213   7.510   1.083   8.752  0.0254 -0.2449  0.3461
 9673TIP3    H153214   7.523   1.051   8.841  3.0814  1.6758  0.7499
 9673TIP3    H253215   7.534   1.176   8.756 -0.0601 -0.0035 -2.4322
 9674TIP3   OH253216   8.126   4.566   9.657  0.1028  0.1265  0.3115
 9674TIP3    H153217   8.190   4.512   9.704  1.7536  0.4804 -1.3827
 9674TIP3    H253218   8.167   4.653   9.652 -0.6793  0.4655 -0.4992
 9675TIP3   OH253219   5.447   1.967   8.865  0.6298 -0.5178  0.2035
 9675TIP3    H153220   5.388   1.939   8.794  0.0261  0.0065  0.4841
 9675TIP3    H253221   5.467   2.058   8.844 -0.4724  0.0094  1.2922
 9676TIP3   OH253222   3.153   4.643   8.778  0.6049 -0.0432  0.3076
 9676TIP3    H153223   3.180   4.735   8.789  0.3529 -0.0201  0.7101
 9676TIP3    H253224   3.058   4.644   8.790  0.6332 -0.3986  0.5545
 9677TIP3   OH253225   5.800   5.823   8.712  0.3030 -0.1907 -0.2644
 9677TIP3    H153226   5.709   5.851   8.716  0.4209  0.1085  0.5626
 9677TIP3    H253227   5.816   5.781   8.797  0.7823 -0.7190 -0.6095
 9678TIP3   OH253228   8.436   3.343   9.290  0.3009  0.3799 -0.0538
 9678TIP3    H153229   8.524   3.331   9.324  0.9291 -1.1805 -2.0344
 9678TIP3    H253230   8.378   3.321   9.364  1.5613 -1.0471  0.5407
 9679TIP3   OH253231   1.253   8.183   9.658  0.6893  0.5200  0.1370
 9679TIP3    H153232   1.288   8.169   9.571  2.0681  0.6785  0.6495
 9679TIP3    H253233   1.194   8.109   9.673  1.0283  0.0953 -0.6264
 9680TIP3   OH253234   2.417   2.887   8.344  0.7305 -0.2077  0.2187
 9680TIP3    H153235   2.420   2.833   8.422  0.7617 -0.7144 -0.1242
 9680TIP3    H253236   2.497   2.939   8.346  0.5946 -0.0196  0.6652
 9681TIP3   OH253237   6.630   3.060   9.048 -0.1282  0.1932 -0.5132
 9681TIP3    H153238   6.684   3.085   8.974  0.7405 -4.1405 -1.6143
 9681TIP3    H253239   6.691   3.051   9.121 -0.0973 -0.5566 -0.6304
 9682TIP3   OH253240   4.180   5.147   9.217  0.1019 -0.6675  0.4467
 9682TIP3    H153241   4.140   5.062   9.236  1.8007 -1.5991  0.0178
 9682TIP3    H253242   4.114   5.192   9.163 -1.6842 -0.8378  2.3439
 9683TIP3   OH253243   5.969   0.608   9.298  0.3446  0.0528 -0.7535
 9683TIP3    H153244   6.013   0.663   9.232  0.4629 -1.9352 -2.4284
 9683TIP3    H253245   5.914   0.549   9.246  0.7614 -1.8840  0.9082
 9684TIP3   OH253246   1.988   2.070   7.775  0.4230 -0.1119 -0.1204
 9684TIP3    H153247   1.916   2.008   7.767 -1.8130  2.4532 -1.6793
 9684TIP3    H253248   1.963   2.127   7.848  0.2827  1.4113 -1.3027
 9685TIP3   OH253249   5.928   2.521   8.553 -0.4987 -0.1464 -0.0088
 9685TIP3    H153250   5.957   2.528   8.644 -1.6723  0.0497  0.3680
 9685TIP3    H253251   5.894   2.608   8.533  0.4213  0.0226 -0.8842
 9686TIP3   OH253252   0.289   3.001   7.784  0.1004  0.1163  0.3164
 9686TIP3    H153253   0.286   2.968   7.874  2.3674  0.4461  0.5905
 9686TIP3    H253254   0.340   2.936   7.736 -0.7231  0.1571 -0.6426
 9687TIP3   OH253255   1.732   6.259   8.437 -0.5945 -0.0665  0.6097
 9687TIP3    H153256   1.778   6.298   8.511  0.5329  0.2117 -0.2105
 9687TIP3    H253257   1.716   6.331   8.376  0.1280 -0.5894 -0.2294
 9688TIP3   OH253258   6.912   3.204   8.590  0.4985 -0.5623 -0.0698
 9688TIP3    H153259   6.991   3.161   8.558 -0.3025 -1.9554 -0.2582
 9688TIP3    H253260   6.879   3.253   8.515 -0.0778 -1.8939 -0.7119
 9689TIP3   OH253261   6.804   8.235   8.281 -0.3473  0.1015  0.1793
 9689TIP3    H153262   6.873   8.269   8.338 -1.3702  1.3282  0.7123
 9689TIP3    H253263   6.830   8.263   8.193 -0.7625  1.6159  0.5183
 9690TIP3   OH253264   5.176   1.738   8.389 -0.5334  0.2129 -0.7538
 9690TIP3    H153265   5.151   1.712   8.301 -2.5056  0.3427 -0.2727
 9690TIP3    H253266   5.114   1.808   8.412  1.1776  1.5588  0.0209
 9691TIP3   OH253267   4.876   7.261   8.180  0.0716 -0.4441  0.4201
 9691TIP3    H153268   4.804   7.294   8.126  0.2918 -1.2842 -0.4385
 9691TIP3    H253269   4.884   7.323   8.252 -1.0762  0.0184  0.1675
 9692TIP3   OH253270   6.773   2.161   8.233  0.0058  0.3499 -0.1436
 9692TIP3    H153271   6.708   2.091   8.242 -1.7779  1.7584 -1.1771
 9692TIP3    H253272   6.773   2.205   8.318  0.0056 -0.0084  0.0407
 9693TIP3   OH253273   4.129   0.068   7.851  0.0320  0.0857 -0.1795
 9693TIP3    H153274   4.182  -0.005   7.818 -1.0162 -0.5474 -0.5276
 9693TIP3    H253275   4.147   0.070   7.945  1.0861  0.2489 -0.3694
 9694TIP3   OH253276   6.280   0.805   7.676 -0.4010 -0.3159 -0.3034
 9694TIP3    H153277   6.228   0.760   7.743  0.1340 -0.7074 -0.1451
 9694TIP3    H253278   6.218   0.863   7.632 -0.3827  1.5177  1.8858
 9695TIP3   OH253279   4.834   1.086   8.686 -0.1690  0.1143 -0.2584
 9695TIP3    H153280   4.750   1.120   8.653  0.8861  1.4736 -1.7133
 9695TIP3    H253281   4.858   1.148   8.756 -0.4872 -0.4412  0.3554
 9696TIP3   OH253282   1.522   6.818   8.787  0.1656 -0.1838 -0.0786
 9696TIP3    H153283   1.606   6.774   8.802  0.9728  1.9747  2.6487
 9696TIP3    H253284   1.546   6.905   8.757 -1.2768 -0.3643 -1.9198
 9697TIP3   OH253285   3.964   6.764   8.583  0.7644 -0.0897  0.8022
 9697TIP3    H153286   4.027   6.832   8.558  0.8109  0.0763  1.3584
 9697TIP3    H253287   4.016   6.700   8.631  1.0620 -1.3750 -1.1107
 9698TIP3   OH253288   7.209   2.881   8.451  0.0838 -0.3707 -0.5305
 9698TIP3    H153289   7.292   2.928   8.460 -0.2389 -0.2162  3.2181
 9698TIP3    H253290   7.234   2.789   8.445  0.5543 -0.2191 -0.9224
 9699TIP3   OH253291   1.657   1.775   8.249 -0.4282  0.2341  0.5698
 9699TIP3    H153292   1.586   1.777   8.313 -1.5460  0.1933 -0.6276
 9699TIP3    H253293   1.724   1.834   8.285 -1.2300  0.5894  1.5208
 9700TIP3   OH253294   0.381   0.247   9.813 -0.0916  0.1529  0.1613
 9700TIP3    H153295   0.314   0.207   9.758 -0.2539 -0.5424  0.8466
 9700TIP3    H253296   0.336   0.317   9.859  0.2059  1.2073 -1.0837
 9701TIP3   OH253297   8.410   4.806   7.604 -0.0797  0.4095  0.3021
 9701TIP3    H153298   8.396   4.898   7.585  1.0128  0.3621 -0.8331
 9701TIP3    H253299   8.497   4.802   7.643 -0.3229 -0.1023  0.8272
 9702TIP3   OH253300   6.089   0.310   8.115  0.2456 -0.4025 -0.0070
 9702TIP3    H153301   6.161   0.312   8.179  0.4273  1.1128 -0.2182
 9702TIP3    H253302   6.067   0.402   8.101 -2.5856 -0.8413  0.9518
 9703TIP3   OH253303   0.210   5.570   9.036  0.4163  0.0883  0.2292
 9703TIP3    H153304   0.141   5.636   9.034  1.7041  1.5187  0.9540
 9703TIP3    H253305   0.287   5.614   9.000  0.6200 -1.9887 -2.2684
 9704TIP3   OH253306   0.154   7.156   8.616  0.1595 -0.4821  0.2581
 9704TIP3    H153307   0.170   7.165   8.710 -1.9461 -1.6626  0.7810
 9704TIP3    H253308   0.067   7.117   8.610  0.2585 -0.4518 -2.1991
 9705TIP3   OH253309   2.934   3.624   8.516  0.0524  0.1757 -0.2805
 9705TIP3    H153310   2.967   3.694   8.460  1.3500  2.0484  2.5897
 9705TIP3    H253311   2.969   3.544   8.477 -2.7266  0.6787 -4.5680
 9706TIP3   OH253312   6.949   6.314   8.881 -0.7369 -0.1852 -0.5058
 9706TIP3    H153313   6.929   6.371   8.807 -0.4797 -1.0270 -1.2368
 9706TIP3    H253314   6.983   6.234   8.841  1.1366  0.0244  0.5996
 9707TIP3   OH253315   8.442   7.391   8.696  0.0031 -0.0261  0.6744
 9707TIP3    H153316   8.494   7.330   8.644  1.3444  0.3169  1.5661
 9707TIP3    H253317   8.406   7.452   8.632  0.0174 -0.7487 -0.0453
 9708TIP3   OH253318   2.853   5.878   8.579  0.9109 -0.0126 -0.0515
 9708TIP3    H153319   2.763   5.887   8.547  1.0599 -0.8745 -0.7701
 9708TIP3    H253320   2.852   5.799   8.633  1.1929  0.0741  0.0828
 9709TIP3   OH253321   4.550   3.453   8.924 -0.1909  0.0935  0.6541
 9709TIP3    H153322   4.619   3.513   8.895  1.3275 -1.0175  1.8516
 9709TIP3    H253323   4.478   3.511   8.949  1.0082  1.4147  1.1904
 9710TIP3   OH253324   4.494   4.052   9.292  1.4914  0.3802  0.3927
 9710TIP3    H153325   4.466   3.994   9.363  0.9638  0.8454  0.5630
 9710TIP3    H253326   4.465   4.008   9.212 -0.5368  1.2601  0.5892
 9711TIP3   OH253327   1.875   4.203   7.783  0.0128  0.1796 -0.3572
 9711TIP3    H153328   1.827   4.144   7.840  0.7609 -0.0277  0.0560
 9711TIP3    H253329   1.810   4.231   7.718 -0.2787 -1.3162 -0.7452
 9712TIP3   OH253330   7.453   2.042   8.879 -0.4551 -0.5163 -0.5831
 9712TIP3    H153331   7.522   2.039   8.946 -0.8217  0.2339 -0.1574
 9712TIP3    H253332   7.495   2.008   8.800  0.4751  0.1312 -0.3866
 9713TIP3   OH253333   6.830   4.539   8.106  0.6663  0.2689 -0.1957
 9713TIP3    H153334   6.809   4.487   8.183  0.8360 -1.4850 -1.2929
 9713TIP3    H253335   6.749   4.587   8.087 -0.1350 -1.0869 -0.2991
 9714TIP3   OH253336   1.505   4.472   8.274 -0.0089  0.0736  0.3986
 9714TIP3    H153337   1.556   4.428   8.342  0.9581 -2.0403 -1.5676
 9714TIP3    H253338   1.421   4.425   8.274 -0.1429  0.3128  0.3702
 9715TIP3   OH253339   1.067   4.137   9.972 -0.3919 -0.1684  0.1360
 9715TIP3    H153340   1.103   4.049   9.962  2.0846  0.8094 -0.1725
 9715TIP3    H253341   1.140   4.196   9.954 -1.6282  1.9738  1.6034
 9716TIP3   OH253342   7.703   3.917   8.940  0.0264 -0.4042 -0.6946
 9716TIP3    H153343   7.624   3.921   8.886 -0.8912 -0.1666  0.6242
 9716TIP3    H253344   7.677   3.956   9.023  1.3302 -0.9923  0.0144
 9717TIP3   OH253345   0.269   6.134   9.191  0.4302 -0.0343  0.2420
 9717TIP3    H153346   0.229   6.055   9.227 -1.0885 -0.1542 -1.5532
 9717TIP3    H253347   0.362   6.126   9.211  0.4290 -2.6629 -0.5059
 9718TIP3   OH253348   4.507   0.980   7.933 -0.0403  0.2787  0.1934
 9718TIP3    H153349   4.549   0.961   8.016  0.1939 -2.4752 -0.4694
 9718TIP3    H253350   4.578   0.981   7.869  0.2440  5.2711  0.2152
 9719TIP3   OH253351   5.391   6.758   9.456 -0.2214  0.2906 -0.0091
 9719TIP3    H153352   5.363   6.849   9.457 -1.8489 -0.1715 -0.4336
 9719TIP3    H253353   5.350   6.719   9.533  0.5008 -0.0713  0.1986
 9720TIP3   OH253354   5.118   3.761   8.291 -0.0409  0.1645  0.2405
 9720TIP3    H153355   5.207   3.797   8.292  0.2185 -0.4648  0.9218
 9720TIP3    H253356   5.108   3.721   8.205 -0.2274  1.5788 -0.4178
 9721TIP3   OH253357   7.577   2.565   8.013 -0.2255 -0.2577  0.1710
 9721TIP3    H153358   7.659   2.602   8.046  0.4119 -1.1596 -0.3684
 9721TIP3    H253359   7.588   2.564   7.918 -0.6511 -0.8670  0.1263
 9722TIP3   OH253360   5.617   6.252   9.233  0.7518  0.8690  0.1852
 9722TIP3    H153361   5.561   6.244   9.156  0.4591  0.1643  0.4637
 9722TIP3    H253362   5.690   6.192   9.216  0.7593  0.8193  0.3930
 9723TIP3   OH253363   1.414   3.050   9.545  0.0871 -0.2327 -0.3521
 9723TIP3    H153364   1.332   3.003   9.536  1.8050 -3.6369  0.3075
 9723TIP3    H253365   1.410   3.088   9.633  0.3067 -2.8945  0.8967
 9724TIP3   OH253366   5.180   4.345   7.652 -0.2407  0.2729 -0.0094
 9724TIP3    H153367   5.202   4.438   7.641 -1.2378  0.3648 -1.4898
 9724TIP3    H253368   5.111   4.345   7.719 -0.1666  0.5899  0.0697
 9725TIP3   OH253369   3.496   1.843   8.833  0.0713 -0.0778  0.3440
 9725TIP3    H153370   3.432   1.888   8.779  0.3155 -0.9404 -0.6870
 9725TIP3    H253371   3.458   1.844   8.921 -0.1096  1.7518  0.2803
 9726TIP3   OH253372   3.824   8.209   9.398 -0.5789  0.5569 -0.1284
 9726TIP3    H153373   3.918   8.219   9.414 -0.4862  0.2245 -0.4532
 9726TIP3    H253374   3.815   8.215   9.303 -1.2199  3.3215  0.0192
 9727TIP3   OH253375   2.004   4.065   8.504  0.2803  0.2076  0.1563
 9727TIP3    H153376   1.948   4.109   8.440 -1.8977 -0.6427  1.3791
 9727TIP3    H253377   2.027   4.133   8.567  0.1307  0.4423 -0.0394
 9728TIP3   OH253378   5.259   7.110   8.435 -0.0469  0.5689  0.2846
 9728TIP3    H153379   5.285   7.089   8.525 -0.2855  1.7021  0.6295
 9728TIP3    H253380   5.222   7.197   8.440  0.2895  0.8143 -0.9939
 9729TIP3   OH253381   1.242   4.518   8.950 -0.1572 -0.2257 -0.1421
 9729TIP3    H153382   1.230   4.612   8.958 -0.1080 -0.3824  2.3106
 9729TIP3    H253383   1.262   4.505   8.857  0.2093  2.1954 -0.4742
 9730TIP3   OH253384   2.394   5.722   7.689 -0.1202 -0.2185 -0.5505
 9730TIP3    H153385   2.345   5.801   7.712  0.4932  0.0753 -0.2227
 9730TIP3    H253386   2.404   5.675   7.771 -1.3050 -1.1252 -0.9037
 9731TIP3   OH253387   2.158   5.132   9.384 -0.6987 -0.0323 -0.1548
 9731TIP3    H153388   2.206   5.211   9.358  1.6521 -0.9352  1.1897
 9731TIP3    H253389   2.159   5.077   9.305  1.6340 -0.5219  0.1406
 9732TIP3   OH253390   4.270   2.313   8.444  0.0796 -0.2899  0.1257
 9732TIP3    H153391   4.236   2.302   8.355  1.8139  0.2348 -0.6327
 9732TIP3    H253392   4.220   2.250   8.496  0.3593 -2.0118 -1.5633
 9733TIP3   OH253393   7.414   7.810   8.837 -0.4293  0.2300 -0.1389
 9733TIP3    H153394   7.333   7.794   8.789 -2.1300  1.2533  2.2164
 9733TIP3    H253395   7.396   7.781   8.926  1.2731  1.8709  0.8177
 9734TIP3   OH253396   2.237   5.019   8.350 -0.0225 -0.3710  0.2310
 9734TIP3    H153397   2.314   5.004   8.295 -0.4812 -0.4720 -0.3907
 9734TIP3    H253398   2.227   4.938   8.399 -1.2821 -1.4234 -1.6278
 9735TIP3   OH253399   7.887   2.111  10.070  0.3857  0.3709  0.1546
 9735TIP3    H153400   7.804   2.147  10.037  1.2463  2.8678  0.5482
 9735TIP3    H253401   7.954   2.169  10.035  1.8519 -0.6837  1.1271
 9736TIP3   OH253402   3.680   0.183   7.887  0.0526  0.2751 -0.7764
 9736TIP3    H153403   3.730   0.242   7.944 -1.2705  0.7617 -0.0870
 9736TIP3    H253404   3.744   0.119   7.857  1.2394  1.2754 -0.4719
 9737TIP3   OH253405   3.730   5.085   8.921  0.2674  0.4677  0.4090
 9737TIP3    H153406   3.704   5.009   8.972  0.2846 -0.0528 -0.3366
 9737TIP3    H253407   3.768   5.049   8.841  0.4080  1.2573  0.1041
 9738TIP3   OH253408   1.265   8.353   8.190  0.2460  0.4868  0.1723
 9738TIP3    H153409   1.349   8.398   8.189  0.1013  0.8193  1.3579
 9738TIP3    H253410   1.202   8.420   8.216  0.1428 -0.4999  2.7556
 9739TIP3   OH253411   6.869   4.257   9.544 -0.4267 -0.7629  0.2855
 9739TIP3    H153412   6.935   4.259   9.475 -0.1627 -0.7798  0.5354
 9739TIP3    H253413   6.919   4.248   9.625 -0.7085 -0.2579  0.5194
 9740TIP3   OH253414   2.768   7.896   8.347 -0.4566  0.4256  0.1034
 9740TIP3    H153415   2.831   7.963   8.375 -1.3142  1.1245  0.4347
 9740TIP3    H253416   2.807   7.813   8.373 -0.2879  0.9322  1.5626
 9741TIP3   OH253417   7.986   0.489  10.285  0.3563 -0.3388  0.6821
 9741TIP3    H153418   8.063   0.532  10.248  0.8585  0.1916  2.2688
 9741TIP3    H253419   7.934   0.560  10.322 -2.0753 -0.3933 -2.2369
 9742TIP3   OH253420   5.887   8.414  10.086  0.5713 -0.5158 -0.1180
 9742TIP3    H153421   5.874   8.394   9.994  0.2276  0.8985 -0.3984
 9742TIP3    H253422   5.958   8.356  10.113  1.0886 -0.5301 -1.4257
 9743TIP3   OH253423   5.704   3.797   9.203 -0.4484 -1.0208 -0.0193
 9743TIP3    H153424   5.642   3.836   9.140 -0.2745 -0.0808  0.3663
 9743TIP3    H253425   5.653   3.789   9.284 -1.3759 -4.3558 -0.7960
 9744TIP3   OH253426   4.296   3.151   8.108  0.0449  0.3045  0.3280
 9744TIP3    H153427   4.341   3.084   8.058 -0.9209  0.7245 -1.1935
 9744TIP3    H253428   4.204   3.123   8.108 -0.2487  1.2173  0.3048
 9745TIP3   OH253429   6.663   6.817   8.696  0.3510 -0.5243  0.0635
 9745TIP3    H153430   6.631   6.781   8.614 -1.1406 -0.9647  0.8027
 9745TIP3    H253431   6.590   6.806   8.757  1.0492  0.7485  1.1767
 9746TIP3   OH253432   8.060   6.037   9.270 -0.5538  0.2595 -0.3860
 9746TIP3    H153433   8.127   6.098   9.240  0.3446 -0.3909  0.2590
 9746TIP3    H253434   8.079   5.955   9.225 -0.1240 -0.2877  0.7514
 9747TIP3   OH253435   6.089   1.218   8.997 -0.2473  0.0857 -0.0019
 9747TIP3    H153436   6.167   1.163   8.998 -0.1909  0.0275  3.4440
 9747TIP3    H253437   6.123   1.308   8.993 -0.1226  0.0128 -0.6780
 9748TIP3   OH253438   0.291   5.222   7.698 -0.3253  0.2421  0.4776
 9748TIP3    H153439   0.355   5.150   7.697 -0.4208  0.1566  0.3690
 9748TIP3    H253440   0.294   5.256   7.787  1.4278  1.6552 -0.0611
 9749TIP3   OH253441   3.738   1.985   8.848 -0.0045 -0.0162  0.3272
 9749TIP3    H153442   3.677   1.931   8.798 -0.1402  1.1189 -0.7827
 9749TIP3    H253443   3.759   1.933   8.925 -1.5246 -0.8770  0.1831
 9750TIP3   OH253444   1.012   2.125   7.607 -0.1987  0.1595 -0.1228
 9750TIP3    H153445   1.017   2.052   7.670  2.1440 -0.5305 -1.0160
 9750TIP3    H253446   1.097   2.126   7.565 -0.9765  2.0005 -1.7881
 9751TIP3   OH253447   3.498   7.584   9.837  0.1824 -0.7401 -0.2784
 9751TIP3    H153448   3.521   7.574   9.929 -1.7839  0.4417  0.4039
 9751TIP3    H253449   3.523   7.674   9.816 -0.1870 -0.7205 -0.6497
 9752TIP3   OH253450   3.116   0.545   7.895 -0.5503  0.0615  0.9442
 9752TIP3    H153451   3.061   0.621   7.913  0.5878  0.6977  1.8739
 9752TIP3    H253452   3.058   0.470   7.907 -1.5032  0.7458  0.7275
 9753TIP3   OH253453   2.404   0.970   8.700 -0.5092 -0.0210  0.1211
 9753TIP3    H153454   2.428   1.060   8.676  2.9828 -0.8551 -0.0763
 9753TIP3    H253455   2.355   0.978   8.782 -2.3245  2.1276 -1.0620
 9754TIP3   OH253456   3.426   1.093   9.184  0.8151  0.3747  0.0373
 9754TIP3    H153457   3.486   1.039   9.235  0.4015  0.5838  0.7602
 9754TIP3    H253458   3.347   1.040   9.176  0.7818  0.4524 -0.1651
 9755TIP3   OH253459   6.156   5.705   8.492  0.1265  0.1936  0.0104
 9755TIP3    H153460   6.219   5.637   8.467  0.6359  1.3810 -2.1599
 9755TIP3    H253461   6.207   5.786   8.493 -1.1060  1.0158 -0.6601
 9756TIP3   OH253462   0.907   4.805   7.356  0.4612  0.1415 -0.0308
 9756TIP3    H153463   0.973   4.748   7.317  1.6847  2.6222 -1.9650
 9756TIP3    H253464   0.951   4.843   7.432  1.9964  2.7421 -2.0026
 9757TIP3   OH253465   3.578   4.175   7.648 -0.0191  0.4810 -0.1876
 9757TIP3    H153466   3.646   4.111   7.625 -0.5172 -0.4070  0.7205
 9757TIP3    H253467   3.526   4.184   7.568  0.4633  0.2801 -0.5341
 9758TIP3   OH253468   1.664   5.343   8.223  0.0314  0.1802 -0.4756
 9758TIP3    H153469   1.721   5.310   8.154 -1.7114 -0.6018 -1.6182
 9758TIP3    H253470   1.586   5.288   8.218 -1.1672  1.6985  0.4919
 9759TIP3   OH253471   6.026   7.306  10.280  0.2449  0.4171  0.0127
 9759TIP3    H153472   5.932   7.288  10.277  0.3997 -0.3408 -0.5890
 9759TIP3    H253473   6.065   7.226  10.316  0.6992  0.5467 -0.1848
 9760TIP3   OH253474   4.280   1.090   8.075 -0.3370  0.0864 -0.0454
 9760TIP3    H153475   4.234   1.025   8.022  0.7874  0.2983 -1.3536
 9760TIP3    H253476   4.372   1.066   8.067 -0.0540  0.7955  0.9226
 9761TIP3   OH253477   6.739   3.525   9.206 -0.3161 -0.1482 -0.1391
 9761TIP3    H153478   6.796   3.601   9.197  0.1358 -0.3247  0.9945
 9761TIP3    H253479   6.764   3.487   9.290  2.0156 -3.6722 -2.1888
 9762TIP3   OH253480   2.761   6.916   9.435 -0.6460  0.7184  0.7085
 9762TIP3    H153481   2.798   7.004   9.440 -0.2986  0.5803  0.6042
 9762TIP3    H253482   2.792   6.882   9.351 -1.7786  0.9430  0.1681
 9763TIP3   OH253483   4.794   1.467   8.856 -0.1584  0.2814 -0.0085
 9763TIP3    H153484   4.777   1.496   8.766  0.2884  0.4882 -0.0293
 9763TIP3    H253485   4.883   1.432   8.853  0.3583  1.4801  0.6322
 9764TIP3   OH253486   0.683   5.062   8.278 -0.3274  0.8596  0.2329
 9764TIP3    H153487   0.757   5.121   8.296  1.4189 -0.1622 -2.8907
 9764TIP3    H253488   0.705   5.021   8.195 -3.0349 -1.8082  0.6758
 9765TIP3   OH253489   0.688   8.109   9.033 -0.1754 -0.0934  1.1127
 9765TIP3    H153490   0.649   8.171   8.972 -0.1297 -1.7688 -0.7171
 9765TIP3    H253491   0.759   8.067   8.983  1.3676  0.0373  3.0502
 9766TIP3   OH253492   6.306   7.804   8.954 -0.2934 -0.3934 -0.1803
 9766TIP3    H153493   6.256   7.727   8.927 -0.8980  0.2295 -0.9014
 9766TIP3    H253494   6.266   7.877   8.907 -1.9876  0.9588  3.0251
 9767TIP3   OH253495   7.482   5.928   9.487 -0.4250 -0.2297  0.4719
 9767TIP3    H153496   7.524   5.978   9.557 -1.9114  0.0705  1.1900
 9767TIP3    H253497   7.389   5.948   9.496 -0.6381  0.1748 -1.8719
 9768TIP3   OH253498   6.721   0.049   9.793 -0.7193  0.0562  0.3759
 9768TIP3    H153499   6.686  -0.035   9.764  1.2080  0.2697 -3.2452
 9768TIP3    H253500   6.657   0.114   9.763  0.7159  0.1859 -2.7518
 9769TIP3   OH253501   4.758   2.591   9.402 -0.3756 -0.1928  0.8117
 9769TIP3    H153502   4.803   2.527   9.457  0.4947 -0.5413 -0.2805
 9769TIP3    H253503   4.707   2.643   9.464  0.7807 -0.3938  1.9803
 9770TIP3   OH253504   5.029   5.896   7.932  0.2394 -0.5407  0.0120
 9770TIP3    H153505   5.063   5.819   7.885 -0.0803  0.3091 -1.6679
 9770TIP3    H253506   4.979   5.859   8.005  0.6460 -1.9127 -0.3741
 9771TIP3   OH253507   1.443   5.712   8.136  0.7672  0.0311  0.4908
 9771TIP3    H153508   1.352   5.736   8.125  0.8972  0.5044  0.4198
 9771TIP3    H253509   1.444   5.616   8.128  0.1564 -0.0664  1.3812
 9772TIP3   OH253510   1.207   0.756   8.267  0.5571  0.4920 -0.4959
 9772TIP3    H153511   1.231   0.666   8.245  0.1766  0.3564 -0.3678
 9772TIP3    H253512   1.137   0.747   8.331  0.0357  0.8692 -0.9955
 9773TIP3   OH253513   4.438   4.064   8.271  0.3096  0.1517  0.1667
 9773TIP3    H153514   4.422   4.049   8.364 -0.0793  3.2658  0.7205
 9773TIP3    H253515   4.353   4.050   8.229  0.4498 -1.1020  0.2743
 9774TIP3   OH253516   3.275   8.447   9.623 -0.1074  0.2387  0.2542
 9774TIP3    H153517   3.322   8.376   9.667  0.1443  1.4192  1.9926
 9774TIP3    H253518   3.184   8.419   9.622  0.2360 -0.9967 -0.9776
 9775TIP3   OH253519   3.754   5.475   8.228  0.1664 -0.4344 -0.1058
 9775TIP3    H153520   3.669   5.466   8.272  0.5811  0.7776  1.0155
 9775TIP3    H253521   3.795   5.551   8.270  1.3923 -0.3762 -1.3249
 9776TIP3   OH253522   4.051   0.278   9.769 -0.1156  0.0343 -0.1001
 9776TIP3    H153523   4.136   0.306   9.804 -1.7088  2.7820  2.0663
 9776TIP3    H253524   4.038   0.190   9.805  1.1857  0.1534  0.7312
 9777TIP3   OH253525   6.784   1.137   9.141  0.2002 -0.1133  0.1071
 9777TIP3    H153526   6.832   1.194   9.081  0.2298  1.3422  1.4542
 9777TIP3    H253527   6.841   1.130   9.218  0.1746 -1.9700  0.0185
 9778TIP3   OH253528   4.066   5.673  10.054  0.3977  0.0382  0.3421
 9778TIP3    H153529   4.003   5.736  10.090  2.0897  2.9180 -1.3605
 9778TIP3    H253530   4.020   5.634   9.980 -0.4255 -0.2175  0.9635
 9779TIP3   OH253531   1.786   0.799   7.874  0.3718  0.1772 -0.2246
 9779TIP3    H153532   1.824   0.783   7.788 -2.4098 -1.1336 -1.3171
 9779TIP3    H253533   1.739   0.882   7.864  1.1553  0.7307  0.4962
 9780TIP3   OH253534   4.179   0.839   7.971  0.0443 -0.3279 -0.1002
 9780TIP3    H153535   4.171   0.773   7.902  0.3510 -0.1125 -0.3460
 9780TIP3    H253536   4.210   0.791   8.047 -0.1742 -0.5446 -0.1454
 9781TIP3   OH253537   4.397   6.125   8.267  0.1408 -0.6210 -0.5963
 9781TIP3    H153538   4.320   6.146   8.320 -0.6664 -0.1266 -1.9273
 9781TIP3    H253539   4.441   6.209   8.253  0.2422 -0.7163 -0.8657
 9782TIP3   OH253540   3.481   1.274   9.481 -0.0170 -0.2943  0.8674
 9782TIP3    H153541   3.559   1.225   9.456  0.1000  0.6345 -0.7243
 9782TIP3    H253542   3.504   1.315   9.564  1.6712  0.9153 -0.1211
 9783TIP3   OH253543   3.390   4.631   8.541  0.1309 -0.4055 -0.3550
 9783TIP3    H153544   3.481   4.602   8.534  0.7887  1.3143  0.5258
 9783TIP3    H253545   3.374   4.639   8.635 -0.6201  0.1789 -0.5168
 9784TIP3   OH253546   6.760   2.341   8.463 -0.0147 -0.0740  0.2332
 9784TIP3    H153547   6.747   2.404   8.534 -0.4846 -0.2525  0.3119
 9784TIP3    H253548   6.853   2.348   8.442  0.0625  0.2168  0.6435
 9785TIP3   OH253549   6.346   4.555   8.460 -0.3550 -0.4006 -0.4637
 9785TIP3    H153550   6.263   4.585   8.422 -1.7105 -2.1332  0.9415
 9785TIP3    H253551   6.343   4.585   8.550 -0.4229 -2.1703  0.1609
 9786TIP3   OH253552   3.854   4.160   7.912  0.0596  0.0393  0.4216
 9786TIP3    H153553   3.832   4.158   8.006  0.5814  1.1614  0.5832
 9786TIP3    H253554   3.940   4.118   7.907 -0.4577 -1.0332  0.2816
 9787TIP3   OH253555   4.265   5.360   8.898  0.7969 -0.4171 -0.3739
 9787TIP3    H153556   4.308   5.307   8.965 -1.1712 -0.7943  0.6513
 9787TIP3    H253557   4.188   5.309   8.872 -0.1051  1.0716 -0.7451
 9788TIP3   OH253558   0.858   5.120   7.692 -0.2764  0.1953 -0.5069
 9788TIP3    H153559   0.886   5.193   7.748 -1.0879 -2.4268  3.8641
 9788TIP3    H253560   0.781   5.154   7.646 -1.7800  1.7610  2.7700
 9789TIP3   OH253561   0.262   5.581   7.754  0.0272  0.3822 -0.3507
 9789TIP3    H153562   0.289   5.640   7.685  0.4191  0.0330 -0.5023
 9789TIP3    H253563   0.252   5.496   7.711 -0.0099  0.2237 -0.0369
 9790TIP3   OH253564   8.053   0.045   7.936  0.2873 -0.1855  0.0568
 9790TIP3    H153565   8.093   0.041   8.023 -0.6994 -2.0053  0.4716
 9790TIP3    H253566   7.999  -0.034   7.931 -1.0761  0.7864 -1.5286
 9791TIP3   OH253567   6.315   1.092   7.999  0.4516  0.0772 -0.3151
 9791TIP3    H153568   6.230   1.102   7.958 -0.0742  1.0276  0.9484
 9791TIP3    H253569   6.302   1.117   8.090  2.2918  1.2509 -0.3096
 9792TIP3   OH253570   7.834   0.402   9.762 -0.4531  0.1968 -0.5508
 9792TIP3    H153571   7.908   0.358   9.721  0.0999 -0.4391  1.0621
 9792TIP3    H253572   7.858   0.495   9.761 -0.1533  0.1193 -1.0358
 9793TIP3   OH253573   4.142   2.013   9.923 -0.2018 -0.5476 -0.2795
 9793TIP3    H153574   4.108   1.929   9.890 -0.4447 -1.3534  1.8355
 9793TIP3    H253575   4.063   2.064   9.943 -0.1627 -0.9722  1.1150
 9794TIP3   OH253576   3.909   7.993   8.106  0.0465 -0.0475  0.1867
 9794TIP3    H153577   3.819   8.027   8.103 -0.0354 -0.0715  1.7309
 9794TIP3    H253578   3.963   8.071   8.117  0.2694 -0.0041 -1.0245
 9795TIP3   OH253579   2.238   3.401   8.129  0.0081  0.2301 -0.6753
 9795TIP3    H153580   2.293   3.432   8.057 -0.2011 -2.2218 -1.9716
 9795TIP3    H253581   2.181   3.476   8.148  1.0968  1.4658 -1.9855
 9796TIP3   OH253582   8.260   3.731   9.062 -0.3282 -0.1531 -0.0709
 9796TIP3    H153583   8.293   3.742   9.151 -0.0334  0.2388 -0.2217
 9796TIP3    H253584   8.295   3.647   9.033  1.8908  0.9208 -0.7757
 9797TIP3   OH253585   6.661   1.114   9.785 -0.7742  0.3321 -0.1909
 9797TIP3    H153586   6.666   1.112   9.881 -1.3441  1.9103 -0.1080
 9797TIP3    H253587   6.734   1.170   9.759 -1.2449  0.7536 -0.6129
 9798TIP3   OH253588   2.231   1.229   9.612  0.4292 -0.1170 -0.0438
 9798TIP3    H153589   2.215   1.312   9.569 -0.2969 -0.3516 -0.2523
 9798TIP3    H253590   2.179   1.233   9.692 -1.9068 -1.4225 -1.3735
 9799TIP3   OH253591   6.421   2.783   8.706 -0.6820 -0.5333  0.0715
 9799TIP3    H153592   6.462   2.787   8.792  0.9362 -1.2644 -0.6232
 9799TIP3    H253593   6.399   2.690   8.695 -0.9715 -0.4255 -0.2645
 9800TIP3   OH253594   3.374   0.297   9.209 -0.0370  0.0778 -0.0357
 9800TIP3    H153595   3.351   0.237   9.280 -2.5427  0.2447 -0.6091
 9800TIP3    H253596   3.351   0.384   9.241  2.7684  0.7541  0.4535
 9801TIP3   OH253597   4.263   3.307   7.534  0.5036 -0.2210  0.0396
 9801TIP3    H153598   4.223   3.293   7.619  0.4620 -0.4508 -0.0141
 9801TIP3    H253599   4.219   3.244   7.477  0.6104 -0.1475 -0.1251
 9802TIP3   OH253600   2.241   3.934   7.258  0.4086 -0.5706 -0.2143
 9802TIP3    H153601   2.258   4.008   7.317 -0.4701 -1.0848  0.7116
 9802TIP3    H253602   2.246   3.857   7.315 -0.8984 -1.0476 -0.7094
 9803TIP3   OH253603   1.492   2.266   9.430 -0.4778 -0.1170  0.3129
 9803TIP3    H153604   1.555   2.300   9.494 -0.6765  0.8879 -0.0047
 9803TIP3    H253605   1.453   2.190   9.473 -0.0915  0.1158  1.0963
 9804TIP3   OH253606   6.327   8.395   7.793 -0.2500 -0.3273 -0.6074
 9804TIP3    H153607   6.335   8.489   7.807  2.9073 -0.4766 -0.7293
 9804TIP3    H253608   6.361   8.356   7.874 -1.1672 -1.3810 -0.7082
 9805TIP3   OH253609   8.284   7.259   9.748 -0.3601  0.5338 -0.6065
 9805TIP3    H153610   8.357   7.201   9.771 -0.9199  0.2029  0.3669
 9805TIP3    H253611   8.315   7.306   9.670  0.9942  0.5825 -0.0690
 9806TIP3   OH253612   7.188   6.170   9.831  0.3393  0.5151  0.0835
 9806TIP3    H153613   7.235   6.253   9.816 -0.3389  0.5987 -1.8454
 9806TIP3    H253614   7.238   6.105   9.781 -0.5693  0.2664 -0.5135
 9807TIP3   OH253615   6.564   1.284   8.183  0.0398 -0.3778 -0.5920
 9807TIP3    H153616   6.572   1.231   8.104 -1.6058 -1.2878 -0.1858
 9807TIP3    H253617   6.492   1.245   8.232  0.1791  0.9410  0.7651
 9808TIP3   OH253618   2.740   4.424   8.657  0.1468 -0.2876 -0.3158
 9808TIP3    H153619   2.812   4.401   8.598  0.3132  0.0112 -0.2300
 9808TIP3    H253620   2.662   4.392   8.613  0.1086  1.2351 -1.4086
 9809TIP3   OH253621   7.458   7.571   9.416  0.0384 -0.3105  0.0631
 9809TIP3    H153622   7.478   7.658   9.381 -0.9371  0.8302  2.1310
 9809TIP3    H253623   7.543   7.534   9.441  0.3735  0.5648  0.2552
 9810TIP3   OH253624   1.544   0.371   8.347  0.0943  0.2216  0.3450
 9810TIP3    H153625   1.616   0.371   8.284 -1.0231  1.7325 -1.0413
 9810TIP3    H253626   1.577   0.419   8.423  0.0484  2.5809 -1.0197
 9811TIP3   OH253627   6.855   4.018   9.256 -0.3739  0.0911 -0.0905
 9811TIP3    H153628   6.793   4.066   9.201 -0.2090  1.0363  0.5346
 9811TIP3    H253629   6.919   4.084   9.284  0.8937 -0.8471 -0.6736
 9812TIP3   OH253630   1.160   7.087   9.125  0.6067 -0.2709  0.2746
 9812TIP3    H153631   1.254   7.073   9.116  0.8003  1.1225 -0.1757
 9812TIP3    H253632   1.146   7.102   9.218  0.8951 -0.0936  0.2883
 9813TIP3   OH253633   6.757   7.862   8.862  0.2946 -0.4634  0.2358
 9813TIP3    H153634   6.682   7.912   8.830  0.4527 -1.1184 -1.2229
 9813TIP3    H253635   6.719   7.799   8.924  0.0676  1.2333  1.9276
 9814TIP3   OH253636   6.354   8.406   9.104  0.5108  0.2343 -0.3466
 9814TIP3    H153637   6.409   8.456   9.164  0.7814  0.1193 -0.5026
 9814TIP3    H253638   6.343   8.464   9.029  0.0572  0.4352 -0.1330
 9815TIP3   OH253639   2.472   4.686   8.394  0.7550  0.1039  0.9058
 9815TIP3    H153640   2.516   4.671   8.310  1.1203 -0.7128  1.2346
 9815TIP3    H253641   2.525   4.639   8.458 -0.7840 -1.2639  1.2539
 9816TIP3   OH253642   2.976   2.335   8.817 -0.1071  0.1948 -0.0406
 9816TIP3    H153643   2.978   2.240   8.803  2.7029  0.2188 -0.3280
 9816TIP3    H253644   2.977   2.345   8.912 -0.9459 -0.0349  0.0009
 9817TIP3   OH253645   2.747   4.133   8.044 -0.5039  0.0366 -0.1475
 9817TIP3    H153646   2.721   4.062   8.103  1.4314  0.8942  1.8648
 9817TIP3    H253647   2.794   4.088   7.973  0.9820 -0.7646  1.2600
 9818TIP3   OH253648   5.028   8.091   9.182  0.1528 -0.5328  0.1849
 9818TIP3    H153649   5.036   8.178   9.223  0.4920 -0.8255  0.7598
 9818TIP3    H253650   4.937   8.066   9.196 -0.3195  0.2924 -1.1651
 9819TIP3   OH253651   1.151   5.681   8.146 -0.5863 -0.1183 -0.1486
 9819TIP3    H153652   1.102   5.762   8.135 -0.4655  0.1220  0.9865
 9819TIP3    H253653   1.163   5.672   8.241  1.1882 -0.3936 -0.3584
 9820TIP3   OH253654   3.580   0.756   8.258  0.1835 -0.0960 -0.5143
 9820TIP3    H153655   3.518   0.792   8.320  1.4043  1.5139 -0.1610
 9820TIP3    H253656   3.605   0.831   8.203  2.0083 -0.6168 -0.4473
 9821TIP3   OH253657   6.869   7.430   9.473 -0.4930 -0.2803  0.0697
 9821TIP3    H153658   6.794   7.369   9.469 -1.2255  0.6453 -1.4406
 9821TIP3    H253659   6.848   7.497   9.408  0.6149  1.2362  1.2145
 9822TIP3   OH253660   2.496   2.559   9.436  0.2514 -0.1539 -0.2757
 9822TIP3    H153661   2.454   2.631   9.484 -0.3784 -1.0271  0.5296
 9822TIP3    H253662   2.510   2.594   9.348 -0.3921  0.8279 -0.0081
 9823TIP3   OH253663   6.566   5.538   9.681  0.0040 -0.2444 -0.5858
 9823TIP3    H153664   6.633   5.606   9.683 -0.4483  0.2042 -0.1200
 9823TIP3    H253665   6.498   5.571   9.740  0.9205 -2.2734  1.8115
 9824TIP3   OH253666   7.656   5.646   8.821  0.2319 -0.4884  0.0631
 9824TIP3    H153667   7.595   5.618   8.888  0.6867  0.7744  1.0536
 9824TIP3    H253668   7.614   5.723   8.781  0.6494 -0.3050 -0.0330
 9825TIP3   OH253669   7.582   4.024   9.172  0.1867  0.7722  0.1157
 9825TIP3    H153670   7.663   4.010   9.221  0.2161  1.3475  0.2466
 9825TIP3    H253671   7.525   4.069   9.234  0.3521  1.8295 -0.4721
 9826TIP3   OH253672   3.222   8.206   8.227  0.0574  0.6269 -0.5954
 9826TIP3    H153673   3.175   8.176   8.149 -1.4785 -0.2049  0.5809
 9826TIP3    H253674   3.154   8.247   8.281  1.0532  1.0198  0.3817
 9827TIP3   OH253675   5.525   5.482  10.177 -0.3124 -0.5263  0.6820
 9827TIP3    H153676   5.453   5.544  10.167 -1.0342 -1.5909 -1.6255
 9827TIP3    H253677   5.602   5.537  10.192 -1.0860  0.8779 -0.2152
 9828TIP3   OH253678   5.677   0.660   9.667  0.4828 -0.2668 -0.2925
 9828TIP3    H153679   5.765   0.629   9.645  0.8931  0.1515  0.6769
 9828TIP3    H253680   5.687   0.755   9.673 -0.1779 -0.1667 -0.7572
 9829TIP3   OH253681   0.621   2.708   7.572 -0.1921  0.0750  0.3117
 9829TIP3    H153682   0.632   2.796   7.534 -0.2601 -0.0466  0.0055
 9829TIP3    H253683   0.592   2.724   7.662 -0.2184  0.3669  0.2524
 9830TIP3   OH253684   0.146   5.039   7.939 -0.5678  0.0547  0.1606
 9830TIP3    H153685   0.222   5.095   7.951 -1.0125  1.0408 -1.3952
 9830TIP3    H253686   0.080   5.096   7.900 -0.4803 -1.8579 -3.1190
 9831TIP3   OH253687   2.792   6.131   9.620  0.1593  0.4346  0.1492
 9831TIP3    H153688   2.853   6.203   9.607  1.1094 -0.2844  0.4872
 9831TIP3    H253689   2.737   6.159   9.693 -0.2342  1.2803 -0.4545
 9832TIP3   OH253690   4.293   7.673   8.799 -0.4510 -0.1156 -0.5209
 9832TIP3    H153691   4.284   7.689   8.705 -0.1013 -0.8339 -0.6809
 9832TIP3    H253692   4.306   7.579   8.807  2.3192  0.2113 -0.0081
 9833TIP3   OH253693   0.415   8.253   9.006  0.0213  0.3279  0.2459
 9833TIP3    H153694   0.449   8.290   8.925 -0.9229 -1.6855 -1.1431
 9833TIP3    H253695   0.409   8.328   9.066  1.9111  1.6422 -1.1074
 9834TIP3   OH253696   6.598   4.664   8.051  0.1659  0.2503 -0.2055
 9834TIP3    H153697   6.589   4.694   7.960 -0.1893  0.5634 -0.0691
 9834TIP3    H253698   6.550   4.728   8.102  0.5561  0.1954  0.2338
 9835TIP3   OH253699   1.409   1.187   7.992  0.3056 -0.3953 -0.0901
 9835TIP3    H153700   1.351   1.113   8.012  1.3034 -1.3668 -0.7185
 9835TIP3    H253701   1.374   1.258   8.045 -1.4325 -0.9590 -0.3816
 9836TIP3   OH253702   8.380   7.457   9.120  0.2214  0.1509 -0.9448
 9836TIP3    H153703   8.300   7.493   9.083 -0.5470  0.0275  0.5270
 9836TIP3    H253704   8.361   7.447   9.213  2.2162  0.8621 -0.4037
 9837TIP3   OH253705   2.185   3.364   7.586  0.5061  0.2728 -0.0010
 9837TIP3    H153706   2.176   3.452   7.624  0.5186  1.2914 -2.2232
 9837TIP3    H253707   2.096   3.339   7.562  0.3453 -0.8314  1.5523
 9838TIP3   OH253708   7.609   8.445  10.090  0.2006  0.4037  0.4641
 9838TIP3    H153709   7.691   8.494  10.094 -0.4146  1.5469 -0.3168
 9838TIP3    H253710   7.562   8.471  10.169 -0.7385  2.2809 -0.6413
 9839TIP3   OH253711   4.110   7.292   8.268  0.5602  0.4469 -0.3435
 9839TIP3    H153712   4.112   7.262   8.359  0.6049 -0.2555 -0.5741
 9839TIP3    H253713   4.098   7.213   8.216 -1.7516  1.0497 -0.8330
 9840TIP3   OH253714   1.161   3.369   9.240  0.3078  0.3732 -0.0477
 9840TIP3    H153715   1.096   3.332   9.180 -2.1916  1.6769  1.6576
 9840TIP3    H253716   1.231   3.305   9.242 -1.2085 -1.4650 -1.5210
 9841TIP3   OH253717   7.160   3.817   9.052  0.0647  0.1297 -0.4274
 9841TIP3    H153718   7.199   3.742   9.008  0.0884 -0.2092  0.1619
 9841TIP3    H253719   7.133   3.875   8.981 -0.7210 -0.8105 -0.9110
 9842TIP3   OH253720   1.792   4.587   7.496  0.4104  0.0147  0.0234
 9842TIP3    H153721   1.733   4.617   7.427  0.1721 -1.0533 -0.2479
 9842TIP3    H253722   1.737   4.579   7.573  0.0408 -1.5597 -0.3735
 9843TIP3   OH253723   7.565   0.011   9.779 -0.6297 -0.5536 -0.2907
 9843TIP3    H153724   7.505  -0.001   9.853 -1.2445 -1.5209 -0.9237
 9843TIP3    H253725   7.522   0.077   9.724 -0.5757 -0.4408 -0.1986
 9844TIP3   OH253726   6.742   5.914  10.025  0.2989  0.3420  0.0497
 9844TIP3    H153727   6.776   5.831   9.992  0.8871  0.7960 -0.5163
 9844TIP3    H253728   6.809   5.978  10.002 -1.1354  1.3619 -1.5737
 9845TIP3   OH253729   1.399   1.324   9.221  0.2020  1.0355  0.2247
 9845TIP3    H153730   1.449   1.345   9.300 -0.5319  0.2714  0.9092
 9845TIP3    H253731   1.336   1.395   9.214  0.7226  1.4738 -0.0764
 9846TIP3   OH253732   6.728   5.644   9.343  0.1770 -0.8264 -0.0113
 9846TIP3    H153733   6.648   5.594   9.326 -2.0482  2.5085 -0.3577
 9846TIP3    H253734   6.748   5.686   9.259  0.2402  1.0408  0.8971
 9847TIP3   OH253735   1.636   2.881   9.820 -0.4352 -0.3254  0.5188
 9847TIP3    H153736   1.644   2.815   9.889 -0.4339  1.0472  1.8927
 9847TIP3    H253737   1.631   2.964   9.867  0.7961  0.7835 -1.1844
 9848TIP3   OH253738   4.064   0.127   9.535  0.0237 -0.0354 -0.3154
 9848TIP3    H153739   4.136   0.162   9.482  0.3496 -0.7168 -0.3239
 9848TIP3    H253740   4.062   0.184   9.613  0.3744  0.1698 -0.4536
 9849TIP3   OH253741   3.829   7.170   8.451 -0.0244  0.0647 -0.2234
 9849TIP3    H153742   3.831   7.172   8.356  1.9178 -1.7277 -0.2945
 9849TIP3    H253743   3.918   7.194   8.477  0.5044 -2.8006  0.9519
 9850TIP3   OH253744   7.258   6.069   8.009 -0.2344  0.1791  0.5156
 9850TIP3    H153745   7.163   6.064   8.005 -0.3073 -0.2105  1.9641
 9850TIP3    H253746   7.286   6.089   7.920 -1.8450  3.9138  0.6813
 9851TIP3   OH253747   4.562   7.133   8.060 -0.2850  0.2218  0.0302
 9851TIP3    H153748   4.650   7.098   8.064 -0.7407 -1.2444 -1.5096
 9851TIP3    H253749   4.574   7.227   8.048  0.9736  0.8176  4.2936
 9852TIP3   OH253750   8.371   1.151   8.516 -0.0725  0.3995  0.6219
 9852TIP3    H153751   8.313   1.226   8.526 -1.0417 -0.3538  0.7311
 9852TIP3    H253752   8.344   1.110   8.434  2.6022  1.9862 -1.2271
 9853TIP3   OH253753   7.899   7.271   8.407  0.0105  0.6256  0.1197
 9853TIP3    H153754   7.815   7.225   8.411 -0.7265  1.9547  0.4012
 9853TIP3    H253755   7.923   7.270   8.315 -0.4651  0.5044 -0.0064
 9854TIP3   OH253756   0.258   6.262   8.533 -0.8462  0.0651 -0.0787
 9854TIP3    H153757   0.188   6.265   8.467 -2.4206 -3.1332  1.2294
 9854TIP3    H253758   0.220   6.303   8.611 -0.5990 -0.0580  0.1104
 9855TIP3   OH253759   0.974   0.359   8.217 -0.4717  0.1963  0.0328
 9855TIP3    H153760   0.938   0.325   8.300  0.5570  1.0570  0.8652
 9855TIP3    H253761   0.910   0.424   8.188 -1.1022 -0.4906 -0.1361
 9856TIP3   OH253762   6.626   5.601   9.091  0.1064  0.1657  0.2488
 9856TIP3    H153763   6.635   5.507   9.075 -0.0908 -0.1639  1.9296
 9856TIP3    H253764   6.560   5.630   9.029  0.9713 -0.5665 -1.0682
 9857TIP3   OH253765   7.082   5.470   8.925 -0.7218 -0.2147 -0.4004
 9857TIP3    H153766   7.057   5.496   8.836  0.1458  0.0159 -0.5825
 9857TIP3    H253767   7.057   5.544   8.980 -0.2541  0.1031 -0.6113
 9858TIP3   OH253768   4.419   2.036   9.827  0.0985 -0.1603 -0.0744
 9858TIP3    H153769   4.334   2.024   9.869 -0.2784  1.8595 -0.1706
 9858TIP3    H253770   4.478   1.982   9.878 -1.1707 -1.3271  0.2128
 9859TIP3   OH253771   0.557   7.377   9.021  0.1260 -0.5646 -0.5046
 9859TIP3    H153772   0.516   7.294   9.046  0.2915 -0.0907  1.4602
 9859TIP3    H253773   0.484   7.432   8.991 -0.3556 -0.5559  0.6410
 9860TIP3   OH253774   1.029   7.263   7.697  0.2950  0.1853  0.0387
 9860TIP3    H153775   0.967   7.193   7.721  1.1731 -0.5061  0.3353
 9860TIP3    H253776   1.115   7.224   7.711  0.8132  1.6359  1.1311
 9861TIP3   OH253777   0.838   2.771   8.864 -0.2022  0.2662 -0.0101
 9861TIP3    H153778   0.810   2.862   8.858  0.0803  0.3441 -0.1434
 9861TIP3    H253779   0.845   2.754   8.957  0.9667  0.7549  0.0087
 9862TIP3   OH253780   7.407   0.031   9.055 -0.0645  0.0824  0.3112
 9862TIP3    H153781   7.365  -0.026   8.990 -0.5604  1.1455 -0.3392
 9862TIP3    H253782   7.473   0.078   9.005 -1.0092  1.5234  0.3535
 9863TIP3   OH253783   2.093   6.156   9.164 -0.1731  0.8676  0.4145
 9863TIP3    H153784   2.078   6.073   9.118  0.1741 -0.2490  2.2060
 9863TIP3    H253785   2.039   6.149   9.244  1.9911  1.1238  1.9874
 9864TIP3   OH253786   4.307   8.060   8.390  0.8788 -0.2672  0.3712
 9864TIP3    H153787   4.266   8.125   8.447  0.5887 -0.8930  0.8946
 9864TIP3    H253788   4.370   8.015   8.447 -0.3004 -1.7487  0.5665
 9865TIP3   OH253789   1.633   2.271   8.047 -0.0618 -0.2832  0.2092
 9865TIP3    H153790   1.659   2.273   8.139  0.6686 -3.3976  0.1958
 9865TIP3    H253791   1.538   2.278   8.048 -0.0548 -0.2071  1.2219
 9866TIP3   OH253792   2.602   3.668   9.102  0.3333  0.3391  0.4891
 9866TIP3    H153793   2.610   3.698   9.011 -0.0597  0.8917  0.6348
 9866TIP3    H253794   2.543   3.731   9.143  0.0462 -0.2422  0.9821
 9867TIP3   OH253795   5.689   2.619   8.064  0.4901 -0.4142  0.6222
 9867TIP3    H153796   5.773   2.578   8.084  0.3264 -1.1986 -0.2340
 9867TIP3    H253797   5.709   2.685   7.998  0.4235 -0.6850  0.3278
 9868TIP3   OH253798   3.124   6.655   9.950  0.3754  0.3977  0.8974
 9868TIP3    H153799   3.088   6.727   9.898  1.8742  1.7471  1.6281
 9868TIP3    H253800   3.219   6.660   9.936  0.5957 -0.7593  1.8072
 9869TIP3   OH253801   1.951   3.133   8.935  0.4198 -0.3624  0.2173
 9869TIP3    H153802   2.024   3.080   8.900 -1.2944 -1.0134 -2.7024
 9869TIP3    H253803   1.903   3.072   8.991  0.1851 -1.0233 -0.6713
 9870TIP3   OH253804   8.169   2.784   9.145 -0.0563 -0.2973 -0.5317
 9870TIP3    H153805   8.083   2.777   9.105 -1.0101 -0.7594  1.4776
 9870TIP3    H253806   8.211   2.700   9.127 -1.7522 -1.8409  2.1003
 9871TIP3   OH253807   7.324   4.070   8.431  0.5466  0.0042 -0.2919
 9871TIP3    H153808   7.293   4.026   8.351  1.1963 -0.9076 -0.0568
 9871TIP3    H253809   7.419   4.058   8.430  0.8005  1.8191 -0.4417
 9872TIP3   OH253810   7.040   1.507   8.606 -0.2766  0.2214 -0.0724
 9872TIP3    H153811   6.950   1.486   8.628 -0.6568  0.0780 -1.6146
 9872TIP3    H253812   7.089   1.427   8.626 -0.9400 -0.5985 -1.5218
 9873TIP3   OH253813   2.890   7.662   8.472 -0.1818  0.7641 -0.2024
 9873TIP3    H153814   2.916   7.689   8.560  1.0420 -0.1247 -0.2747
 9873TIP3    H253815   2.834   7.585   8.486  1.9871 -0.9047 -0.2490
 9874TIP3   OH253816   6.504   3.170   9.720 -0.0191 -0.2013 -0.3376
 9874TIP3    H153817   6.444   3.124   9.780  1.1227 -0.6886  0.4796
 9874TIP3    H253818   6.455   3.246   9.690 -0.2851  0.6987  2.1338
 9875TIP3   OH253819   1.820   6.350   7.976 -0.7064  0.3711 -0.0238
 9875TIP3    H153820   1.852   6.345   8.066 -0.8411  1.1460  0.0761
 9875TIP3    H253821   1.814   6.444   7.958  2.6280  0.3876 -1.9824
 9876TIP3   OH253822   3.501   8.019   8.987  0.3950 -0.0164 -0.2817
 9876TIP3    H153823   3.542   8.099   8.953  0.2566  0.0564 -0.2756
 9876TIP3    H253824   3.572   7.954   8.986  0.4314  0.0284 -0.5557
 9877TIP3   OH253825   5.517   3.428   8.452  0.3294  0.2799 -0.1516
 9877TIP3    H153826   5.597   3.425   8.503 -1.0029  2.3679  2.2909
 9877TIP3    H253827   5.516   3.515   8.413 -0.4168  0.0236 -0.7432
 9878TIP3   OH253828   5.712   2.990   8.176 -0.6220  0.0104  0.0142
 9878TIP3    H153829   5.764   2.956   8.104 -1.2945  0.7620 -0.8525
 9878TIP3    H253830   5.653   2.919   8.199 -1.7909  0.3993 -1.5597
 9879TIP3   OH253831   3.277   5.751   8.680  0.2728  0.1886  0.2441
 9879TIP3    H153832   3.359   5.719   8.643  0.1668  0.1193  0.0654
 9879TIP3    H253833   3.283   5.731   8.773  0.2059 -0.3512  0.1336
 9880TIP3   OH253834   0.452   5.918   8.287  0.1155  0.5303 -0.1158
 9880TIP3    H153835   0.431   5.997   8.238 -2.0553 -0.1073 -0.3103
 9880TIP3    H253836   0.430   5.939   8.378 -0.8446  0.0379 -0.2268
 9881TIP3   OH253837   2.165   4.522   8.633 -0.2700  0.2730 -0.1532
 9881TIP3    H153838   2.082   4.493   8.594 -0.1546 -1.1350  0.5571
 9881TIP3    H253839   2.232   4.490   8.572 -0.2369  1.7832 -0.9488
 9882TIP3   OH253840   3.934   8.085   8.460  0.2544 -0.1660 -0.1576
 9882TIP3    H153841   3.979   8.004   8.433 -0.3161  0.1855 -2.3345
 9882TIP3    H253842   3.980   8.155   8.415 -0.6000  0.5102 -0.0142
 9883TIP3   OH253843   1.534   1.321   8.619  0.0133 -1.1481 -0.4512
 9883TIP3    H153844   1.450   1.275   8.619 -0.8917  0.3902 -1.3545
 9883TIP3    H253845   1.513   1.408   8.585  2.0880 -0.9239 -1.3181
 9884TIP3   OH253846   0.981   4.787   8.239 -0.5020  0.2982 -0.5492
 9884TIP3    H153847   0.982   4.882   8.240 -1.1784  0.3179  0.8230
 9884TIP3    H253848   0.937   4.762   8.320  1.9167 -1.2302  0.4237
 9885TIP3   OH253849   4.368   1.306   9.173  0.1863  0.3663 -0.0801
 9885TIP3    H153850   4.281   1.289   9.138  0.6382 -0.6053 -0.7694
 9885TIP3    H253851   4.353   1.329   9.265 -0.9169  1.8978 -0.6069
 9886TIP3   OH253852   7.821   2.714   8.826 -0.1193  0.5472 -0.2705
 9886TIP3    H153853   7.852   2.660   8.754  0.1804  1.0956 -0.5652
 9886TIP3    H253854   7.725   2.705   8.823 -0.0226 -2.1054  1.4040
 9887TIP3   OH253855   8.133   2.694   7.547 -0.9065 -0.0370 -0.6287
 9887TIP3    H153856   8.227   2.680   7.534 -0.7194  1.3450 -0.8427
 9887TIP3    H253857   8.117   2.783   7.517 -2.0213  0.2791  0.7807
 9888TIP3   OH253858   4.073   6.553   8.788  0.0574  0.0723 -0.6430
 9888TIP3    H153859   4.128   6.480   8.759  1.8142  1.9194 -2.3048
 9888TIP3    H253860   3.984   6.526   8.766  0.4305 -2.2543  0.4115
 9889TIP3   OH253861   5.398   1.104   8.126 -0.0643 -0.0787 -0.2995
 9889TIP3    H153862   5.358   1.132   8.043 -0.5991 -2.3697 -0.8746
 9889TIP3    H253863   5.359   1.162   8.192 -0.8255  0.7538 -1.4357
 9890TIP3   OH253864   0.733   4.008   8.215  0.4046  0.0856 -0.6078
 9890TIP3    H153865   0.713   4.007   8.308  1.6246  2.0159 -0.2683
 9890TIP3    H253866   0.827   4.025   8.211  1.2226 -3.6271 -2.1781
 9891TIP3   OH253867   4.018   1.502   8.289  0.0540  0.5327  0.1680
 9891TIP3    H153868   3.929   1.516   8.321  0.3795  0.7784  0.9918
 9891TIP3    H253869   4.072   1.506   8.368  0.6175 -1.2583 -0.0775
 9892TIP3   OH253870   6.240   7.004   7.827 -0.1949  0.0547 -0.3636
 9892TIP3    H153871   6.162   7.004   7.882 -0.8073  0.1219 -1.2056
 9892TIP3    H253872   6.211   6.962   7.745  0.3083  1.2030 -1.1569
 9893TIP3   OH253873   6.666   7.623   7.861 -0.1483  0.3841  0.1954
 9893TIP3    H153874   6.659   7.546   7.805 -0.2994  1.2025 -0.9515
 9893TIP3    H253875   6.640   7.593   7.948 -2.7958 -0.2751 -0.7298
 9894TIP3   OH253876   5.643   2.064   9.227  0.1684  0.1888 -0.0886
 9894TIP3    H153877   5.729   2.054   9.187 -0.1368 -0.5813 -0.5689
 9894TIP3    H253878   5.598   2.129   9.173  0.1261 -0.0792 -0.3740
 9895TIP3   OH253879   7.705   3.803   9.739  0.1162 -0.0792  0.2046
 9895TIP3    H153880   7.733   3.872   9.678  0.2710 -1.1500 -0.9829
 9895TIP3    H253881   7.774   3.738   9.734 -0.0578 -0.3603  1.2740
 9896TIP3   OH253882   5.474   3.464  10.022  0.0197 -0.4601 -0.0079
 9896TIP3    H153883   5.534   3.393  10.043  0.7731 -0.0154 -0.6058
 9896TIP3    H253884   5.516   3.542  10.059 -0.7296 -0.2908  0.5223
 9897TIP3   OH253885   4.390   1.871   9.608 -0.3233  0.2082  0.3876
 9897TIP3    H153886   4.477   1.875   9.569 -0.2431 -1.3346  0.3426
 9897TIP3    H253887   4.396   1.926   9.686  1.2576 -1.2498  1.3682
 9898TIP3   OH253888   6.138   3.680   9.819  0.3023  0.5799 -0.3921
 9898TIP3    H153889   6.216   3.724   9.785  0.4293 -0.4126 -1.4164
 9898TIP3    H253890   6.121   3.608   9.758 -0.9723  0.3067  0.2374
 9899TIP3   OH253891   1.829   8.046   8.648 -0.0382 -0.2737  0.3012
 9899TIP3    H153892   1.925   8.046   8.639 -0.0299 -2.9826 -0.2308
 9899TIP3    H253893   1.810   8.126   8.697  2.4510  0.5436  0.0654
 9900TIP3   OH253894   4.387   5.665   7.770 -0.0527  0.2959 -0.4504
 9900TIP3    H153895   4.394   5.642   7.678  0.0818  0.0647 -0.3834
 9900TIP3    H253896   4.447   5.605   7.814  0.8705  1.2613 -0.3553
 9901TIP3   OH253897   3.308   6.089   8.907  0.1488 -0.2303  0.1177
 9901TIP3    H153898   3.364   6.117   8.835 -0.6313  2.0516  0.3298
 9901TIP3    H253899   3.222   6.075   8.868 -0.0143 -0.1002  0.4283
 9902TIP3   OH253900   4.399   7.469   9.878  0.0526  0.2777 -0.3264
 9902TIP3    H153901   4.358   7.386   9.855  2.7939 -1.2332 -0.1634
 9902TIP3    H253902   4.363   7.491   9.964 -0.8075 -0.6633 -0.4225
 9903TIP3   OH253903   1.169   4.915   9.175 -0.3735 -0.5194 -0.2531
 9903TIP3    H153904   1.211   4.950   9.254  0.4599 -0.8721 -0.5235
 9903TIP3    H253905   1.080   4.892   9.203 -0.9162  1.6505 -0.0471
 9904TIP3   OH253906   8.428   4.987   8.710  0.1657 -0.4204 -0.0378
 9904TIP3    H153907   8.428   4.932   8.632 -0.8740 -0.9745  0.3304
 9904TIP3    H253908   8.339   4.978   8.746  1.2863 -2.1464  2.6100
 9905TIP3   OH253909   5.813   7.733  10.092  0.3082 -0.3584  0.5443
 9905TIP3    H153910   5.778   7.806  10.144  0.5951 -0.4839  0.9193
 9905TIP3    H253911   5.885   7.699  10.145  1.0610 -0.0453 -0.2487
 9906TIP3   OH253912   2.071   4.591   9.186 -0.3548  0.4001 -0.7876
 9906TIP3    H153913   2.098   4.550   9.268  2.1489  0.9867 -1.2610
 9906TIP3    H253914   2.044   4.517   9.131  1.0560 -0.3308 -0.5430
 9907TIP3   OH253915   3.508   6.213   8.736 -1.0412  0.0021 -0.1057
 9907TIP3    H153916   3.537   6.256   8.816  0.4885 -0.1042 -0.5784
 9907TIP3    H253917   3.455   6.279   8.691  1.4930  1.5668 -0.9584
 9908TIP3   OH253918   1.910   0.850   7.644 -0.4802  0.3614 -0.6889
 9908TIP3    H153919   1.903   0.946   7.646  0.4094  0.4326  0.8768
 9908TIP3    H253920   1.935   0.830   7.554 -1.7400  1.5017 -1.3265
 9909TIP3   OH253921   3.051   3.930   9.212 -0.2623 -0.2056 -0.0524
 9909TIP3    H153922   3.030   3.978   9.132 -0.7739  1.2479  0.9146
 9909TIP3    H253923   3.113   3.986   9.258 -0.3344 -0.7942  0.7946
 9910TIP3   OH253924   1.973   5.104   8.311  0.3343  0.2248 -0.1158
 9910TIP3    H153925   2.068   5.103   8.323  0.2618 -0.3419  0.4629
 9910TIP3    H253926   1.944   5.017   8.338 -0.6041  1.1053  1.9653
 9911TIP3   OH253927   0.638   2.992   7.484 -0.4016  0.2181  0.0937
 9911TIP3    H153928   0.723   2.990   7.529  0.6146  0.7786 -1.7083
 9911TIP3    H253929   0.606   3.082   7.498 -0.8755 -0.0778  1.0234
 9912TIP3   OH253930   6.441   3.574   7.605  0.7674  0.2469  0.4409
 9912TIP3    H153931   6.428   3.644   7.669 -0.8954  0.2989  0.1096
 9912TIP3    H253932   6.420   3.493   7.653 -1.4468  0.3637 -0.2212
 9913TIP3   OH253933   6.536   7.058   8.299  0.6428 -0.2460  0.2488
 9913TIP3    H153934   6.470   7.126   8.314 -0.9752 -1.9701  1.4996
 9913TIP3    H253935   6.620   7.102   8.312 -0.3767  1.2402  2.3604
 9914TIP3   OH253936   6.750   3.451   9.473  0.1041 -0.0163  0.3468
 9914TIP3    H153937   6.657   3.463   9.454 -0.1710  0.1544  1.7131
 9914TIP3    H253938   6.751   3.394   9.550  1.0069  2.3957  2.2333
 9915TIP3   OH253939   7.170   2.768   8.736  0.3544 -0.0175  0.1494
 9915TIP3    H153940   7.241   2.722   8.692  1.6076 -0.1386  2.2049
 9915TIP3    H253941   7.178   2.858   8.706  0.6305 -0.2663 -0.5415
 9916TIP3   OH253942   7.685   7.717   9.003  0.2918  0.2174  0.2484
 9916TIP3    H153943   7.675   7.710   8.908 -2.2546 -0.3122  0.4582
 9916TIP3    H253944   7.754   7.654   9.024 -0.4732 -1.1575 -1.0940
 9917TIP3   OH253945   4.523   3.747   8.729 -0.3101 -0.0462  0.0482
 9917TIP3    H153946   4.607   3.704   8.743 -0.1203  0.0535 -0.7382
 9917TIP3    H253947   4.544   3.828   8.683 -0.7408  0.5110  0.7987
 9918TIP3   OH253948   0.014   5.835   9.095 -0.1322 -0.5332 -0.5215
 9918TIP3    H153949   0.081   5.861   9.159  0.5213 -1.5872 -0.7514
 9918TIP3    H253950  -0.036   5.915   9.080  1.2907  0.3879 -0.6017
 9919TIP3   OH253951   1.306   3.867   7.476  1.1966 -0.4460  0.7333
 9919TIP3    H153952   1.225   3.831   7.511  0.8219  1.1395  1.5756
 9919TIP3    H253953   1.370   3.796   7.486 -0.2607 -2.1249 -0.9375
 9920TIP3   OH253954   0.256   0.904   7.597 -0.2490  0.3635  0.0761
 9920TIP3    H153955   0.208   0.867   7.524  0.0184 -1.3080  0.6991
 9920TIP3    H253956   0.198   0.892   7.672  0.3053  0.1519  0.4828
 9921TIP3   OH253957   6.626   5.897   8.547 -0.4346 -0.1789 -0.2253
 9921TIP3    H153958   6.645   5.821   8.491  0.3989 -0.4928  0.4517
 9921TIP3    H253959   6.535   5.885   8.574  0.0582 -1.6624  0.9172
 9922TIP3   OH253960   2.682   1.455   9.149 -0.2520  0.0659 -0.4273
 9922TIP3    H153961   2.775   1.446   9.129 -0.5022  1.0416 -2.1946
 9922TIP3    H253962   2.664   1.385   9.212  1.7776  0.1945  0.3646
 9923TIP3   OH253963   6.815   7.671   9.344  0.0625 -0.0243  0.2116
 9923TIP3    H153964   6.870   7.745   9.369 -0.2920 -0.1912  1.6016
 9923TIP3    H253965   6.736   7.712   9.308 -0.4005  0.3224  1.5549
 9924TIP3   OH253966   5.898   7.891   8.459 -0.4191  0.6116 -0.3551
 9924TIP3    H153967   5.810   7.902   8.424  0.0342  1.3435 -1.2986
 9924TIP3    H253968   5.938   7.978   8.452  0.3609  0.3044  0.1272
 9925TIP3   OH253969   0.199   5.853   9.576 -0.6316 -0.4761  0.2183
 9925TIP3    H153970   0.123   5.832   9.631 -1.8953 -3.5724 -2.3718
 9925TIP3    H253971   0.257   5.777   9.586  0.3694  0.1328 -0.6923
 9926TIP3   OH253972   1.076   7.848   7.735 -0.2442  0.0607  0.4073
 9926TIP3    H153973   1.076   7.876   7.643 -0.0011 -0.6273  0.1865
 9926TIP3    H253974   0.985   7.820   7.751 -0.5061  1.0192  0.6528
 9927TIP3   OH253975   1.955   6.540   8.915  0.6904  0.0560  0.6411
 9927TIP3    H153976   2.044   6.550   8.950  1.3061 -1.6272 -0.2880
 9927TIP3    H253977   1.900   6.527   8.992  1.5799 -0.8180  1.1638
 9928TIP3   OH253978   2.453   2.981   7.473 -0.6660 -0.0439  0.0391
 9928TIP3    H153979   2.539   2.948   7.445 -0.5489 -0.0212  0.3685
 9928TIP3    H253980   2.469   3.073   7.492 -1.2937  0.6170 -2.2573
 9929TIP3   OH253981   7.214   5.949   9.633 -0.1729 -0.2928  0.6252
 9929TIP3    H153982   7.125   5.983   9.628 -0.0818 -0.1525 -0.2639
 9929TIP3    H253983   7.204   5.858   9.661 -0.6136 -0.3680  0.2258
 9930TIP3   OH253984   5.569   2.280   8.275 -0.2257 -0.0441  0.3593
 9930TIP3    H153985   5.628   2.213   8.309  1.9206  0.7662 -1.4904
 9930TIP3    H253986   5.606   2.304   8.191 -1.2296  3.0324  0.6623
 9931TIP3   OH253987   6.048   7.020   9.588  0.1351 -0.1958 -0.2477
 9931TIP3    H153988   6.066   7.027   9.682  4.4805 -0.9672 -0.8358
 9931TIP3    H253989   5.974   6.959   9.583 -0.5656  0.2356  2.6194
 9932TIP3   OH253990   6.617   7.676   9.009  0.4484  0.3833  0.2000
 9932TIP3    H153991   6.554   7.700   9.077  0.7150 -1.5407  1.1963
 9932TIP3    H253992   6.563   7.640   8.939  0.3442 -0.1514  0.5485
 9933TIP3   OH253993   2.949   4.828   9.131 -0.5512 -0.6443  0.1494
 9933TIP3    H153994   2.909   4.851   9.047  3.5670  2.2963 -1.3972
 9933TIP3    H253995   2.941   4.908   9.184 -0.5021 -1.4490  1.4172
 9934TIP3   OH253996   6.161   5.278   7.908 -0.4396 -0.2925 -0.1749
 9934TIP3    H153997   6.138   5.214   7.840 -1.8453  0.9712 -0.9606
 9934TIP3    H253998   6.077   5.303   7.946  0.2332 -0.0308  1.1803
 9935TIP3   OH253999   3.678   2.520   9.643 -0.3039  0.4911  0.2161
 9935TIP3    H154000   3.626   2.476   9.576 -1.0052 -1.3306  1.8712
 9935TIP3    H254001   3.746   2.566   9.593 -1.5246  0.2384 -1.8032
 9936TIP3   OH254002   0.904   4.292   8.271 -0.1850 -0.0739 -0.1210
 9936TIP3    H154003   0.942   4.204   8.264 -2.1084 -1.0585  1.0840
 9936TIP3    H254004   0.865   4.307   8.186 -0.0493 -0.4873 -0.2626
 9937TIP3   OH254005   0.716   2.440   8.475 -0.1010  0.7881  0.4547
 9937TIP3    H154006   0.640   2.445   8.418 -0.7420 -1.9173  0.9156
 9937TIP3    H254007   0.693   2.494   8.551 -0.7291  1.5483 -0.2679
 9938TIP3   OH254008   0.390   3.911   7.837  0.1981 -0.1481  0.4219
 9938TIP3    H154009   0.372   3.928   7.929  0.9634 -1.0898  0.7644
 9938TIP3    H254010   0.347   3.828   7.819  0.4344 -0.1957  0.0586
 9939TIP3   OH254011   4.061   2.822   8.547 -0.8067 -0.0356  0.1449
 9939TIP3    H154012   4.148   2.847   8.516  0.1702 -0.6574  2.2427
 9939TIP3    H254013   4.027   2.764   8.479 -0.9716  2.6654 -2.2821
 9940TIP3   OH254014   3.430   3.618   9.815 -0.1068  0.1647 -0.4167
 9940TIP3    H154015   3.347   3.572   9.808 -0.3571  0.6598 -0.7838
 9940TIP3    H254016   3.412   3.705   9.779  0.4755  0.3919 -0.1669
 9941TIP3   OH254017   0.335   1.716   7.566  0.0273 -0.0194  0.2990
 9941TIP3    H154018   0.293   1.675   7.641 -0.3047  0.3440  0.3178
 9941TIP3    H254019   0.300   1.805   7.565  0.0243 -0.0217 -0.2846
 9942TIP3   OH254020   2.252   2.399   9.496 -0.2039 -0.3973  0.2675
 9942TIP3    H154021   2.229   2.381   9.587 -0.3708 -1.0516  0.0982
 9942TIP3    H254022   2.341   2.434   9.501 -1.3621  2.7528  0.9783
 9943TIP3   OH254023   6.960   1.374   7.991  0.4355  0.0847 -0.2930
 9943TIP3    H154024   6.931   1.283   7.987 -0.8760  0.4556  0.2448
 9943TIP3    H254025   6.999   1.383   8.078 -1.0879  0.4705  0.3877
 9944TIP3   OH254026   1.208   3.149   8.667 -0.4922 -0.3916 -0.2909
 9944TIP3    H154027   1.153   3.169   8.591 -0.2571  0.4147 -0.2517
 9944TIP3    H254028   1.297   3.168   8.638 -0.1695 -2.0338 -0.4664
 9945TIP3   OH254029   5.421   6.875   8.460 -0.2667  0.0961  0.4439
 9945TIP3    H154030   5.487   6.824   8.507 -0.6731  0.2850  1.2311
 9945TIP3    H254031   5.348   6.814   8.447  0.1188 -0.1612 -0.5732
 9946TIP3   OH254032   1.730   3.951   9.008  0.2449  0.8139 -0.1282
 9946TIP3    H154033   1.813   3.979   9.046  0.2093 -0.3470  0.8566
 9946TIP3    H254034   1.665   3.969   9.076 -0.1956  1.0025 -0.5943
 9947TIP3   OH254035   3.455   7.345   9.151 -0.3808 -0.4893  0.0792
 9947TIP3    H154036   3.542   7.341   9.112 -1.0737 -2.0180 -1.4811
 9947TIP3    H254037   3.467   7.313   9.241  0.9920  1.4996  0.6667
 9948TIP3   OH254038   1.378   7.941   8.266  0.0881 -0.5146 -0.2055
 9948TIP3    H154039   1.289   7.918   8.294  0.3373 -1.0219  0.1949
 9948TIP3    H254040   1.369   7.964   8.173 -0.6102  0.3521  0.0647
 9949TIP3   OH254041   1.674   5.237   8.603 -0.1548  0.5444 -0.4308
 9949TIP3    H154042   1.600   5.236   8.663  0.5312  1.2993  0.4722
 9949TIP3    H254043   1.674   5.151   8.562 -0.4399 -0.1317  0.9268
 9950TIP3   OH254044   5.220   3.649   9.374 -0.4444  0.7511 -0.3883
 9950TIP3    H154045   5.178   3.684   9.296 -0.7334  1.6027  0.1260
 9950TIP3    H254046   5.204   3.716   9.441 -1.6051 -0.6831  0.8266
 9951TIP3   OH254047   2.976   1.551   8.551  0.0546  0.4850 -0.0814
 9951TIP3    H154048   2.890   1.587   8.573 -0.2916 -0.2683 -0.1400
 9951TIP3    H254049   2.971   1.534   8.457 -0.9045 -2.4026  0.3615
 9952TIP3   OH254050   4.970   3.466   9.240 -0.0619  0.1709 -0.5656
 9952TIP3    H154051   5.002   3.533   9.180 -0.2434  2.0003  1.2654
 9952TIP3    H254052   4.888   3.502   9.275 -0.4051 -1.2283  0.1588
 9953TIP3   OH254053   0.844   3.661   8.794 -0.8491 -0.1157  0.1440
 9953TIP3    H154054   0.937   3.686   8.799 -1.3790  2.0155  0.1658
 9953TIP3    H254055   0.846   3.567   8.776  1.3369  0.1906 -1.6401
 9954TIP3   OH254056   2.339   6.744   8.996 -0.1258 -0.2661  0.3677
 9954TIP3    H154057   2.255   6.771   9.033  0.6595  0.9791  1.3200
 9954TIP3    H254058   2.348   6.652   9.020 -0.8499 -0.1951  0.9417
 9955TIP3   OH254059   8.309   1.807   8.585  0.1218 -0.5817  0.1945
 9955TIP3    H154060   8.311   1.879   8.523 -1.4535  1.7081  2.5744
 9955TIP3    H254061   8.230   1.758   8.564 -0.9432  0.7666  0.9130
 9956TIP3   OH254062   2.660   8.242   9.573 -0.0675  0.0756  0.1927
 9956TIP3    H154063   2.729   8.181   9.600 -0.2651  0.0215  0.5896
 9956TIP3    H254064   2.706   8.320   9.545  0.2276 -0.4956 -0.9752
 9957TIP3   OH254065   4.134   4.500   7.641 -0.0927 -0.1276  0.8892
 9957TIP3    H154066   4.094   4.564   7.583  0.0919  1.0602  2.0186
 9957TIP3    H254067   4.173   4.553   7.712  0.4214 -1.4590  1.6391
 9958TIP3   OH254068   3.102   7.405   9.323  0.0256  0.5281  0.4942
 9958TIP3    H154069   3.166   7.453   9.271 -0.9120 -0.1417 -1.3770
 9958TIP3    H254070   3.037   7.471   9.350 -0.6005  0.5515 -1.0097
 9959TIP3   OH254071   5.108   7.992   7.880  0.4264  0.1613 -0.6864
 9959TIP3    H154072   5.108   7.922   7.815  1.0400 -0.0723 -0.4429
 9959TIP3    H254073   5.198   7.995   7.913  0.8246  2.1315 -1.8165
 9960TIP3   OH254074   8.024   0.302   9.193  0.1585 -0.2421 -0.6052
 9960TIP3    H154075   8.087   0.296   9.265 -0.1684  0.3706 -0.2663
 9960TIP3    H254076   8.044   0.226   9.138 -0.5987 -1.6162  0.9436
 9961TIP3   OH254077   1.876   7.556   9.476 -0.6213  0.7300  0.5971
 9961TIP3    H154078   1.895   7.492   9.407 -1.6292  1.7347 -0.6508
 9961TIP3    H254079   1.781   7.563   9.476 -0.5296  2.2978  0.6271
 9962TIP3   OH254080   1.485   1.558   8.915 -1.1534  0.1319  0.4721
 9962TIP3    H154081   1.485   1.646   8.878 -0.7505 -0.1068 -0.1140
 9962TIP3    H254082   1.577   1.536   8.925 -1.2119 -0.8219 -0.8638
 9963TIP3   OH254083   0.612   6.237   8.274  0.4483 -0.3423  0.2333
 9963TIP3    H154084   0.604   6.325   8.238  0.7970 -1.1501 -1.9284
 9963TIP3    H254085   0.522   6.204   8.279  0.4049 -0.2496  0.0473
 9964TIP3   OH254086   6.264   6.073  10.466 -0.1192 -0.0637 -0.4960
 9964TIP3    H154087   6.225   6.161  10.465 -1.1810 -0.4850  1.0430
 9964TIP3    H254088   6.190   6.014  10.451  0.1723 -0.8095  0.8818
 9965TIP3   OH254089   2.053   1.356   7.813  0.4264  0.0986 -0.8653
 9965TIP3    H154090   2.109   1.295   7.860  2.0652  2.0697 -0.0936
 9965TIP3    H254091   2.009   1.303   7.747  1.1168 -2.0235  0.2955
 9966TIP3   OH254092   4.676   2.854   8.899 -0.5992 -0.6958  0.3558
 9966TIP3    H154093   4.598   2.799   8.906 -1.3138  0.4188  1.6204
 9966TIP3    H254094   4.712   2.856   8.988 -1.4974  2.1045  0.7313
 9967TIP3   OH254095   7.198   6.884   9.891 -0.3415 -0.1221 -0.3657
 9967TIP3    H154096   7.188   6.872   9.797 -1.2685 -2.1574 -0.0598
 9967TIP3    H254097   7.220   6.797   9.924 -0.9673  0.3454  1.4105
 9968TIP3   OH254098   2.085   2.731   7.986 -0.2395  0.0327 -0.7346
 9968TIP3    H154099   2.175   2.739   8.017 -0.5984  0.3293  0.2667
 9968TIP3    H254100   2.037   2.797   8.035 -1.1569 -0.6571 -0.6855
 9969TIP3   OH254101   7.424   1.855   9.290  0.5582 -0.4977 -0.4364
 9969TIP3    H154102   7.356   1.807   9.244  0.4446 -1.3042  0.5372
 9969TIP3    H254103   7.378   1.903   9.359  0.7913  0.2445 -0.7825
 9970TIP3   OH254104   0.348   7.843   7.894 -0.4664  0.0006 -0.0804
 9970TIP3    H154105   0.373   7.926   7.934 -0.2338 -0.8094  1.5243
 9970TIP3    H254106   0.307   7.794   7.965  0.5095 -1.7371 -0.6642
 9971TIP3   OH254107   0.138   1.727   7.795 -0.8236  0.1865  0.4709
 9971TIP3    H154108   0.092   1.649   7.827 -1.1456  0.2546  0.1923
 9971TIP3    H254109   0.187   1.759   7.870 -1.6373  0.4010  0.9280
 9972TIP3   OH254110   2.471   4.967   8.199 -0.0448  0.1185 -0.3107
 9972TIP3    H154111   2.534   4.906   8.236  0.2261  0.3675 -0.3585
 9972TIP3    H254112   2.471   4.947   8.105  0.4120  0.5198 -0.4009
 9973TIP3   OH254113   6.382   0.147   8.121  0.0471 -0.2029  0.5099
 9973TIP3    H154114   6.380   0.241   8.102 -0.0137  0.1521  2.1384
 9973TIP3    H254115   6.458   0.135   8.177 -0.4361 -0.9830  1.0113
 9974TIP3   OH254116   7.823   7.497   8.523 -0.4608 -0.1011 -0.0545
 9974TIP3    H154117   7.829   7.542   8.439  1.9061 -0.3946 -0.0874
 9974TIP3    H254118   7.845   7.406   8.504 -0.0731 -0.2134  0.8589
 9975TIP3   OH254119   6.470   4.155   8.938 -0.1385 -0.1269 -0.0730
 9975TIP3    H154120   6.379   4.157   8.906  0.5910 -2.0897 -2.5959
 9975TIP3    H254121   6.493   4.247   8.949 -2.7120  0.4324  1.7160
 9976TIP3   OH254122   0.417   8.271   7.883  0.1973 -0.4545  0.1073
 9976TIP3    H154123   0.404   8.240   7.972  0.5824 -0.4935  0.1519
 9976TIP3    H254124   0.395   8.364   7.886 -0.0018 -0.5048  0.1935
 9977TIP3   OH254125   2.057   5.562   8.148 -0.2011 -0.1404  0.6562
 9977TIP3    H154126   2.061   5.640   8.093  3.0156 -1.0332 -0.6280
 9977TIP3    H254127   1.998   5.503   8.102 -0.5649  0.5461  0.2248
 9978TIP3   OH254128   2.352   0.616   9.527  0.1408  0.4645 -0.6503
 9978TIP3    H154129   2.375   0.525   9.548 -2.2727 -0.2994 -0.9969
 9978TIP3    H254130   2.393   0.631   9.441  0.2233 -0.4394 -0.7785
 9979TIP3   OH254131   5.888   6.655   9.373 -0.2191  0.0234 -0.2277
 9979TIP3    H154132   5.901   6.570   9.332 -0.1342  1.2735 -3.0413
 9979TIP3    H254133   5.795   6.673   9.363  0.0061  0.8546 -1.0706
 9980TIP3   OH254134   0.009   5.915   8.562  0.7579  0.0915 -0.2996
 9980TIP3    H154135   0.044   5.906   8.474  1.1546 -0.6028 -0.0812
 9980TIP3    H254136  -0.022   5.827   8.585  0.8785  0.2049  0.3353
 9981TIP3   OH254137   6.857   6.634   8.872  0.3334  0.3784 -0.0464
 9981TIP3    H154138   6.766   6.604   8.867 -0.2233  1.8893  0.5174
 9981TIP3    H254139   6.887   6.602   8.957  0.3142 -0.0739 -0.2058
 9982TIP3   OH254140   5.139   5.642   8.056 -0.3403 -0.4690  0.4903
 9982TIP3    H154141   5.203   5.697   8.102 -0.0776  0.4844 -0.9382
 9982TIP3    H254142   5.054   5.678   8.082 -0.1731  0.6423 -0.3870
 9983TIP3   OH254143   4.379   4.542   8.872  0.0664 -0.6932 -0.6143
 9983TIP3    H154144   4.330   4.466   8.841  0.2336 -0.3085 -1.8688
 9983TIP3    H254145   4.374   4.606   8.800 -1.0961  0.9768  0.8706
 9984TIP3   OH254146   3.059   3.906   7.882 -0.0303  0.0931 -0.1886
 9984TIP3    H154147   3.021   3.970   7.822 -0.0414  0.3505  0.0894
 9984TIP3    H254148   3.037   3.939   7.969  0.8797  0.2763 -0.0245
 9985TIP3   OH254149   7.177   4.787   8.661  0.4592  0.3182  0.3273
 9985TIP3    H154150   7.243   4.845   8.622  0.6584  0.6271  1.1080
 9985TIP3    H254151   7.221   4.702   8.668  0.5880  0.3857  0.3407
 9986TIP3   OH254152   2.200   2.319   9.772 -0.1073 -0.4221  0.5482
 9986TIP3    H154153   2.108   2.335   9.748  0.3634 -0.3570 -1.3608
 9986TIP3    H254154   2.200   2.231   9.809 -0.8928 -0.5214  0.3323
 9987TIP3   OH254155   4.613   0.774   8.656 -0.4037 -0.1045  0.1955
 9987TIP3    H154156   4.708   0.769   8.644 -0.0275  0.3396  2.5671
 9987TIP3    H254157   4.602   0.814   8.742 -2.7722  0.6060 -0.3668
 9988TIP3   OH254158   0.520   0.103   8.256 -0.3241 -0.1265 -0.1743
 9988TIP3    H154159   0.525   0.193   8.225 -1.3265 -0.6994 -2.2129
 9988TIP3    H254160   0.450   0.104   8.321 -1.0133  0.4283 -0.8961
 9989TIP3   OH254161   0.676   6.432   8.095  0.2797 -0.9349  0.5071
 9989TIP3    H154162   0.681   6.420   8.000 -2.7280 -0.6456  0.2185
 9989TIP3    H254163   0.734   6.505   8.113  0.1220 -0.3121 -1.2889
 9990TIP3   OH254164   0.693   0.861   7.766  0.0401  0.0920  0.4492
 9990TIP3    H154165   0.753   0.788   7.751 -1.4004 -0.9788 -0.2816
 9990TIP3    H254166   0.625   0.851   7.700 -0.7663  1.4918  1.0172
 9991TIP3   OH254167   1.540   8.218   8.140 -0.7200 -0.0151 -0.3113
 9991TIP3    H154168   1.582   8.260   8.065 -2.9223  0.3565 -1.4227
 9991TIP3    H254169   1.492   8.144   8.103 -2.8102  0.8500  0.4605
 9992TIP3   OH254170   4.163   1.542   8.519  0.0123  0.5767  0.2104
 9992TIP3    H154171   4.168   1.537   8.615  1.3899 -1.1236  0.0989
 9992TIP3    H254172   4.245   1.582   8.493  0.2406 -0.1981 -0.3055
 9993TIP3   OH254173   0.200   8.027   8.926  0.1371  0.1665 -0.0046
 9993TIP3    H154174   0.163   8.000   8.842 -0.4705  1.7434 -0.2802
 9993TIP3    H254175   0.192   7.949   8.982 -1.2126 -0.3340 -0.8415
 9994TIP3   OH254176   6.759   5.911   9.073  0.1746  0.1942 -0.6847
 9994TIP3    H154177   6.731   5.832   9.026  0.1939  0.2643 -0.8138
 9994TIP3    H254178   6.773   5.976   9.005  0.6816  0.1507 -0.6283
 9995TIP3   OH254179   4.574   3.485   8.205 -0.6651 -0.0785 -0.8805
 9995TIP3    H154180   4.517   3.420   8.246  0.2115  0.3819  1.1945
 9995TIP3    H254181   4.651   3.436   8.177  0.6714  0.1634  2.0216
 9996TIP3   OH254182   5.717   6.523   8.714  0.3758  0.0141 -0.3316
 9996TIP3    H154183   5.747   6.505   8.803  0.5120  0.7394 -0.2297
 9996TIP3    H254184   5.660   6.449   8.693  1.6376 -1.0303 -0.2511
 9997TIP3   OH254185   3.611   5.396   8.017 -0.3463  0.4685  0.0188
 9997TIP3    H154186   3.669   5.440   8.080 -0.9614  0.5972  0.4979
 9997TIP3    H254187   3.533   5.451   8.015 -1.7225 -1.2914  1.6737
 9998TIP3   OH254188   4.899   6.038   8.293  0.6893 -0.0309 -0.0682
 9998TIP3    H154189   4.900   5.958   8.345  2.8742 -0.3823 -0.5634
 9998TIP3    H254190   4.816   6.034   8.245 -0.7007 -0.4060  2.2139
 9999TIP3   OH254191   8.434   8.360  10.285  0.1115 -0.1778  0.1798
 9999TIP3    H154192   8.371   8.395  10.349 -0.2556  0.6487 -0.6157
 9999TIP3    H254193   8.494   8.434  10.268  0.7337 -0.6640  0.2126
10000TIP3   OH254194   6.829   8.344   8.008 -0.2552  0.1181 -0.1445
10000TIP3    H154195   6.912   8.386   7.984  0.3531 -0.1163  1.4202
10000TIP3    H254196   6.780   8.339   7.926  1.3169  0.1598 -1.1263
10001TIP3   OH254197   0.003   4.120   8.633  0.2496  0.5554  0.2866
10001TIP3    H154198   0.031   4.171   8.558 -1.1286 -0.2412 -0.8172
10001TIP3    H254199  -0.048   4.182   8.686 -0.1045  0.7267 -0.2462
10002TIP3   OH254200   6.329   0.150   8.880  0.3779  0.2492 -0.2767
10002TIP3    H154201   6.235   0.155   8.902 -0.7024 -2.9224 -3.2791
10002TIP3    H254202   6.337   0.201   8.800  0.8793 -0.7658 -0.8779
10003TIP3   OH254203   5.655   6.196   8.798  0.0536  0.5146  0.6032
10003TIP3    H154204   5.594   6.129   8.826  0.6677  0.2301  1.3084
10003TIP3    H254205   5.724   6.194   8.864  1.7233 -0.3842 -1.0681
10004TIP3   OH254206   8.099   0.773   9.761  0.0871  0.2834  0.2101
10004TIP3    H154207   8.087   0.693   9.710 -0.0960 -0.7583  1.8172
10004TIP3    H254208   8.192   0.776   9.781  0.4234  1.4482 -1.3032
10005TIP3   OH254209   0.483   1.764   9.653  0.3055 -0.2661  0.2697
10005TIP3    H154210   0.474   1.856   9.630  0.1124 -0.3451  0.0219
10005TIP3    H254211   0.566   1.759   9.699  0.6810 -0.0948 -0.3731
10006TIP3   OH254212   1.494   0.696   8.094 -0.2078 -0.1560  0.2480
10006TIP3    H154213   1.551   0.618   8.096 -1.4572 -1.0987 -0.0236
10006TIP3    H254214   1.498   0.727   8.004  0.7232  0.4507  0.4791
10007TIP3   OH254215   3.120   0.254   8.906 -0.0546  0.0529 -0.0303
10007TIP3    H154216   3.165   0.208   8.835  0.6717  2.0552 -0.9589
10007TIP3    H254217   3.030   0.266   8.875 -0.9842 -2.7312  1.2440
10008TIP3   OH254218   3.875   3.415   9.158 -0.3581  0.0488 -0.5445
10008TIP3    H154219   3.817   3.453   9.091  0.6962  2.5458 -0.1482
10008TIP3    H254220   3.957   3.397   9.112  0.1214  1.0627 -0.1048
10009TIP3   OH254221   7.072   3.547   7.890  0.2407 -0.0042  0.2382
10009TIP3    H154222   7.155   3.501   7.901  0.5954 -0.0682 -2.0659
10009TIP3    H254223   7.009   3.496   7.942  1.3431 -0.8957  0.7326
10010TIP3   OH254224   5.620   3.228  10.145 -0.1109 -0.5917  0.3802
10010TIP3    H154225   5.712   3.207  10.156 -0.1466 -0.5959  0.6787
10010TIP3    H254226   5.579   3.144  10.122 -0.0019 -0.5407 -0.0157
10011TIP3   OH254227   3.327   8.210   9.770 -0.4032 -0.1207  0.1776
10011TIP3    H154228   3.269   8.253   9.832 -0.1095  1.0591 -0.3306
10011TIP3    H254229   3.391   8.165   9.824  0.6148  1.9212  0.7904
10012TIP3   OH254230   5.068   2.776   9.314  0.3550  0.1621 -0.3422
10012TIP3    H154231   5.090   2.683   9.303  0.7153  0.1371  0.5403
10012TIP3    H254232   5.038   2.783   9.404 -1.3415  0.5892 -0.8989
10013TIP3   OH254233   7.304   3.341   8.597 -0.1816 -0.4279 -0.1978
10013TIP3    H154234   7.249   3.272   8.559 -0.4277 -1.1336  1.3593
10013TIP3    H254235   7.357   3.372   8.524 -0.9558 -1.3934 -1.2150
10014TIP3   OH254236   5.102   2.336   9.317 -0.4009  0.2751 -0.0235
10014TIP3    H154237   5.157   2.309   9.391  0.0757 -1.0791 -0.8373
10014TIP3    H254238   5.014   2.340   9.354 -0.6411 -3.0491  0.1264
10015TIP3   OH254239   0.473   6.849   8.109  0.3984  0.1901  0.3471
10015TIP3    H154240   0.466   6.789   8.035  0.5247 -0.0133  0.4971
10015TIP3    H254241   0.411   6.919   8.089 -0.1236 -0.2430  0.4052
10016TIP3   OH254242   7.489   6.100   7.830  0.4621 -0.1268 -0.0715
10016TIP3    H154243   7.431   6.082   7.756  0.4293 -2.0076  0.3564
10016TIP3    H254244   7.573   6.061   7.804  0.5729 -0.4129  0.7031
10017TIP3   OH254245   8.390   1.561   9.526 -0.2984 -0.0837  0.1094
10017TIP3    H154246   8.344   1.570   9.610 -0.0767  1.6072  0.0825
10017TIP3    H254247   8.441   1.481   9.536 -2.2812 -1.3629  0.5923
10018TIP3   OH254248   7.154   7.751   9.107 -0.5752 -0.1738  0.3382
10018TIP3    H154249   7.095   7.709   9.169 -1.7704  2.3120  1.0331
10018TIP3    H254250   7.129   7.844   9.110  3.0899  0.9637  0.3545
10019TIP3   OH254251   4.079   3.669   9.090  0.2073  0.6363 -0.4194
10019TIP3    H154252   4.067   3.682   8.995 -2.8469  2.9908  0.1192
10019TIP3    H254253   4.120   3.750   9.120  0.9556 -0.0072  0.3270
10020TIP3   OH254254   4.353   1.572   7.875 -0.2725  0.1051 -0.0111
10020TIP3    H154255   4.285   1.562   7.941  0.1346 -0.6166  0.3032
10020TIP3    H254256   4.365   1.667   7.867  0.3819  0.2011  1.6831
10021TIP3   OH254257   4.107   8.424   9.100  0.2051 -0.1783  0.6073
10021TIP3    H154258   4.041   8.474   9.148 -0.6360  0.6502 -1.3092
10021TIP3    H254259   4.190   8.448   9.141 -0.4281  0.8215  1.3442
10022TIP3   OH254260   0.792   1.429   8.709 -0.0290  0.1773  0.5648
10022TIP3    H154261   0.748   1.455   8.790  0.2758 -0.6135  0.9909
10022TIP3    H254262   0.826   1.342   8.727  2.0105  0.8858  0.3679
10023TIP3   OH254263   2.208   8.242   8.145 -0.3834  0.5658  0.2704
10023TIP3    H154264   2.200   8.237   8.241  0.8624  1.9447  0.4926
10023TIP3    H254265   2.214   8.151   8.116  0.3736  0.1570  1.6298
10024TIP3   OH254266   5.801   3.744   7.864  0.1547 -0.2296  0.3920
10024TIP3    H154267   5.723   3.690   7.868 -0.4192  0.3768 -1.5220
10024TIP3    H254268   5.803   3.791   7.947 -2.4465  0.9814 -0.1641
10025TIP3   OH254269   2.663   2.366   8.282  0.3130 -0.1088  0.6289
10025TIP3    H154270   2.746   2.319   8.288  1.0297  0.8539 -1.1365
10025TIP3    H254271   2.658   2.396   8.191 -1.5395  0.6411  0.9274
10026TIP3   OH254272   6.508   7.058   9.525 -0.3200 -0.1669 -0.0659
10026TIP3    H154273   6.531   7.150   9.535 -1.3245  0.0974 -0.1892
10026TIP3    H254274   6.570   7.025   9.459 -0.9485  0.7935 -1.1615
10027TIP3   OH254275   7.645   0.112   8.273 -0.1416 -0.4049  0.0245
10027TIP3    H154276   7.690   0.176   8.329  0.2010  0.2500 -0.9630
10027TIP3    H254277   7.715   0.056   8.239 -0.0998  0.3036 -1.1190
10028TIP3   OH254278   3.855   5.809   8.287 -0.5107 -0.6264 -0.3729
10028TIP3    H154279   3.890   5.802   8.375  2.6175  0.2235 -1.4480
10028TIP3    H254280   3.765   5.841   8.300 -0.3684 -1.0812  2.4551
10029TIP3   OH254281   3.603   4.341   7.857  0.4402 -0.0710 -0.0758
10029TIP3    H154282   3.679   4.326   7.913  0.8686  0.6426 -0.4641
10029TIP3    H254283   3.606   4.270   7.793  0.9658  0.1401 -0.2896
10030TIP3   OH254284   0.244   8.149   8.104  0.2932  0.8572  0.1348
10030TIP3    H154285   0.192   8.210   8.157 -0.4361  0.2893  0.0947
10030TIP3    H254286   0.179   8.095   8.059  0.9101 -0.3570  0.6467
10031TIP3   OH254287   6.214   1.445   9.002 -0.2642 -0.2143 -0.5381
10031TIP3    H154288   6.141   1.506   9.007  0.9521  1.2261  3.5024
10031TIP3    H254289   6.292   1.500   9.001  0.9100 -1.3575  3.8514
10032TIP3   OH254290   1.248   7.116   7.814  0.5616 -0.2415  0.3074
10032TIP3    H154291   1.186   7.058   7.859 -0.6167  0.7039 -0.0559
10032TIP3    H254292   1.327   7.062   7.802 -0.1563 -1.4485  0.8384
10033TIP3   OH254293   4.219   0.554   9.367 -0.1586 -0.0979 -0.1052
10033TIP3    H154294   4.299   0.521   9.408  1.6486  0.7999 -2.6416
10033TIP3    H254295   4.202   0.638   9.410  0.9954  0.2599 -0.3226
10034TIP3   OH254296   3.280   6.452   8.956  0.1117 -0.0488 -0.1997
10034TIP3    H154297   3.375   6.451   8.950  0.3340  1.2297  2.0318
10034TIP3    H254298   3.258   6.379   9.015 -0.2023  0.2803  0.0963
10035TIP3   OH254299   1.529   3.678   7.535  0.2552  0.0555  0.6987
10035TIP3    H154300   1.598   3.678   7.601  0.5246 -1.3024  0.4396
10035TIP3    H254301   1.575   3.663   7.452 -0.3157 -0.5747  0.4852
10036TIP3   OH254302   7.870   7.286  10.241  0.5207 -0.3323  0.3782
10036TIP3    H154303   7.853   7.376  10.270  1.3212 -0.2745  0.6803
10036TIP3    H254304   7.783   7.248  10.229  0.1770  0.4213  0.4417
10037TIP3   OH254305   2.599   4.173   8.564  0.2291  0.0773  0.2976
10037TIP3    H154306   2.552   4.199   8.643 -0.7076  1.0274 -0.5462
10037TIP3    H254307   2.536   4.186   8.493  0.4593 -2.3753 -0.4535
10038TIP3   OH254308   7.685   6.389   8.858  0.4944  0.7344 -0.2366
10038TIP3    H154309   7.743   6.324   8.818  0.2356 -0.1662  0.8033
10038TIP3    H254310   7.631   6.421   8.786  0.0226 -0.8651 -0.6243
10039TIP3   OH254311   7.106   5.578   7.858  0.4052  0.1001  0.4200
10039TIP3    H154312   7.064   5.516   7.799  1.5646 -0.2999 -0.0217
10039TIP3    H254313   7.034   5.627   7.897 -0.4374 -0.2798 -0.6062
10040TIP3   OH254314   7.264   6.008   9.203 -0.3176  0.0237  0.5122
10040TIP3    H154315   7.178   6.040   9.176 -0.4053  0.3761  1.1790
10040TIP3    H254316   7.277   6.044   9.291 -0.6269 -2.1464  1.5230
10041TIP3   OH254317   1.854   1.836   7.736 -0.4260 -0.2290 -0.2145
10041TIP3    H154318   1.914   1.766   7.761 -0.8618 -0.6157 -0.2418
10041TIP3    H254319   1.768   1.805   7.763 -0.5848  0.4448  0.0755
10042TIP3   OH254320   6.143   8.379   8.342 -0.2827  0.4296 -0.0991
10042TIP3    H154321   6.085   8.455   8.343  2.4944  2.7405  1.5987
10042TIP3    H254322   6.197   8.391   8.264  1.5409  1.4943  1.2336
10043TIP3   OH254323   4.031   2.996   8.035 -0.3736 -0.5766 -0.1432
10043TIP3    H154324   4.040   2.905   8.065 -1.4168 -1.2427 -1.7081
10043TIP3    H254325   3.991   2.989   7.948 -3.9352  1.5016  1.1169
10044TIP3   OH254326   8.346   5.569   9.000 -0.4296  0.0199 -0.4822
10044TIP3    H154327   8.406   5.633   8.961  0.3716 -1.1825 -1.2932
10044TIP3    H254328   8.287   5.545   8.929  0.2306 -1.2449 -0.6288
10045TIP3   OH254329   1.649   7.677   8.931  0.0864  0.5854  0.5546
10045TIP3    H154330   1.711   7.750   8.941  0.5520  0.2021  0.4448
10045TIP3    H254331   1.565   7.714   8.960  0.5658  0.7990  1.7600
10046TIP3   OH254332   7.514   1.729   8.639  0.2444  0.5276 -0.2476
10046TIP3    H154333   7.565   1.810   8.645 -0.2057  0.7937  0.0233
10046TIP3    H254334   7.425   1.757   8.617  0.1618  0.0823 -0.5022
10047TIP3   OH254335   3.798   4.420   9.813 -0.5239  0.6311 -0.2065
10047TIP3    H154336   3.801   4.461   9.727 -1.4747  0.2857 -0.4111
10047TIP3    H254337   3.756   4.485   9.869  0.9932  1.2691  0.2577
10048TIP3   OH254338   6.426   7.519   9.435 -0.4381  0.0185 -0.1785
10048TIP3    H154339   6.409   7.564   9.353 -0.7903 -0.1086 -0.1744
10048TIP3    H254340   6.391   7.576   9.503  1.0438  0.7755  0.0033
10049TIP3   OH254341   5.585   7.250   9.676 -0.4137 -0.3047  0.2044
10049TIP3    H154342   5.613   7.325   9.729 -1.5513  0.0277  0.3555
10049TIP3    H254343   5.565   7.288   9.590  0.4392 -0.6852 -0.1752
10050TIP3   OH254344   2.583   6.960   8.555  0.6300 -0.2654 -0.3798
10050TIP3    H154345   2.550   7.005   8.477  1.8373 -1.9623 -1.9782
10050TIP3    H254346   2.673   6.992   8.565 -0.3126  1.9286  2.0047
10051TIP3   OH254347   6.109   7.046  10.259 -0.5649 -0.5842  0.3916
10051TIP3    H154348   6.046   6.975  10.264 -0.3897 -0.6686  1.6950
10051TIP3    H254349   6.183   7.010  10.210 -1.2349 -0.6996 -0.5467
10052TIP3   OH254350   5.047   2.271   8.534 -0.0324 -0.4853 -0.2549
10052TIP3    H154351   4.990   2.339   8.570 -1.5543 -1.9059  0.1459
10052TIP3    H254352   5.088   2.312   8.458 -2.4523  0.3195 -1.2450
10053TIP3   OH254353   4.938   4.499   9.039  0.3200  0.0190 -0.0686
10053TIP3    H154354   4.939   4.594   9.045 -0.2389  0.0669 -0.6318
10053TIP3    H254355   5.027   4.476   9.012  0.3676  0.4116 -0.2590
10054TIP3   OH254356   3.851   3.322   8.795 -0.7914  0.8350 -0.0422
10054TIP3    H154357   3.807   3.407   8.802 -3.2935 -0.1865 -1.6289
10054TIP3    H254358   3.915   3.334   8.724 -1.6550  1.2325 -0.7781
10055TIP3   OH254359   1.086   0.667   7.950  0.1857  0.4178 -0.0603
10055TIP3    H154360   1.143   0.651   8.025  0.5825 -1.1527 -0.6428
10055TIP3    H254361   1.117   0.605   7.883 -0.3623  1.5530 -1.4099
10056TIP3   OH254362   2.235   4.773   9.693  0.2476 -0.4251  0.3345
10056TIP3    H154363   2.292   4.842   9.659  0.1855  0.2929  1.6234
10056TIP3    H254364   2.292   4.697   9.703  0.4088 -0.4550 -0.7063
10057TIP3   OH254365   4.318   3.597   7.777 -0.2794 -0.1476  0.4102
10057TIP3    H154366   4.290   3.548   7.700  0.0333  0.1938  0.0799
10057TIP3    H254367   4.329   3.530   7.845  1.7065 -0.7830 -0.4648
10058TIP3   OH254368   0.633   4.623   8.900 -0.2057 -0.0235 -0.1678
10058TIP3    H154369   0.700   4.649   8.837  0.6862 -0.3763  0.6003
10058TIP3    H254370   0.636   4.691   8.968 -1.2290  0.4123 -0.5407
10059TIP3   OH254371   5.577   4.225   8.686  0.2652  0.1466  0.1743
10059TIP3    H154372   5.577   4.314   8.720  1.4280 -0.7312  2.7410
10059TIP3    H254373   5.540   4.172   8.756  1.6526 -1.6658 -0.3635
10060TIP3   OH254374   3.265   4.458   7.729  0.2410  0.2526 -0.4986
10060TIP3    H154375   3.319   4.519   7.780  1.9513 -1.3255 -0.2903
10060TIP3    H254376   3.244   4.506   7.649  0.5476  1.5063  0.1448
10061TIP3   OH254377   7.738   3.994   9.552 -0.0349 -0.2809  0.0053
10061TIP3    H154378   7.766   4.006   9.461 -1.0901  1.7814 -0.1097
10061TIP3    H254379   7.665   4.055   9.563 -2.5106 -3.1923  1.1417
10062TIP3   OH254380   0.711   3.701   8.227  0.0708  0.0551 -0.3866
10062TIP3    H154381   0.713   3.773   8.164 -2.1040 -1.1223 -1.9169
10062TIP3    H254382   0.799   3.663   8.224  0.7616  1.6094 -0.7573
10063TIP3   OH254383   3.338   6.818   9.727  0.3895 -0.4111  0.5249
10063TIP3    H154384   3.357   6.731   9.762  0.2814 -1.0946 -1.0087
10063TIP3    H254385   3.278   6.802   9.654  1.8139  0.7275 -0.9928
10064TIP3   OH254386   0.823   3.506   7.403 -0.0179  0.5684  0.2473
10064TIP3    H154387   0.746   3.552   7.367 -0.2175  0.2557  0.2697
10064TIP3    H254388   0.885   3.504   7.330 -0.0297  0.8184  0.2271
10065TIP3   OH254389   6.895   5.962   9.686 -0.3410  0.2649  0.5168
10065TIP3    H154390   6.830   6.017   9.642 -1.0371 -0.0519  1.1393
10065TIP3    H254391   6.881   5.875   9.650  0.6244  0.4330 -0.3125
10066TIP3   OH254392   6.727   6.522   9.671  0.4578 -0.3454  0.1871
10066TIP3    H154393   6.636   6.550   9.666  1.0392  2.5767  2.8285
10066TIP3    H254394   6.773   6.582   9.611  0.7905 -1.2269 -0.4595
10067TIP3   OH254395   0.713   7.816   9.201  0.9134 -0.2542  0.1020
10067TIP3    H154396   0.790   7.872   9.211  2.1902 -1.3901 -2.4029
10067TIP3    H254397   0.743   7.728   9.226  0.0298 -0.4850  0.4048
10068TIP3   OH254398   3.449   1.864   8.389  0.2104 -0.3886  0.5239
10068TIP3    H154399   3.521   1.834   8.445 -0.0843 -1.8063  0.1795
10068TIP3    H254400   3.486   1.936   8.338  0.9037 -0.0421  1.4988
10069TIP3   OH254401   5.026   6.518   8.332  1.0467 -0.6666  0.1245
10069TIP3    H154402   5.051   6.426   8.326 -0.0275 -0.9812  0.1541
10069TIP3    H254403   4.947   6.526   8.277  0.4749 -0.0255  0.9949
10070TIP3   OH254404   0.545   0.938   7.456 -0.0538  0.2226 -0.4348
10070TIP3    H154405   0.462   0.940   7.504  0.4296  1.1548  0.3827
10070TIP3    H254406   0.570   0.845   7.457 -0.7471  0.0292 -0.1123
10071TIP3   OH254407   1.005   3.761   8.479 -0.2156  0.3647 -0.1029
10071TIP3    H154408   1.074   3.802   8.428 -0.7413 -0.4669 -1.5611
10071TIP3    H254409   0.969   3.694   8.421  0.1530 -1.7045  1.9050
10072TIP3   OH254410   8.077   6.051   8.387 -0.0526 -0.3639 -0.0586
10072TIP3    H154411   8.003   6.088   8.339 -1.6210  1.5059  3.3955
10072TIP3    H254412   8.046   5.966   8.418  0.4657 -0.9706 -1.1456
10073TIP3   OH254413   4.965   1.251   7.957  0.2388 -0.1655 -0.3122
10073TIP3    H154414   4.876   1.243   7.925 -0.0493 -0.9572  0.6316
10073TIP3    H254415   4.955   1.275   8.050  1.0137  0.2361 -0.3173
10074TIP3   OH254416   2.090   5.801   8.027  0.1139  0.4611  0.1242
10074TIP3    H154417   2.144   5.811   7.949 -1.1066  0.9942 -0.6875
10074TIP3    H254418   2.008   5.847   8.006 -0.1719  0.8025  1.7952
10075TIP3   OH254419   8.144   1.030   8.761  0.4724  0.0526 -0.6656
10075TIP3    H154420   8.120   1.046   8.670 -0.8045  1.8886 -0.0604
10075TIP3    H254421   8.061   1.010   8.805  0.5605  2.1616  0.6315
10076TIP3   OH254422   5.255   3.395   8.475 -0.1463 -0.1364  0.4947
10076TIP3    H154423   5.348   3.403   8.455 -0.2879 -0.5097 -0.3544
10076TIP3    H254424   5.248   3.315   8.528  0.3184  1.2161  2.7710
10077TIP3   OH254425   1.935   6.842   9.507 -0.3388 -0.3459 -0.1349
10077TIP3    H154426   2.021   6.830   9.465 -0.2866 -1.4895  0.2722
10077TIP3    H254427   1.925   6.937   9.514 -0.3885 -0.0817 -2.8066
10078TIP3   OH254428   0.596   0.531   8.734  0.9812 -0.0169  0.2676
10078TIP3    H154429   0.533   0.602   8.750  1.2701  0.0074  1.3409
10078TIP3    H254430   0.680   0.575   8.724  0.9526 -0.1095 -0.4307
10079TIP3   OH254431   2.665   2.111   9.069  0.0552  0.3355  0.4533
10079TIP3    H154432   2.618   2.184   9.110  0.6625  1.0733 -0.1455
10079TIP3    H254433   2.645   2.120   8.975  1.1771  0.5101  0.2207
10080TIP3   OH254434   1.210   0.475   8.228 -0.2130 -0.3862  0.6182
10080TIP3    H154435   1.280   0.411   8.237 -0.5254 -0.4924  3.0398
10080TIP3    H254436   1.130   0.422   8.220 -0.2583 -0.2903  0.4335
10081TIP3   OH254437   1.263   0.028   8.895  0.0052 -0.3857  0.0523
10081TIP3    H154438   1.314   0.100   8.856  0.5089 -0.4300  0.6156
10081TIP3    H254439   1.210  -0.005   8.823  0.6785 -0.2496 -0.5239
10082TIP3   OH254440   4.659   5.499   8.944 -0.4433 -0.3039 -0.0885
10082TIP3    H154441   4.590   5.520   9.007  0.0547 -1.1473  0.7648
10082TIP3    H254442   4.727   5.564   8.959 -1.4767  1.2137 -1.6833
10083TIP3   OH254443   0.443   1.446   9.380  0.2440  0.2267  0.5878
10083TIP3    H154444   0.447   1.459   9.475 -0.7287 -0.0001  0.6705
10083TIP3    H254445   0.478   1.358   9.367 -2.9650 -1.3066  1.1754
10084TIP3   OH254446   6.779   7.172   9.771  0.2872  0.2931 -0.2108
10084TIP3    H154447   6.778   7.152   9.677 -0.4321 -0.0537 -0.1366
10084TIP3    H254448   6.804   7.090   9.813 -4.5813 -1.2871  0.2318
10085TIP3   OH254449   6.558   0.958   8.274  0.0933 -0.0673 -0.3914
10085TIP3    H154450   6.576   0.996   8.188 -0.9374 -0.1780 -0.6616
10085TIP3    H254451   6.491   1.016   8.312 -0.0897 -0.5203 -0.0185
10086TIP3   OH254452   3.184   4.610   7.971  0.1793  0.3422 -0.0370
10086TIP3    H154453   3.208   4.683   7.914  0.4191  0.2571 -0.0468
10086TIP3    H254454   3.263   4.556   7.976 -0.6287 -1.1651 -1.9340
10087TIP3   OH254455   1.252   5.960   9.052 -0.3808  0.1455  0.5999
10087TIP3    H154456   1.252   6.051   9.022  2.5218  0.1293  0.2742
10087TIP3    H254457   1.211   5.911   8.981  1.9782  0.7243 -1.3117
10088TIP3   OH254458   3.634   5.146   7.935  0.5588 -0.0026  0.4875
10088TIP3    H154459   3.726   5.130   7.914  0.2315 -0.9954 -0.2611
10088TIP3    H254460   3.631   5.238   7.962  1.7235  0.1132  0.2564
10089TIP3   OH254461   4.977   4.186   9.016 -0.0561 -0.0099  0.4881
10089TIP3    H154462   5.020   4.117   8.965 -0.7677 -0.3566  0.3416
10089TIP3    H254463   4.974   4.261   8.957  0.5387  0.0939  0.5769
10090TIP3   OH254464   5.714   1.807   8.895  0.2681  0.0300  0.2096
10090TIP3    H154465   5.747   1.765   8.974 -0.5849 -0.3380  0.3784
10090TIP3    H254466   5.634   1.852   8.923  0.1603  0.2090 -0.3683
10091TIP3   OH254467   4.485   2.223   9.660  0.2598  0.2373  0.3443
10091TIP3    H154468   4.456   2.162   9.728 -0.7080 -1.0444 -1.1365
10091TIP3    H254469   4.575   2.195   9.640  0.4770  0.4960  0.9574
10092TIP3   OH254470   2.910   5.136   8.840  0.1601  0.4444  0.0494
10092TIP3    H154471   2.978   5.103   8.782  0.1979 -0.0042  0.3477
10092TIP3    H254472   2.879   5.059   8.888  0.1151  0.8072  0.6124
10093TIP3   OH254473   0.883   2.719   8.579  0.1954  0.2274 -0.6883
10093TIP3    H154474   0.846   2.747   8.662 -0.1633 -0.3887 -0.6411
10093TIP3    H254475   0.945   2.650   8.602  0.3240  0.2666 -0.9070
10094TIP3   OH254476   1.500   5.103   7.868  0.0793  0.5823  0.6964
10094TIP3    H154477   1.407   5.096   7.890  0.1488  0.8896  1.1168
10094TIP3    H254478   1.542   5.035   7.920  0.2462  1.3199  1.5571
10095TIP3   OH254479   5.806   0.916   9.486 -0.0398 -0.4067  0.2791
10095TIP3    H154480   5.874   0.870   9.535 -1.6824 -1.1211  2.0235
10095TIP3    H254481   5.837   1.006   9.479  0.2466 -0.2363  2.7961
10096TIP3   OH254482   0.199   1.392   7.422  0.3182  0.3404 -0.0004
10096TIP3    H154483   0.184   1.363   7.332  0.8628  0.0855 -0.0120
10096TIP3    H254484   0.115   1.429   7.449 -0.0485 -0.2042 -0.3761
10097TIP3   OH254485   0.373   3.356   8.614  0.4429  0.6578  0.4775
10097TIP3    H154486   0.427   3.395   8.546  0.5691  0.5728  0.5270
10097TIP3    H254487   0.353   3.428   8.674 -1.0844  1.1067 -0.5318
10098TIP3   OH254488   8.170   5.632   7.986 -0.1035  0.3020 -0.2694
10098TIP3    H154489   8.262   5.615   8.007  0.0453  1.0520 -0.2939
10098TIP3    H254490   8.122   5.581   8.051  0.3390  0.9961  0.6206
10099TIP3   OH254491   4.545   1.780   9.312 -0.3275  0.2488 -0.1098
10099TIP3    H154492   4.576   1.810   9.397  1.7291 -0.3111 -0.6168
10099TIP3    H254493   4.540   1.685   9.320 -0.7792  0.2414 -0.4178
10100TIP3   OH254494   6.007   4.611   9.068  0.1083  0.0316 -0.1366
10100TIP3    H154495   6.090   4.572   9.038 -1.0563 -1.3199 -1.8032
10100TIP3    H254496   6.023   4.633   9.160  1.9866 -1.1985 -0.1037
10101TIP3   OH254497   1.703   6.753   9.336 -0.1410 -0.2497  0.3114
10101TIP3    H154498   1.776   6.754   9.398  0.4511 -2.1906 -0.2869
10101TIP3    H254499   1.635   6.804   9.379  1.0875  0.4825  1.4796
10102TIP3   OH254500   5.357   0.242  14.661 -0.8232  0.1867 -0.0624
10102TIP3    H154501   5.419   0.302  14.621 -0.3780  0.8389  1.5476
10102TIP3    H254502   5.325   0.288  14.738 -1.3316 -1.1871  0.5783
10103TIP3   OH254503   0.992   3.512   9.398  0.0680 -0.0639 -0.0077
10103TIP3    H154504   0.988   3.459   9.318 -0.5500 -0.5798  0.3530
10103TIP3    H254505   0.998   3.447   9.469  2.3052  0.3923  0.3003
10104TIP3   OH254506   1.121   7.908   9.496 -0.9259 -0.1168  0.0203
10104TIP3    H154507   1.094   7.816   9.494  0.4959 -0.5570  0.3273
10104TIP3    H254508   1.074   7.944   9.571 -3.3679  0.0523 -1.4903
10105TIP3   OH254509   7.190   4.965   9.541 -0.1732  0.5258 -0.1962
10105TIP3    H154510   7.169   5.057   9.523 -0.6016  0.2496 -1.1048
10105TIP3    H254511   7.107   4.919   9.536 -0.1236  0.2214  1.2434
10106TIP3   OH254512   7.620   0.299   9.229  0.2749 -0.7863 -0.2872
10106TIP3    H154513   7.554   0.233   9.206  0.4927 -0.9573 -0.4300
10106TIP3    H254514   7.675   0.256   9.295  0.7320 -0.9422 -0.7561
10107TIP3   OH254515   6.063   5.103   9.115  0.3936 -0.2822  0.0118
10107TIP3    H154516   6.127   5.053   9.064  0.1720 -0.7620  0.2009
10107TIP3    H254517   5.995   5.040   9.138 -0.2505  0.2675 -0.3437
10108TIP3   OH254518   3.423   7.473   8.899  0.2743  0.1425  0.5978
10108TIP3    H154519   3.516   7.472   8.917  0.0047  2.4021  2.5385
10108TIP3    H254520   3.384   7.418   8.967  0.2193 -1.6305 -0.8090
10109TIP3   OH254521   0.498   4.364   9.558 -0.1401  0.0426 -0.0765
10109TIP3    H154522   0.507   4.309   9.635 -0.5109  0.7198  0.4595
10109TIP3    H254523   0.587   4.386   9.533  0.0593 -1.3264 -0.6989
10110TIP3   OH254524   4.492   7.177   8.359  0.1068  0.4009  0.4494
10110TIP3    H154525   4.528   7.100   8.404  0.9334  0.3796 -0.2306
10110TIP3    H254526   4.499   7.156   8.266 -2.7446 -0.0877  0.2403
10111TIP3   OH254527   5.330   4.178   8.906 -0.1187 -0.1137  0.7950
10111TIP3    H154528   5.254   4.126   8.883 -0.6212 -0.5269  3.1860
10111TIP3    H254529   5.405   4.120   8.891 -0.0760  0.5258 -2.2648
10112TIP3   OH254530   5.582   8.043   8.637  0.0904  0.1641 -0.4091
10112TIP3    H154531   5.668   8.040   8.679 -0.0625  0.9158 -0.0382
10112TIP3    H254532   5.591   7.985   8.560  0.3908 -1.1563  0.5865
10113TIP3   OH254533   8.330   6.405   7.831  0.4901 -0.6158 -0.2453
10113TIP3    H154534   8.246   6.365   7.853  0.3868 -0.1264  0.2861
10113TIP3    H254535   8.333   6.485   7.884  0.5210  0.2889 -1.5633
10114TIP3   OH254536   4.607   6.404   9.030 -0.1507  0.4408  0.2670
10114TIP3    H154537   4.601   6.308   9.035 -0.8282  0.5392  1.5784
10114TIP3    H254538   4.582   6.424   8.940  1.1751 -0.6860 -0.3974
10115TIP3   OH254539   2.225   5.841   9.276 -0.6354 -0.1096  0.7632
10115TIP3    H154540   2.311   5.884   9.284 -0.2161 -0.2861 -1.8356
10115TIP3    H254541   2.242   5.750   9.300 -0.3154  0.0423  1.1395
10116TIP3   OH254542   5.342   2.436   7.681  0.3200 -0.4692  0.0802
10116TIP3    H154543   5.288   2.515   7.684  0.0939 -0.6456  1.2869
10116TIP3    H254544   5.389   2.441   7.597 -1.4587 -0.2424 -0.9482
10117TIP3   OH254545   8.291   0.992   8.299  0.1942 -0.3587 -0.0225
10117TIP3    H154546   8.351   0.917   8.293  1.0286  0.3049 -0.1161
10117TIP3    H254547   8.209   0.959   8.263  0.4831 -1.2946  0.1318
10118TIP3   OH254548   2.122   7.167   7.705 -0.7468 -0.1161 -0.8953
10118TIP3    H154549   2.071   7.109   7.649  1.3871 -1.5694 -1.4844
10118TIP3    H254550   2.203   7.119   7.721 -0.9190  0.5614  2.8839
10119TIP3   OH254551   6.438   7.209   8.641 -1.0213 -0.4695  0.1215
10119TIP3    H154552   6.423   7.264   8.718 -1.1831  1.5145 -1.2581
10119TIP3    H254553   6.522   7.239   8.606 -0.5112 -1.9513 -0.0336
10120TIP3   OH254554   6.351   3.230   8.225 -0.0494 -0.4880 -0.0960
10120TIP3    H154555   6.434   3.226   8.177 -0.3758  1.0022 -0.8318
10120TIP3    H254556   6.338   3.324   8.242 -0.7844 -0.8448  1.4327
10121TIP3   OH254557   5.150   8.225   8.046 -0.5361  0.0651 -0.0294
10121TIP3    H154558   5.168   8.319   8.053 -0.8291  0.0083  2.2138
10121TIP3    H254559   5.101   8.216   7.965  1.1155  1.5678 -1.2864
10122TIP3   OH254560   4.346   1.908   8.459  0.2979  0.0384  0.2428
10122TIP3    H154561   4.423   1.929   8.513  0.5125  0.1142 -0.0909
10122TIP3    H254562   4.364   1.950   8.375  0.3977 -0.8835 -0.2035
10123TIP3   OH254563   3.678   5.392   8.554 -0.1164  0.4423 -0.3686
10123TIP3    H154564   3.593   5.395   8.510 -0.3632 -0.8624 -0.0032
10123TIP3    H254565   3.698   5.299   8.562  0.0763  0.6162  1.9557
10124TIP3   OH254566   5.334   4.105   8.586 -0.4811 -0.7126 -0.6273
10124TIP3    H154567   5.422   4.134   8.560 -0.6929 -0.6418 -1.2852
10124TIP3    H254568   5.343   4.011   8.601 -0.1189 -0.5676  0.0663
10125TIP3   OH254569   0.763   3.683   9.985 -0.0687  0.8058  1.0300
10125TIP3    H154570   0.809   3.645   9.911 -0.4226  0.1729  1.1269
10125TIP3    H254571   0.706   3.613  10.017 -0.6620  1.3789  1.2742
10126TIP3   OH254572   1.290   5.939   8.737 -0.5696 -0.0596 -0.2361
10126TIP3    H154573   1.253   5.856   8.769  0.3461  0.0961  1.3328
10126TIP3    H254574   1.358   5.913   8.675  0.1210 -0.5275  0.6960
10127TIP3   OH254575   5.631   0.839   9.240  0.4170  0.5422  0.0282
10127TIP3    H154576   5.653   0.916   9.293 -0.8681  1.1254 -0.2391
10127TIP3    H254577   5.650   0.765   9.298 -0.6290  1.1525  1.2163
10128TIP3   OH254578   4.677   1.540   8.359 -0.1820 -0.3515  0.9942
10128TIP3    H154579   4.633   1.536   8.444  0.2573 -1.5205  1.1835
10128TIP3    H254580   4.619   1.492   8.299  0.7751 -1.9033  1.2451
10129TIP3   OH254581   7.504   1.666   8.309  0.5967  0.0577 -0.1968
10129TIP3    H154582   7.535   1.624   8.229  0.9409 -1.9975  0.9340
10129TIP3    H254583   7.571   1.731   8.330  0.4767  0.6617 -1.5565
10130TIP3   OH254584   6.029   6.802   8.709 -0.4486 -0.0750 -0.0679
10130TIP3    H154585   5.997   6.786   8.798 -1.1355  0.8047 -0.1422
10130TIP3    H254586   6.009   6.894   8.692  3.6617  1.1213  0.4893
10131TIP3   OH254587   5.086   2.243   8.236 -0.3338 -0.5591  0.4224
10131TIP3    H154588   4.997   2.272   8.216  0.4298 -0.0776 -2.9108
10131TIP3    H254589   5.102   2.170   8.175  1.2948 -1.1540  1.4828
10132TIP3   OH254590   2.920   2.721   7.977 -0.1659  0.3228  0.5582
10132TIP3    H154591   2.826   2.740   7.983 -0.7732 -1.9834 -0.2803
10132TIP3    H254592   2.963   2.794   8.020 -2.3834  1.1575  1.4865
10133TIP3   OH254593   8.098   3.453   8.359  0.0810 -1.0421  0.4383
10133TIP3    H154594   8.157   3.431   8.430  0.6197 -2.5271 -0.4242
10133TIP3    H254595   8.140   3.526   8.314 -0.4519  0.1665  1.8224
10134TIP3   OH254596   4.534   7.438   9.643 -0.4102  0.0305 -0.0855
10134TIP3    H154597   4.621   7.461   9.675 -0.1214 -0.4521 -0.5015
10134TIP3    H254598   4.488   7.405   9.719 -0.6550  1.4564  0.4084
10135TIP3   OH254599   4.137   7.234   8.851  0.3065 -0.4310 -0.8476
10135TIP3    H154600   4.042   7.240   8.856  0.1515 -2.2365 -0.9187
10135TIP3    H254601   4.160   7.160   8.907  1.5792 -0.5747 -1.5115
10136TIP3   OH254602   6.407   7.249   9.709 -0.2003  0.0836  0.2246
10136TIP3    H154603   6.312   7.251   9.696 -0.0623  1.7399 -1.0265
10136TIP3    H254604   6.433   7.159   9.690 -1.3435  0.0109 -1.1431
10137TIP3   OH254605   2.985   7.122   7.837 -0.3382  0.1016 -0.0274
10137TIP3    H154606   3.055   7.177   7.802 -1.7755  0.9249 -1.8013
10137TIP3    H254607   2.945   7.175   7.906  0.7641 -0.3870  1.0170
10138TIP3   OH254608   1.388   3.949   8.903  0.1385 -0.3668 -0.5873
10138TIP3    H154609   1.373   4.042   8.887  2.1605  0.1481  0.2481
10138TIP3    H254610   1.407   3.942   8.996 -0.1848 -1.6602 -0.5892
10139TIP3   OH254611   5.945   0.549  10.244  0.1161  0.1044  0.3752
10139TIP3    H154612   6.036   0.557  10.218 -0.1890  0.4426 -0.6341
10139TIP3    H254613   5.929   0.624  10.302  0.5449 -0.1065  0.7671
10140TIP3   OH254614   4.314   1.836   9.175  0.0772 -0.3823  0.0451
10140TIP3    H154615   4.307   1.763   9.113 -0.7477 -0.8317  0.6523
10140TIP3    H254616   4.392   1.816   9.226 -0.8637 -1.5544  1.0878
10141TIP3   OH254617   5.494   6.926   9.076  0.2432  0.6560 -0.3253
10141TIP3    H154618   5.573   6.923   9.022  0.2090 -3.0940 -0.4151
10141TIP3    H254619   5.422   6.933   9.013  0.3629  0.3130 -0.5020
10142TIP3   OH254620   7.085   7.436  10.107 -0.2606  0.0511  0.2563
10142TIP3    H154621   7.144   7.468  10.175  1.4662  1.8027 -1.8839
10142TIP3    H254622   7.128   7.461  10.025 -2.6270 -1.1905 -1.4860
10143TIP3   OH254623   1.082   3.894   7.801 -0.3854 -0.0215  0.2416
10143TIP3    H154624   1.142   3.955   7.758  1.3228 -1.5037  0.3846
10143TIP3    H254625   1.094   3.812   7.754  0.3923 -1.2794  2.4935
10144TIP3   OH254626   2.066   0.335   7.822  0.9437  0.2732 -0.2951
10144TIP3    H154627   2.069   0.268   7.753 -1.1143  0.0635 -0.2500
10144TIP3    H254628   2.152   0.330   7.864  0.8867 -2.3442 -0.3271
10145TIP3   OH254629   5.312   2.348   8.377  0.1330 -0.3567 -0.1529
10145TIP3    H154630   5.395   2.341   8.329  0.5147  4.3781 -0.6479
10145TIP3    H254631   5.245   2.330   8.311  0.7427  0.8815 -1.1442
10146TIP3   OH254632   3.449   3.185   9.329  0.5757  0.1899 -0.0490
10146TIP3    H154633   3.437   3.256   9.266  1.6501  0.0608 -0.4249
10146TIP3    H254634   3.433   3.225   9.414 -0.9185  0.3596 -0.3885
10147TIP3   OH254635   1.583   3.101   9.231  0.1886 -0.1605  0.4828
10147TIP3    H154636   1.659   3.119   9.287  1.9022 -0.5364 -1.6017
10147TIP3    H254637   1.521   3.171   9.252  1.1274  0.2377  2.1487
10148TIP3   OH254638   1.444   5.490   9.291 -0.3197  0.0175 -0.3150
10148TIP3    H154639   1.353   5.488   9.322 -0.4946 -2.4773 -0.7162
10148TIP3    H254640   1.491   5.433   9.352 -0.1390 -2.7905 -2.8186
10149TIP3   OH254641   4.275   1.557   9.064 -0.7229 -0.5221  0.0460
10149TIP3    H154642   4.214   1.555   9.137  0.8673 -2.1676  1.4173
10149TIP3    H254643   4.312   1.469   9.060  0.7388  0.0879 -1.4337
10150TIP3   OH254644   7.568   5.239   9.134  0.4984  0.5784 -0.3457
10150TIP3    H154645   7.597   5.241   9.225 -0.3799 -1.4978  0.0136
10150TIP3    H254646   7.585   5.150   9.105 -1.5387  0.4927 -1.4246
10151TIP3   OH254647   4.913   7.896   8.371  0.2500  0.0795  0.1572
10151TIP3    H154648   4.991   7.841   8.362 -0.7735 -1.4292  0.0488
10151TIP3    H254649   4.937   7.978   8.329  2.3423  0.3082  1.5852
10152TIP3   OH254650   4.072   3.206   9.278  0.5408 -0.6584  0.2833
10152TIP3    H154651   4.070   3.276   9.214 -0.5537 -0.5050  0.4656
10152TIP3    H254652   4.059   3.250   9.362  1.5088 -0.9039  0.5696
10153TIP3   OH254653   3.182   0.264   9.693 -0.2911 -0.1714  0.0236
10153TIP3    H154654   3.237   0.187   9.681 -1.6038 -1.3279  1.1036
10153TIP3    H254655   3.092   0.230   9.693 -0.8498  1.1208  1.9495
10154TIP3   OH254656   0.157   6.405   8.777  0.1615 -0.6560 -0.6570
10154TIP3    H154657   0.244   6.394   8.815 -0.9991 -0.0005  2.4773
10154TIP3    H254658   0.101   6.348   8.828 -1.6411  0.6995 -1.0111
10155TIP3   OH254659   3.012   5.353   9.523 -0.7631  0.0462  0.7201
10155TIP3    H154660   2.984   5.333   9.434 -0.2726 -2.3827  1.0357
10155TIP3    H254661   3.098   5.394   9.513  0.8208 -3.1780  0.0880
10156TIP3   OH254662   2.716   4.417   7.938  0.6945 -0.3431 -0.0050
10156TIP3    H154663   2.802   4.447   7.906  0.3012  1.3231  0.4395
10156TIP3    H254664   2.735   4.332   7.979  2.0182 -0.2771 -0.4164
10157TIP3   OH254665   7.149   1.031   8.261 -0.3525 -0.6330 -0.0683
10157TIP3    H154666   7.133   1.046   8.354  0.3463  0.1935 -0.0669
10157TIP3    H254667   7.191   0.945   8.257 -2.5448 -1.7861  0.1336
10158TIP3   OH254668   1.693   5.789   8.756 -0.2541  0.1363  0.5243
10158TIP3    H154669   1.715   5.855   8.821 -2.2829  1.8401 -0.4028
10158TIP3    H254670   1.753   5.806   8.683 -0.9551  1.2099  0.1720
10159TIP3   OH254671   2.180   7.507   8.724  0.4802 -0.0145 -0.3770
10159TIP3    H154672   2.242   7.577   8.741  0.8739 -0.8884  2.2664
10159TIP3    H254673   2.181   7.496   8.628  0.3860  3.5058 -0.8994
10160TIP3   OH254674   0.887   6.040   9.030 -0.1179 -0.3177  0.0518
10160TIP3    H154675   0.801   5.999   9.021  0.6889 -1.9009 -0.7471
10160TIP3    H254676   0.931   5.989   9.098  1.2771 -1.5359 -1.6857
10161TIP3   OH254677   0.899   7.904   8.215  0.2680 -0.2085  0.3999
10161TIP3    H154678   0.848   7.983   8.235 -0.1226  0.5621 -3.0330
10161TIP3    H254679   0.948   7.927   8.136  1.6943 -2.7922  0.4321
10162TIP3   OH254680   7.795   0.742   7.921  0.3479  0.3238 -0.3014
10162TIP3    H154681   7.773   0.787   8.003  0.2828  1.4613 -0.9324
10162TIP3    H254682   7.871   0.788   7.887 -0.9946  1.4068 -2.0452
10163TIP3   OH254683   6.242   1.458   8.380  0.6178 -0.2840 -0.3493
10163TIP3    H154684   6.275   1.368   8.380  0.8452 -0.2068 -1.0426
10163TIP3    H254685   6.194   1.466   8.463  0.0939 -1.2201 -0.5464
10164TIP3   OH254686   6.948   0.600   8.737  0.3064  0.4266 -0.2544
10164TIP3    H154687   7.032   0.563   8.712  0.9989  1.5357  0.3253
10164TIP3    H254688   6.964   0.694   8.741 -1.3438  0.8167 -1.5492
10165TIP3   OH254689   6.010   8.137   9.598  0.2539 -0.4471  0.5697
10165TIP3    H154690   6.021   8.090   9.516  1.0080 -1.9187  1.4714
10165TIP3    H254691   5.922   8.113   9.628 -0.8578  1.7049 -0.7419
10166TIP3   OH254692   4.343   3.962   8.530  0.0725  0.6117  0.1818
10166TIP3    H154693   4.341   3.867   8.525 -0.7008  0.5639  1.2007
10166TIP3    H254694   4.252   3.989   8.521  0.3518  1.3102 -0.7844
10167TIP3   OH254695   8.099   8.211   8.047 -0.6471 -0.6945 -0.5015
10167TIP3    H154696   8.078   8.117   8.046 -1.1137 -0.5975 -1.2662
10167TIP3    H254697   8.077   8.239   8.136  0.3857 -1.4899  0.0239
10168TIP3   OH254698   0.107   2.679   8.536  0.2545  0.3877  0.4513
10168TIP3    H154699   0.050   2.613   8.575 -0.5552  0.6085 -0.3233
10168TIP3    H254700   0.108   2.751   8.599 -2.4888  1.5068 -0.6343
10169TIP3   OH254701   4.288   3.079   9.364 -0.5248  0.8568 -0.3714
10169TIP3    H154702   4.226   3.136   9.319  1.3867  0.5723 -3.7433
10169TIP3    H254703   4.281   2.995   9.318  0.4617 -0.0081  0.9629
10170TIP3   OH254704   7.018   3.464   9.759  0.0386 -0.5391  0.1680
10170TIP3    H154705   6.975   3.427   9.836 -1.2293  0.1824 -0.1660
10170TIP3    H254706   7.112   3.460   9.780 -0.2787 -0.2931  1.7666
10171TIP3   OH254707   3.537   5.981   8.566 -0.2218  0.1768  0.4717
10171TIP3    H154708   3.515   6.058   8.619 -2.0473 -0.8066  1.2702
10171TIP3    H254709   3.590   5.926   8.624 -2.5014 -1.0550  1.5396
10172TIP3   OH254710   5.563   8.012   9.111  0.7925 -0.0439  0.1124
10172TIP3    H154711   5.524   7.959   9.180 -0.1438 -1.7755 -1.6363
10172TIP3    H254712   5.496   8.076   9.089 -0.1781 -1.4671 -1.2349
10173TIP3   OH254713   1.923   3.140   7.686  0.0875 -0.5226  0.2379
10173TIP3    H154714   1.931   3.051   7.652  1.5394  0.1618 -1.3824
10173TIP3    H254715   1.984   3.142   7.760  0.2400 -0.8059  0.1232
10174TIP3   OH254716   3.291   1.783   7.785  0.3415 -0.5463 -0.3780
10174TIP3    H154717   3.365   1.757   7.731  2.3222  0.9610  1.4146
10174TIP3    H254718   3.272   1.706   7.838  0.2040 -1.1382 -1.2714
10175TIP3   OH254719   2.839   5.400   8.913 -0.5541  0.5780 -0.7687
10175TIP3    H154720   2.867   5.315   8.880  2.9370  0.2618  2.3677
10175TIP3    H254721   2.754   5.383   8.955 -0.0899 -1.3029 -0.5006
10176TIP3   OH254722   2.626   3.316   8.883 -0.5605  0.2715  0.2462
10176TIP3    H154723   2.601   3.408   8.895 -0.8502 -0.1775  4.6354
10176TIP3    H254724   2.554   3.266   8.923 -0.3302 -1.9564 -1.8760
10177TIP3   OH254725   6.064   8.078   8.228 -0.5470 -0.1895  0.2341
10177TIP3    H154726   6.095   8.125   8.151 -1.4028  2.0021  1.1497
10177TIP3    H254727   6.078   7.985   8.207  1.0393  0.4288 -1.7343
10178TIP3   OH254728   2.444   8.149   7.870 -0.3827 -0.6221  0.0825
10178TIP3    H154729   2.518   8.123   7.815  0.4934  0.8474  0.5101
10178TIP3    H254730   2.474   8.132   7.960 -0.8731 -0.7596  0.2223
10179TIP3   OH254731   0.388   6.204   7.628  0.1830  0.0518  0.8486
10179TIP3    H154732   0.364   6.216   7.536  0.0165 -0.5013  0.8167
10179TIP3    H254733   0.306   6.218   7.676  0.0927 -0.4516  0.8477
10180TIP3   OH254734   0.719   6.920   8.525 -0.2349 -0.4320 -0.0657
10180TIP3    H154735   0.646   6.877   8.481 -0.9782 -0.9453  1.5998
10180TIP3    H254736   0.706   7.013   8.508 -0.1384 -0.6496 -1.4356
10181TIP3   OH254737   6.196   6.203   9.341  0.3697 -0.1865  0.0774
10181TIP3    H154738   6.266   6.159   9.390 -0.2909  0.0150  1.2225
10181TIP3    H254739   6.243   6.252   9.273  1.1240 -2.9655 -1.5998
10182TIP3   OH254740   0.387   0.302  10.345  0.1360  0.0892  0.4718
10182TIP3    H154741   0.399   0.374  10.283  0.6277  0.6283  1.1815
10182TIP3    H254742   0.445   0.324  10.418  0.0737 -0.8837  0.8213
10183TIP3   OH254743   7.897   1.944   9.538 -0.1517  0.3071 -0.3967
10183TIP3    H154744   7.816   1.894   9.530 -0.4038  0.6216  0.1206
10183TIP3    H254745   7.899   1.999   9.460 -0.4516  0.3224 -0.3935
10184TIP3   OH254746   6.655   6.747  10.628  0.1753 -0.2242  0.8724
10184TIP3    H154747   6.681   6.751  10.536 -0.7270 -0.4226  0.5950
10184TIP3    H254748   6.737   6.750  10.676  0.7915 -1.8168  0.0168
10185TIP3   OH254749   8.124   0.765   8.480 -0.8361  0.5712 -0.1097
10185TIP3    H154750   8.092   0.853   8.497 -1.3668  0.6256 -1.2964
10185TIP3    H254751   8.116   0.754   8.385 -0.4342 -0.6176 -0.0263
10186TIP3   OH254752   1.086   3.168   7.492 -0.2960 -0.0057  0.0667
10186TIP3    H154753   1.007   3.204   7.531 -1.0523 -1.2042 -0.2908
10186TIP3    H254754   1.054   3.101   7.431  0.9712 -0.1154 -0.5055
10187TIP3   OH254755   5.369   1.854   9.121 -0.0515 -0.0417  0.0726
10187TIP3    H154756   5.409   1.866   9.036  0.2537  1.1172  0.3595
10187TIP3    H254757   5.406   1.923   9.175 -1.2345  0.0734  0.7808
10188TIP3   OH254758   4.867   2.434   8.668  0.5099  0.1056 -0.1955
10188TIP3    H154759   4.879   2.409   8.759  1.3048 -0.9006 -0.5622
10188TIP3    H254760   4.772   2.439   8.658  0.2033 -3.0245 -0.0987
10189TIP3   OH254761   6.018   4.975   8.069 -0.5215 -0.2422  0.1432
10189TIP3    H154762   5.986   5.001   8.155 -2.6686  2.1886 -1.2407
10189TIP3    H254763   5.994   4.883   8.062 -1.3654 -0.1814  1.6995
10190TIP3   OH254764   6.787   6.455   8.358  0.3473  0.3209  0.2625
10190TIP3    H154765   6.794   6.364   8.332  1.8833  0.2314  0.9082
10190TIP3    H254766   6.727   6.494   8.294 -1.6976 -1.4928  0.9618
10191TIP3   OH254767   1.158   3.282   8.907  0.2327  0.0713  0.1230
10191TIP3    H154768   1.191   3.229   8.835 -0.9492 -0.2640 -0.1880
10191TIP3    H254769   1.205   3.249   8.984 -0.3144 -1.2921 -0.0965
10192TIP3   OH254770   2.402   8.428   8.172 -0.1905 -0.6039  0.4387
10192TIP3    H154771   2.343   8.499   8.198  0.2696 -0.9422  2.6108
10192TIP3    H254772   2.349   8.349   8.180  0.5680 -0.9381  2.6724
10193TIP3   OH254773   5.866   5.652   8.514  0.1520  0.0999  0.1991
10193TIP3    H154774   5.849   5.682   8.603  0.9126  0.2815  0.2949
10193TIP3    H254775   5.960   5.669   8.501  0.6339 -2.1600  0.2488
10194TIP3   OH254776   0.636   8.112   8.211 -0.4023  0.0844 -0.4434
10194TIP3    H154777   0.637   8.165   8.290  0.1202 -1.2807  0.5123
10194TIP3    H254778   0.686   8.162   8.147  1.5264  0.0350  0.9420
10195TIP3   OH254779   7.224   0.936   9.506 -0.4049  0.0722  0.1983
10195TIP3    H154780   7.171   0.861   9.534  0.2608 -0.5856 -0.2663
10195TIP3    H254781   7.181   1.011   9.546 -0.5535 -0.6401  1.4503
10196TIP3   OH254782   5.115   4.530  10.094  0.5519 -0.1033 -0.2430
10196TIP3    H154783   5.079   4.618  10.095  1.2086  0.2961  3.7435
10196TIP3    H254784   5.038   4.473  10.087 -0.2378  0.7806  0.9169
10197TIP3   OH254785   7.834   7.135   8.709 -0.2485 -0.3381 -0.5454
10197TIP3    H154786   7.773   7.146   8.636  0.5733 -1.8360 -1.5138
10197TIP3    H254787   7.853   7.041   8.711  1.6003 -0.0013  0.0698
10198TIP3   OH254788   3.946   6.071   8.261 -0.1778 -0.5886 -0.3520
10198TIP3    H154789   3.947   5.975   8.252  1.0293 -0.6891  0.6311
10198TIP3    H254790   3.883   6.100   8.195 -0.1752 -2.0204 -1.0330
10199TIP3   OH254791   0.498   2.781   9.148  0.2844 -0.1065  0.3570
10199TIP3    H154792   0.574   2.822   9.189  1.2470  0.3248 -1.7306
10199TIP3    H254793   0.507   2.802   9.055 -2.6660  0.4002  0.0918
10200TIP3   OH254794   7.695   0.093   8.986  0.4871  0.1052 -0.1192
10200TIP3    H154795   7.695   0.058   9.076  0.1552 -1.9676 -0.8601
10200TIP3    H254796   7.679   0.016   8.931 -0.1740  1.4691 -1.9196
10201TIP3   OH254797   5.757   4.006   7.702  0.0449 -0.0959  0.3008
10201TIP3    H154798   5.779   3.980   7.792  1.3517 -0.1459 -0.0193
10201TIP3    H254799   5.721   3.926   7.663  1.7430 -0.7803  0.0672
10202TIP3   OH254800   1.099   2.309   9.605 -0.0777 -0.1290  0.1548
10202TIP3    H154801   1.188   2.331   9.633 -0.0023 -0.7352  0.4041
10202TIP3    H254802   1.076   2.232   9.657 -1.4577  1.0930  1.4810
10203TIP3   OH254803   5.008   6.621   9.244  0.3386  0.2034  0.3983
10203TIP3    H154804   5.009   6.582   9.156 -0.6618 -0.2520  0.5743
10203TIP3    H254805   5.066   6.696   9.237  4.5015 -2.6840  0.7026
10204TIP3   OH254806   4.990   8.122   8.237 -0.3888  0.1413 -0.2232
10204TIP3    H154807   5.052   8.148   8.168 -0.4314  1.4910  0.2232
10204TIP3    H254808   4.952   8.204   8.267 -0.8185 -0.4877  0.9990
10205TIP3   OH254809   6.729   1.487   9.707 -0.4097 -0.7345 -0.3399
10205TIP3    H154810   6.801   1.424   9.701  0.3733  0.1811 -0.9148
10205TIP3    H254811   6.657   1.438   9.748  1.0484 -1.2252  1.8057
10206TIP3   OH254812   7.697   8.311   8.824 -0.7938 -0.5395 -0.2834
10206TIP3    H154813   7.746   8.230   8.834  0.3173  0.0764 -0.6168
10206TIP3    H254814   7.664   8.309   8.734  0.8394  0.2135 -0.9450
10207TIP3   OH254815   3.991   4.491   9.017 -0.4780  0.2667 -0.5099
10207TIP3    H154816   3.952   4.458   9.097 -1.2813 -0.8559 -1.3382
10207TIP3    H254817   4.075   4.528   9.044 -0.3308 -0.9173  0.7000
10208TIP3   OH254818   8.145   3.387   9.334 -0.0923 -0.1292  0.9232
10208TIP3    H154819   8.188   3.413   9.415 -1.3705  0.6191  1.3840
10208TIP3    H254820   8.056   3.421   9.342 -0.2652 -0.1200 -0.7641
10209TIP3   OH254821   7.597   6.625   9.958  0.0844  0.5186  0.5838
10209TIP3    H154822   7.612   6.688   9.887  0.8215  0.5489  0.7604
10209TIP3    H254823   7.641   6.545   9.929 -2.3212 -0.5181 -0.4413
10210TIP3   OH254824   1.551   7.583   8.684 -0.4327 -0.2523  0.3200
10210TIP3    H154825   1.528   7.676   8.673 -0.1434 -0.2012  0.0964
10210TIP3    H254826   1.594   7.579   8.769  1.5054  0.2396 -0.5688
10211TIP3   OH254827   2.928   3.634   9.748 -0.6188  0.6564 -0.0804
10211TIP3    H154828   2.858   3.689   9.784 -1.1552  0.1792 -0.3765
10211TIP3    H254829   2.882   3.568   9.696  0.0518  0.2946 -0.2237
10212TIP3   OH254830   6.435   3.445   9.623  0.6147 -0.0972  0.2743
10212TIP3    H154831   6.471   3.499   9.693 -1.1751  0.0568  1.1219
10212TIP3    H254832   6.340   3.459   9.627  0.4907  1.0557 -3.1105
10213TIP3   OH254833   7.859   4.536   8.891  0.1178 -0.2842  0.0035
10213TIP3    H154834   7.841   4.442   8.887 -1.5932  0.0080  0.1626
10213TIP3    H254835   7.953   4.542   8.905  0.4435 -1.9569 -1.2051
10214TIP3   OH254836   6.553   6.535   9.219 -0.4748  0.1325 -0.1450
10214TIP3    H154837   6.480   6.560   9.276 -1.6725 -1.2011 -1.0212
10214TIP3    H254838   6.532   6.574   9.135  0.1662  0.2681 -0.2476
10215TIP3   OH254839   5.803   4.886   9.525 -0.1978  0.1741 -0.2772
10215TIP3    H154840   5.861   4.832   9.578 -1.2604 -1.1159 -0.3759
10215TIP3    H254841   5.838   4.974   9.533  1.5110 -0.5026 -0.0043
10216TIP3   OH254842   6.062   7.423   8.939  0.0566 -0.0678  0.1200
10216TIP3    H154843   6.035   7.513   8.920  0.1782 -0.0515  0.0254
10216TIP3    H254844   6.021   7.403   9.023  0.5645  0.3069  0.4631
10217TIP3   OH254845   1.436   7.678   9.177  0.3765  0.4226  0.2447
10217TIP3    H154846   1.455   7.585   9.187 -1.2172 -0.1107 -1.2600
10217TIP3    H254847   1.357   7.693   9.229 -1.6071  0.0018 -2.4211
10218TIP3   OH254848   0.779   2.165   9.254 -0.0967  0.2729  0.4939
10218TIP3    H154849   0.700   2.169   9.308 -0.2746 -1.3928  0.4334
10218TIP3    H254850   0.843   2.218   9.300 -0.5958 -0.1599  1.7399
10219TIP3   OH254851   1.110   3.569   7.843 -0.6161 -0.1424  0.1894
10219TIP3    H154852   1.115   3.474   7.853 -0.1417 -0.1785 -0.3476
10219TIP3    H254853   1.026   3.593   7.881  0.5554 -0.3974  3.2561
10220TIP3   OH254854   3.768   3.366   7.898 -0.1307  0.1105  0.2154
10220TIP3    H154855   3.722   3.301   7.845  0.1075  1.2480 -1.4519
10220TIP3    H254856   3.718   3.447   7.886 -1.3848  0.0087  3.5325
10221TIP3   OH254857   4.536   4.018   9.643  0.2022  0.3697  0.9719
10221TIP3    H154858   4.441   4.007   9.651  0.2305 -0.0956  0.7508
10221TIP3    H254859   4.550   4.112   9.646 -0.3903  0.5233 -0.1618
10222TIP3   OH254860   8.305   7.795   9.482 -0.0241 -0.0700 -0.0613
10222TIP3    H154861   8.399   7.817   9.480 -0.4250  1.7447 -0.5054
10222TIP3    H254862   8.270   7.846   9.555 -0.6277 -0.9724  0.2932
10223TIP3   OH254863   2.045   3.771   7.152  0.4568 -0.3906 -0.1256
10223TIP3    H154864   2.116   3.822   7.192 -0.1150  0.8029 -0.5797
10223TIP3    H254865   1.970   3.831   7.153  0.2374 -0.5528 -2.3464
10224TIP3   OH254866   4.682   3.079   9.872 -0.4371  0.2287 -0.6231
10224TIP3    H154867   4.776   3.069   9.860 -0.6499  0.5601 -2.9357
10224TIP3    H254868   4.645   2.997   9.839 -0.9700 -0.3014  1.1331
10225TIP3   OH254869   5.352   8.094   8.210 -0.0300 -0.0714  0.2166
10225TIP3    H154870   5.303   8.133   8.137  0.3078  1.4444  0.7730
10225TIP3    H254871   5.400   8.167   8.249  0.4557 -1.0141  1.4500
10226TIP3   OH254872   3.123   2.872   8.074 -0.1604  0.0206 -0.0679
10226TIP3    H154873   3.130   2.937   8.004  1.4896 -0.0542 -0.0181
10226TIP3    H254874   3.212   2.865   8.108 -0.7596 -0.6372  1.4172
10227TIP3   OH254875   1.785   7.949   9.045  0.0074 -0.5779 -0.0255
10227TIP3    H154876   1.782   7.954   9.141  0.1779  2.2848 -0.0883
10227TIP3    H254877   1.869   7.989   9.022 -0.9618  0.7459 -1.4353
10228TIP3   OH254878   6.865   3.369   9.956  0.5669  0.4181 -0.0717
10228TIP3    H154879   6.816   3.436  10.005  0.6679  1.9588 -1.9453
10228TIP3    H254880   6.808   3.292   9.958  0.3904  0.5339  2.0526
10229TIP3   OH254881   5.569   4.275   9.434  0.2356 -0.5992  0.9889
10229TIP3    H154882   5.516   4.224   9.496 -3.2323  1.4738  0.0230
10229TIP3    H254883   5.516   4.277   9.354  1.8992  1.4780 -0.1452
10230TIP3   OH254884   0.511   4.114   7.707  0.4471  0.0349 -0.0015
10230TIP3    H154885   0.461   4.033   7.715 -1.1460  1.0578  0.9226
10230TIP3    H254886   0.564   4.117   7.787  1.1241 -0.4762 -0.4233
10231TIP3   OH254887   0.220   1.426   8.635  0.4239 -0.4526 -0.9461
10231TIP3    H154888   0.223   1.487   8.709 -0.3784 -2.2212  0.6316
10231TIP3    H254889   0.231   1.340   8.675 -3.0575 -1.7576 -2.4366
10232TIP3   OH254890   3.229   4.253   7.894  0.1868  0.0251 -0.2086
10232TIP3    H154891   3.226   4.321   7.961 -0.7148 -0.6276  0.4479
10232TIP3    H254892   3.237   4.301   7.812  0.8628  0.8628  0.3253
10233TIP3   OH254893   7.223   6.192   9.435 -0.1685  0.0236 -0.3757
10233TIP3    H154894   7.274   6.245   9.495  0.2983 -1.9917  1.1122
10233TIP3    H254895   7.141   6.241   9.423  0.0292  0.8208  1.3177
10234TIP3   OH254896   1.480   2.035   8.729 -0.2767 -0.2707 -0.3871
10234TIP3    H154897   1.557   2.020   8.783 -0.6254  0.2627  0.2687
10234TIP3    H254898   1.514   2.068   8.646  0.1015  2.4144  0.7594
10235TIP3   OH254899   5.272   5.936   9.694  0.0056 -0.5342 -0.6211
10235TIP3    H154900   5.299   5.902   9.780  0.9396 -1.5708 -1.2932
10235TIP3    H254901   5.345   5.914   9.636 -0.8848 -0.4154 -1.8179
10236TIP3   OH254902   2.202   4.570   9.982  0.3028  0.2368  0.2845
10236TIP3    H154903   2.144   4.505  10.022 -0.0729  1.1968  1.3728
10236TIP3    H254904   2.175   4.574   9.890  0.4457 -1.2360  0.1510
10237TIP3   OH254905   3.537   2.751   8.373 -0.2593 -0.4622 -0.7789
10237TIP3    H154906   3.523   2.711   8.459  0.3000 -0.6603 -0.7750
10237TIP3    H254907   3.613   2.705   8.337  0.0506  0.2191 -1.0094
10238TIP3   OH254908   4.064   4.048   7.784 -0.0804  0.2582  0.1086
10238TIP3    H154909   4.126   4.075   7.717 -3.2597 -1.2401 -3.8565
10238TIP3    H254910   4.063   3.952   7.779 -1.6403  0.1832  1.0849
10239TIP3   OH254911   4.751   7.662   8.075 -0.9827  1.0718  0.7492
10239TIP3    H154912   4.838   7.671   8.114 -0.2732  0.4239 -0.6012
10239TIP3    H254913   4.721   7.751   8.060  0.1023  1.2963 -0.1436
10240TIP3   OH254914   1.347   5.888   9.546 -0.1340 -0.3784  0.0641
10240TIP3    H154915   1.282   5.825   9.515  0.5894 -0.5652 -1.1463
10240TIP3    H254916   1.384   5.926   9.466 -0.7431  1.8291  0.7431
10241TIP3   OH254917   1.779   0.140   8.334 -0.3446 -0.0458 -0.1349
10241TIP3    H154918   1.851   0.203   8.335 -0.2382  0.0242 -2.9377
10241TIP3    H254919   1.785   0.094   8.418  0.6377  2.4594  1.2678
10242TIP3   OH254920   5.162   0.923   9.849  0.3484 -0.3636  0.0457
10242TIP3    H154921   5.077   0.893   9.882 -0.6208  0.8846 -1.2232
10242TIP3    H254922   5.204   0.963   9.925 -1.0682  0.8311  0.2393
10243TIP3   OH254923   3.570   5.519   9.580 -0.4257 -0.0474 -0.0712
10243TIP3    H154924   3.520   5.469   9.645 -2.0109 -0.1179 -1.2875
10243TIP3    H254925   3.512   5.590   9.555  1.1764  1.5101  0.4280
10244TIP3   OH254926   7.871   0.752   9.903  0.1564  0.3864  0.4106
10244TIP3    H154927   7.813   0.758   9.827  2.0917  0.9657 -1.0862
10244TIP3    H254928   7.959   0.764   9.868  1.2478 -0.7324  2.5629
10245TIP3   OH254929   2.499   5.614   9.194  0.8335  0.0598 -0.1909
10245TIP3    H154930   2.536   5.701   9.179 -0.4682  0.4856 -1.0768
10245TIP3    H254931   2.419   5.631   9.244  2.0163 -0.8815  2.1569
10246TIP3   OH254932   1.290   6.782   9.264  0.6197 -0.3502  0.1927
10246TIP3    H154933   1.282   6.690   9.289  2.8779 -0.3852  0.9957
10246TIP3    H254934   1.350   6.783   9.190  0.3700  0.4533 -0.0155
10247TIP3   OH254935   1.700   4.763   8.692 -0.0693  0.5534 -0.3272
10247TIP3    H154936   1.740   4.687   8.651  0.9712  0.6763  0.4176
10247TIP3    H254937   1.617   4.774   8.647  1.2390  1.0027 -2.7997
10248TIP3   OH254938   3.977   3.139   8.248  0.3207 -0.0175 -0.0027
10248TIP3    H154939   4.015   3.074   8.190  0.2535 -1.3148  1.3402
10248TIP3    H254940   3.883   3.120   8.248 -0.0884  1.7176 -1.5340
10249TIP3   OH254941   0.327   7.220   9.094 -0.9584  0.5092 -0.3867
10249TIP3    H154942   0.293   7.307   9.115 -0.4818  0.2311  1.8355
10249TIP3    H254943   0.308   7.167   9.172  0.8027 -0.7629 -0.7391
10250TIP3   OH254944   0.668   2.768   9.663  0.0403  0.1894  0.2394
10250TIP3    H154945   0.616   2.796   9.738 -0.7296 -1.0486  0.1872
10250TIP3    H254946   0.614   2.788   9.587  0.4065  0.5288  0.0590
10251TIP3   OH254947   7.782   2.234   8.934 -0.3978  0.1684 -0.4920
10251TIP3    H154948   7.744   2.162   8.984  2.3713 -0.8789  0.2747
10251TIP3    H254949   7.838   2.280   8.997  0.6878  0.7823 -1.8475
10252TIP3   OH254950   5.184   7.613   9.427  0.3137 -0.3495  0.5326
10252TIP3    H154951   5.186   7.560   9.507 -0.7665  0.4287  1.1100
10252TIP3    H254952   5.219   7.555   9.359  0.7187 -1.2257  1.4568
10253TIP3   OH254953   0.121   0.371   9.481  0.0982  0.3423 -0.6111
10253TIP3    H154954   0.072   0.379   9.399 -1.3819  0.7210  0.2619
10253TIP3    H254955   0.204   0.416   9.464 -0.2586  0.5989 -1.8226
10254TIP3   OH254956   2.999   8.373   8.039 -0.3224 -0.0904 -0.2021
10254TIP3    H154957   3.028   8.286   8.011 -0.4858  0.1895 -1.3233
10254TIP3    H254958   3.079   8.424   8.046 -0.0653 -0.6990  1.9595
10255TIP3   OH254959   3.176   4.789   9.246  0.2156 -0.2061 -0.2442
10255TIP3    H154960   3.096   4.798   9.193  1.2890  0.7757 -1.7718
10255TIP3    H254961   3.148   4.738   9.322 -1.8346 -0.0161 -0.7982
10256TIP3   OH254962   5.417   0.870   9.721 -0.0821  0.1399  0.5252
10256TIP3    H154963   5.469   0.829   9.791 -0.6190 -2.0764 -0.2796
10256TIP3    H254964   5.344   0.912   9.766 -0.1084 -0.7662  1.3556
10257TIP3   OH254965   3.783   4.094   8.188  0.3698 -0.4497 -0.4702
10257TIP3    H154966   3.829   4.177   8.203 -0.2933 -0.1589  0.0031
10257TIP3    H254967   3.711   4.095   8.251  1.2421 -2.0792  0.6357
10258TIP3   OH254968   3.189   0.535   9.179 -0.0102 -0.2786  0.4800
10258TIP3    H154969   3.259   0.596   9.199  0.9377 -1.0642 -0.3727
10258TIP3    H254970   3.200   0.513   9.087 -1.8313  0.1371  0.1236
10259TIP3   OH254971   1.502   0.069   8.219 -0.2285 -0.6958  0.2398
10259TIP3    H154972   1.556  -0.007   8.198  0.3797 -0.3599  0.5676
10259TIP3    H254973   1.562   0.130   8.262 -0.5187  0.3167 -0.7683
10260TIP3   OH254974   4.317   8.378   9.323 -0.8600  0.3741  0.2477
10260TIP3    H154975   4.376   8.327   9.268 -1.4639 -0.0008 -0.0604
10260TIP3    H254976   4.358   8.378   9.410 -0.6915 -0.3610  0.1723
10261TIP3   OH254977   7.948   2.477   8.343  0.2429 -0.3022 -0.2311
10261TIP3    H154978   7.950   2.384   8.320 -2.8621 -0.5893  0.1231
10261TIP3    H254979   7.875   2.512   8.292  0.9202  1.7987  0.1649
10262TIP3   OH254980   3.335   6.389   7.980 -0.3788 -0.1998  0.1278
10262TIP3    H154981   3.309   6.481   7.972  1.9299  0.5694  0.6055
10262TIP3    H254982   3.401   6.377   7.912  0.3010 -1.1109  0.9323
10263TIP3   OH254983   5.659   7.023   8.358 -0.4773 -0.4209 -0.2359
10263TIP3    H154984   5.576   6.989   8.391  1.1824 -1.8725  2.7520
10263TIP3    H254985   5.667   6.985   8.270 -2.3479 -1.2946 -0.0663
10264TIP3   OH254986   7.940   2.663   9.067  0.1336  0.2489  0.4631
10264TIP3    H154987   7.993   2.586   9.045 -1.3559 -0.7977  0.4115
10264TIP3    H254988   7.891   2.682   8.986 -1.7331 -0.6183  1.3341
10265TIP3   OH254989   7.595   0.681   7.727  0.0873 -0.1209  0.1435
10265TIP3    H154990   7.662   0.695   7.793 -0.5088  0.7846  0.5756
10265TIP3    H254991   7.642   0.687   7.644  0.4141  1.5053  0.3998
10266TIP3   OH254992   3.033   3.475   8.020  0.4696  0.3376  0.6103
10266TIP3    H154993   3.033   3.537   8.093  2.2622 -0.4196  1.3043
10266TIP3    H254994   3.049   3.390   8.060  1.5699 -0.0857 -0.6505
10267TIP3   OH254995   0.070   4.619   8.520  0.4451  0.1267  0.0646
10267TIP3    H154996   0.075   4.712   8.500  0.8232  0.3055  0.9618
10267TIP3    H254997   0.160   4.587   8.511  0.1187 -0.4307 -1.4855
10268TIP3   OH254998   0.811   0.035   7.880 -0.2100 -0.3238 -0.0765
10268TIP3    H154999   0.854   0.121   7.887  0.1716 -0.4524 -0.8044
10268TIP3    H255000   0.792   0.011   7.971 -1.3167  1.0259  0.0779
10269TIP3   OH255001   1.169   6.881   8.617  0.0710  0.6169 -0.5276
10269TIP3    H155002   1.180   6.911   8.707  0.8800 -1.2135  0.0181
10269TIP3    H255003   1.078   6.851   8.613 -0.3435  1.8282 -0.7080
10270TIP3   OH255004   7.324   7.165   9.870  0.1631  0.5171 -0.1144
10270TIP3    H155005   7.240   7.122   9.856  0.9894 -0.5040 -2.5244
10270TIP3    H255006   7.327   7.182   9.964 -1.9730 -1.0033  0.3029
10271TIP3   OH255007   0.458   1.510   7.444  0.2802  0.3105 -0.3797
10271TIP3    H155008   0.415   1.591   7.468  1.4993  0.6492  0.8362
10271TIP3    H255009   0.389   1.444   7.446 -0.3186  0.9407  0.8831
10272TIP3   OH255010   1.429   6.140   8.447  0.0242  0.4192  0.4709
10272TIP3    H155011   1.380   6.149   8.365  1.1663  1.0785 -0.1589
10272TIP3    H255012   1.476   6.223   8.456  1.2962 -0.3233  0.8644
10273TIP3   OH255013   4.762   1.755   8.168 -0.2086  0.1670 -0.1011
10273TIP3    H155014   4.693   1.719   8.112 -1.2872  0.2241  1.1392
10273TIP3    H255015   4.771   1.692   8.239 -0.0829  0.9179  0.5690
10274TIP3   OH255016   8.156   4.077   8.594  0.4203 -0.1537  0.5705
10274TIP3    H155017   8.111   3.997   8.565 -0.0643  0.0944  0.6272
10274TIP3    H255018   8.236   4.079   8.542  0.4512 -0.6967  0.5945
10275TIP3   OH255019   7.891   1.192   8.693 -0.0935 -0.3007 -0.2002
10275TIP3    H155020   7.879   1.146   8.777 -3.5357 -1.6750 -1.2504
10275TIP3    H255021   7.949   1.135   8.643 -0.4877 -1.0537  0.1801
10276TIP3   OH255022   4.799   0.128   9.833 -0.2096 -0.4407 -0.2455
10276TIP3    H155023   4.888   0.125   9.868 -0.3971 -0.6917  0.2192
10276TIP3    H255024   4.779   0.037   9.811  0.2257 -0.1912 -1.8546
10277TIP3   OH255025   4.263   4.258   8.722 -0.2828  0.3486  0.6829
10277TIP3    H155026   4.168   4.252   8.730 -0.2997 -0.0454  0.2411
10277TIP3    H255027   4.280   4.245   8.629  0.3482 -1.6540  1.0272
10278TIP3   OH255028   1.046   0.216   9.676  0.2972  0.4874  0.2978
10278TIP3    H155029   1.120   0.156   9.687  0.1168  0.3299  0.6727
10278TIP3    H255030   1.076   0.298   9.715  0.1496  0.3224  0.7644
10279TIP3   OH255031   0.490   6.661   7.909 -0.2584  0.5457  0.7444
10279TIP3    H155032   0.523   6.576   7.880 -1.6923  0.3213 -0.3633
10279TIP3    H255033   0.396   6.648   7.920 -0.5867  2.0983  0.0853
10280TIP3   OH255034   2.993   6.395   7.863 -0.3604  0.1225 -0.1555
10280TIP3    H155035   3.038   6.475   7.890 -0.7332  0.4501 -0.4855
10280TIP3    H255036   2.900   6.417   7.866 -0.6983 -1.2459  2.8050
10281TIP3   OH255037   7.886   1.988   8.791 -0.4102 -0.6532  0.2322
10281TIP3    H155038   7.903   1.905   8.836 -1.1674 -1.3682 -0.7391
10281TIP3    H255039   7.831   2.037   8.851 -0.2214 -0.9867  0.6850
10282TIP3   OH255040   5.946   6.486   8.240 -0.3086  0.1600  0.2276
10282TIP3    H155041   5.957   6.550   8.310  1.0404  1.3352 -0.9838
10282TIP3    H255042   5.957   6.401   8.283  1.8567  0.8769  1.2694
10283TIP3   OH255043   0.514   6.797   8.374  0.0694  0.4291 -0.0069
10283TIP3    H155044   0.510   6.817   8.281 -0.2858 -1.0559 -0.3357
10283TIP3    H255045   0.431   6.830   8.409 -0.0134  0.5326 -0.3023
10284TIP3   OH255046   6.859   1.987   9.279 -0.0306 -0.3808  0.0663
10284TIP3    H155047   6.792   2.001   9.211  1.1465  0.2582 -1.0154
10284TIP3    H255048   6.815   2.008   9.361 -1.5254 -1.2524 -0.4672
10285TIP3   OH255049   4.248   7.833   9.031  0.0210 -0.1054  0.6518
10285TIP3    H155050   4.319   7.897   9.044  0.8807 -1.1523  1.3037
10285TIP3    H255051   4.251   7.813   8.938 -0.9476  1.5511  0.2209
10286TIP3   OH255052   8.134   0.980   9.301 -0.1064  0.1246 -0.2883
10286TIP3    H155053   8.221   0.960   9.336  0.4777  0.3140 -1.5754
10286TIP3    H255054   8.142   0.966   9.207 -1.1576  1.1903 -0.5675
10287TIP3   OH255055   8.327   1.511   8.075  0.1486 -0.2864 -0.0643
10287TIP3    H155056   8.291   1.531   8.161  1.9215  0.4749  0.5416
10287TIP3    H255057   8.396   1.575   8.062 -0.4611  0.0102 -2.3424
10288TIP3   OH255058   6.655   4.614   9.326 -0.5649  0.7873  0.3069
10288TIP3    H155059   6.606   4.532   9.332 -1.8509  1.6145  2.2088
10288TIP3    H255060   6.590   4.682   9.346  1.1411  2.0019  2.1410
10289TIP3   OH255061   0.591   3.919   9.477 -0.3216  0.7196 -0.1876
10289TIP3    H155062   0.609   3.919   9.571 -0.1190 -1.8172 -0.1629
10289TIP3    H255063   0.504   3.958   9.469 -0.1334  1.4269  0.9825
10290TIP3   OH255064   2.784   0.938   9.496 -0.5448 -0.0859  0.3073
10290TIP3    H155065   2.748   1.027   9.492 -1.0162 -0.2972 -2.5677
10290TIP3    H255066   2.735   0.895   9.567 -0.4724  1.8334  1.5789
10291TIP3   OH255067   5.040   2.891   7.654  0.2596 -0.3592 -0.1039
10291TIP3    H155068   5.087   2.936   7.724  1.7743 -0.5920 -0.9459
10291TIP3    H255069   5.013   2.960   7.594 -1.0894 -0.1529  0.6964
10292TIP3   OH255070   2.764   3.765   8.672  0.4705 -0.6337 -0.4879
10292TIP3    H155071   2.683   3.739   8.627  1.4554  1.0324 -3.5019
10292TIP3    H255072   2.833   3.716   8.628  1.3003 -0.9297  1.0644
10293TIP3   OH255073   7.279   1.462   7.888  0.1054 -0.2999  0.3373
10293TIP3    H155074   7.197   1.466   7.937  0.6464  0.1768  1.2353
10293TIP3    H255075   7.270   1.386   7.831 -0.9400 -0.2739  0.4579
10294TIP3   OH255076   7.268   4.169   8.777 -0.3841 -0.4970  0.0318
10294TIP3    H155077   7.244   4.252   8.819 -1.2328 -0.5212 -0.3853
10294TIP3    H255078   7.215   4.166   8.698 -0.0502 -1.2489 -0.1685
10295TIP3   OH255079   3.145   0.892   8.361  0.4421 -0.2746  0.3015
10295TIP3    H155080   3.151   0.902   8.266 -1.4234  0.8647  0.2566
10295TIP3    H255081   3.066   0.941   8.386 -0.9251 -3.0881  2.0460
10296TIP3   OH255082   1.216   5.646   8.433  0.0036 -0.1327 -0.1526
10296TIP3    H155083   1.141   5.656   8.491 -0.4473 -0.9190 -0.5787
10296TIP3    H255084   1.287   5.614   8.490 -0.9020 -2.5505 -0.2945
10297TIP3   OH255085   7.227   4.520   7.704 -0.4248 -0.7357 -0.5563
10297TIP3    H155086   7.207   4.430   7.681  1.3960 -2.2499  2.9837
10297TIP3    H255087   7.172   4.538   7.781  1.3535 -0.0127  0.6240
10298TIP3   OH255088   2.298   1.741   9.881 -0.0262 -0.1093 -0.4748
10298TIP3    H155089   2.210   1.774   9.898  0.6314  0.9304  1.1907
10298TIP3    H255090   2.343   1.815   9.840  0.9071  0.5173  1.5189
10299TIP3   OH255091   2.789   5.870   8.215 -1.0238 -0.0572  0.4563
10299TIP3    H155092   2.702   5.910   8.213 -1.2230 -0.4877  0.3357
10299TIP3    H255093   2.845   5.937   8.253 -1.4488  0.1506  0.7299
10300TIP3   OH255094   6.219   4.452   9.018  0.8185 -0.1552 -0.1219
10300TIP3    H155095   6.315   4.443   9.026  0.9392 -2.9826 -2.6555
10300TIP3    H255096   6.185   4.388   9.081  0.7429 -1.1235 -1.1217
10301TIP3   OH255097   7.419   4.887   8.846  0.0606 -0.5219 -0.3676
10301TIP3    H155098   7.416   4.980   8.824  0.6051 -0.0254  1.4949
10301TIP3    H255099   7.329   4.866   8.871 -0.0339 -0.4587 -0.6527
10302TIP3   OH255100   8.114   0.099   9.041  0.2615 -0.3531  0.6299
10302TIP3    H155101   8.185   0.155   9.007  0.3557 -1.5773 -1.3879
10302TIP3    H255102   8.160   0.029   9.088  0.3711 -0.6894  0.0370
10303TIP3   OH255103   1.366   8.399   9.256 -0.1163  0.4204 -0.8951
10303TIP3    H155104   1.284   8.359   9.229 -0.4961 -1.3551  2.4384
10303TIP3    H255105   1.341   8.460   9.326  1.3468  0.2469 -0.1908
10304TIP3   OH255106   2.149   6.684   8.738 -0.0562 -0.0842 -0.2203
10304TIP3    H155107   2.116   6.754   8.794  1.6902 -0.4880  1.4140
10304TIP3    H255108   2.157   6.609   8.796  3.1985 -0.1353 -0.5934
10305TIP3   OH255109   4.366   2.078   8.709  0.3686  0.1375  0.1106
10305TIP3    H155110   4.323   2.015   8.768 -0.1093 -0.0963 -0.4767
10305TIP3    H255111   4.294   2.125   8.668  0.6364 -0.5461 -1.2050
10306TIP3   OH255112   0.906   7.204   9.668  0.0203  1.2495 -0.4077
10306TIP3    H155113   0.849   7.131   9.693  2.5106 -0.4040  0.9227
10306TIP3    H255114   0.907   7.261   9.744  1.1195  0.5502  0.1376
10307TIP3   OH255115   3.528   5.921   8.914 -0.2630  0.1378  0.1571
10307TIP3    H155116   3.443   5.963   8.928 -0.2740 -0.4233  2.1187
10307TIP3    H255117   3.545   5.875   8.997  2.4306  1.1088  0.2131
10308TIP3   OH255118   1.159   5.753   7.744 -1.0938  0.2323  0.3095
10308TIP3    H155119   1.067   5.733   7.763 -1.1392 -0.5556 -0.6592
10308TIP3    H255120   1.159   5.787   7.655 -0.4490  0.2600  0.3135
10309TIP3   OH255121   3.647   1.284   9.181 -0.1114 -0.2335 -0.4207
10309TIP3    H155122   3.557   1.253   9.181  0.3234 -1.7122  1.4466
10309TIP3    H255123   3.640   1.379   9.172 -1.7936 -0.3932 -1.1245
10310TIP3   OH255124   5.782   4.447   9.348  0.0759 -0.5982 -0.2248
10310TIP3    H155125   5.844   4.390   9.303 -1.3696 -4.5454  2.1627
10310TIP3    H255126   5.699   4.399   9.344 -0.7981  0.2044  3.7940
10311TIP3   OH255127   0.508   2.154   9.021  0.0043 -0.1051 -0.1669
10311TIP3    H155128   0.526   2.245   9.046  1.8506 -0.0252 -1.6187
10311TIP3    H255129   0.468   2.160   8.935 -0.2007 -0.6560 -0.1137
10312TIP3   OH255130   0.023   2.875   9.713 -0.5706  0.3473 -0.5792
10312TIP3    H155131   0.099   2.905   9.764  0.6811 -1.4768 -1.2634
10312TIP3    H255132   0.034   2.917   9.628 -1.0246  1.0393 -0.3072
10313TIP3   OH255133   7.481   8.201   9.730 -0.4608  0.2660 -0.1805
10313TIP3    H155134   7.553   8.142   9.712 -1.0766 -0.3502 -0.6880
10313TIP3    H255135   7.521   8.287   9.739  0.1254  0.3658 -2.8069
10314TIP3   OH255136   8.017   3.104   8.975  0.5301 -0.3586 -0.2222
10314TIP3    H155137   8.020   3.191   8.936 -1.8401  0.6012  1.4887
10314TIP3    H255138   8.039   3.119   9.067 -3.1472 -0.8588  0.9105
10315TIP3   OH255139   0.645   2.485   9.386  0.7969  0.5598  0.0650
10315TIP3    H155140   0.715   2.520   9.443  1.2776 -0.3210  0.0283
10315TIP3    H255141   0.657   2.390   9.390 -0.3975  0.4024  0.0327
10316TIP3   OH255142   3.551   3.179   9.653  0.4825 -0.4016 -0.1911
10316TIP3    H155143   3.646   3.188   9.666  0.3075 -0.1536  1.0844
10316TIP3    H255144   3.529   3.095   9.693  0.1440 -0.4082 -0.3869
10317TIP3   OH255145   2.495   7.926   8.679  0.4791 -0.5486  0.6011
10317TIP3    H155146   2.578   7.938   8.726 -0.1960  0.8842  1.4747
10317TIP3    H255147   2.487   8.004   8.624  0.2912 -1.2751 -0.4254
10318TIP3   OH255148   8.418   8.130   8.515 -0.2713  0.2699  0.1590
10318TIP3    H155149   8.509   8.142   8.542 -0.3073  0.1802  0.3243
10318TIP3    H255150   8.368   8.135   8.597 -0.3641 -0.1957  0.1326
10319TIP3   OH255151   6.816   7.609  10.131  0.3544  0.7170 -0.4298
10319TIP3    H155152   6.908   7.624  10.109  0.0315  2.6763 -0.6432
10319TIP3    H255153   6.803   7.659  10.211 -0.7056  1.1015 -0.8290
10320TIP3   OH255154   1.006   1.663   8.428  0.2310 -0.0544  0.1799
10320TIP3    H155155   0.963   1.742   8.461  0.8028  0.1905  0.3624
10320TIP3    H255156   1.084   1.696   8.384 -1.8407 -0.0569 -3.9844
10321TIP3   OH255157   3.315   3.506   9.326 -0.0644  0.2429 -0.0366
10321TIP3    H155158   3.307   3.449   9.402  0.4172 -0.5061 -0.5361
10321TIP3    H255159   3.317   3.594   9.362  0.4531 -0.1163  0.8440
10322TIP3   OH255160   2.313   7.202   8.661  0.2230 -0.0160 -0.7412
10322TIP3    H155161   2.315   7.108   8.680  0.1999  0.1436  0.1023
10322TIP3    H255162   2.222   7.220   8.640  0.3149 -0.2636 -1.3877
10323TIP3   OH255163   1.135   0.087   7.349 -0.4515  0.4745  0.2797
10323TIP3    H155164   1.159   0.178   7.331 -1.1417  0.8068  1.0172
10323TIP3    H255165   1.217   0.046   7.375  0.0264  0.6690 -0.8351
10324TIP3   OH255166   0.334   1.049   8.359 -0.0911 -0.3970  0.4511
10324TIP3    H155167   0.341   1.135   8.317 -3.6899  0.0449  0.3936
10324TIP3    H255168   0.316   0.989   8.286 -2.9318 -0.1950  0.8777
10325TIP3   OH255169   2.350   1.034   8.173  0.6142 -0.6018 -0.5534
10325TIP3    H155170   2.412   1.104   8.191  1.6772 -1.3960 -1.0227
10325TIP3    H255171   2.344   0.986   8.255 -0.7653  0.5032  0.0258
10326TIP3   OH255172   3.298   3.790   9.131 -0.1294 -0.0825  0.3580
10326TIP3    H155173   3.287   3.709   9.083  0.6795 -0.2603  0.4527
10326TIP3    H255174   3.210   3.812   9.162 -1.0209  0.9693 -2.6183
10327TIP3   OH255175   6.240   8.084   9.990 -0.4232 -0.4002 -0.0324
10327TIP3    H155176   6.328   8.121   9.987  0.1227 -1.6819 -1.8791
10327TIP3    H255177   6.188   8.147  10.041  1.4033  0.6713  0.5789
10328TIP3   OH255178   0.687   3.265   9.537 -0.1078  0.0009 -0.0290
10328TIP3    H155179   0.624   3.200   9.506  0.3632 -0.4269 -0.1139
10328TIP3    H255180   0.648   3.301   9.617 -1.1285  0.8026 -0.8647
10329TIP3   OH255181   4.022   3.930   7.526  0.0389  0.0623  0.2153
10329TIP3    H155182   4.103   3.981   7.520  0.3546 -0.4403  0.0902
10329TIP3    H255183   4.048   3.850   7.571 -0.0269 -0.8167 -1.2457
10330TIP3   OH255184   5.821   5.975  10.447 -0.4749  0.3764  0.1933
10330TIP3    H155185   5.778   6.060  10.457 -0.4388  0.2898  1.1825
10330TIP3    H255186   5.753   5.917  10.414 -0.4671  0.8072 -0.6232
10331TIP3   OH255187   2.203   7.444   8.453  0.1461  0.0541 -0.2050
10331TIP3    H155188   2.234   7.530   8.424 -3.3114  1.5492  0.0399
10331TIP3    H255189   2.138   7.419   8.387  0.4712 -2.0017  0.2046
10332TIP3   OH255190   3.787   2.423   8.392  0.5383 -0.1118 -0.0964
10332TIP3    H155191   3.810   2.336   8.358 -1.3888  0.1283 -2.3098
10332TIP3    H255192   3.705   2.410   8.440 -0.5485  0.6000 -1.6439
10333TIP3   OH255193   5.913   0.154   8.291 -0.0159  0.9176 -0.0374
10333TIP3    H155194   5.951   0.210   8.222 -0.3900  2.2680  0.8009
10333TIP3    H255195   5.833   0.120   8.252  0.1495  1.0734 -0.5305
10334TIP3   OH255196   4.103   1.288   9.111  0.5060 -0.1750  0.3001
10334TIP3    H155197   4.032   1.338   9.151  1.7506 -0.1094  2.5677
10334TIP3    H255198   4.096   1.201   9.151  0.4844 -0.7928 -1.0057
10335TIP3   OH255199   1.001   4.727   8.875 -1.1564 -0.2851  0.1665
10335TIP3    H155200   0.991   4.663   8.805 -0.8768  0.2100 -0.3385
10335TIP3    H255201   1.003   4.812   8.830  1.1298 -0.0752  0.5397
10336TIP3   OH255202   0.608   5.025   8.539  0.0791  0.8546  0.5152
10336TIP3    H155203   0.568   5.095   8.590 -3.0964  0.7889 -1.5949
10336TIP3    H255204   0.626   5.065   8.454 -1.0987 -0.6532 -0.4817
10337TIP3   OH255205   6.377   7.664   8.016  0.0466  0.5050 -0.3896
10337TIP3    H155206   6.381   7.760   8.007 -0.2147  0.3939 -2.0267
10337TIP3    H255207   6.402   7.631   7.930  2.5587 -0.9938  0.7963
10338TIP3   OH255208   3.511   3.402   8.924 -0.7262  0.1518 -0.3988
10338TIP3    H155209   3.541   3.396   8.834  0.9835  0.2294  0.1257
10338TIP3    H255210   3.582   3.446   8.970 -1.2749 -0.4633  1.1092
10339TIP3   OH255211   6.828   1.262   8.306 -0.2723 -0.2371 -0.0352
10339TIP3    H155212   6.743   1.232   8.273 -1.3460  2.5482 -0.0369
10339TIP3    H255213   6.870   1.182   8.338 -3.5613 -1.5496  1.5131
10340TIP3   OH255214   4.783   5.387   9.341  0.0027 -0.2654 -0.1389
10340TIP3    H155215   4.725   5.317   9.371  1.1391 -1.5605 -0.8252
10340TIP3    H255216   4.745   5.467   9.376 -0.3051 -1.3914  2.2839
10341TIP3   OH255217   2.729   6.727   7.750 -0.2835 -0.3178 -0.1515
10341TIP3    H155218   2.798   6.754   7.810 -1.3242  1.2519  0.3944
10341TIP3    H255219   2.766   6.744   7.663  0.1628  0.1439  0.1199
10342TIP3   OH255220   1.491   3.180   8.933  0.2302 -0.3339 -0.8644
10342TIP3    H155221   1.574   3.199   8.889 -0.1715 -0.1882 -1.5692
10342TIP3    H255222   1.502   3.092   8.968  1.1877  0.1949  0.2604
10343TIP3   OH255223   6.648   7.371   7.737 -0.4769  0.1458  0.1159
10343TIP3    H155224   6.577   7.335   7.685 -0.7245  0.7364  0.0318
10343TIP3    H255225   6.692   7.295   7.774 -0.6963 -0.2547 -0.4313
10344TIP3   OH255226   5.865   3.309   7.913  0.8102  0.7476 -0.0587
10344TIP3    H155227   5.810   3.306   7.834 -0.3178 -1.3892  0.7123
10344TIP3    H255228   5.803   3.325   7.984  1.4210  0.0129  0.6488
10345TIP3   OH255229   3.681   3.093   8.324  0.3452  0.0498 -0.2865
10345TIP3    H155230   3.695   3.057   8.412 -2.5582 -0.3195  0.1272
10345TIP3    H255231   3.683   3.188   8.335 -0.8611  0.0171  0.4058
10346TIP3   OH255232   1.670   2.632   9.124 -0.3544  0.6822  0.1196
10346TIP3    H155233   1.636   2.548   9.092  2.3567 -1.2033  1.7901
10346TIP3    H255234   1.628   2.697   9.067 -0.5739 -1.9389 -3.0716
10347TIP3   OH255235   7.070   3.138   8.153 -0.1649  0.5338 -0.3584
10347TIP3    H155236   7.128   3.137   8.077  0.6723 -1.2592  0.2459
10347TIP3    H255237   7.050   3.045   8.169 -1.9544  1.0070  0.4035
10348TIP3   OH255238   7.442   6.344   8.333  0.3073  0.1502  0.1863
10348TIP3    H155239   7.350   6.324   8.353 -0.8603  4.0195 -0.4449
10348TIP3    H255240   7.440   6.375   8.242  2.3581 -0.2126 -0.0133
10349TIP3   OH255241   5.192   6.193   9.602 -0.5125  0.2810 -0.1827
10349TIP3    H155242   5.111   6.215   9.650  0.3788  0.7609  1.1646
10349TIP3    H255243   5.213   6.105   9.632 -1.4781 -0.5812 -1.9151
10350TIP3   OH255244   2.163   1.851   7.582  0.1221 -0.2121  0.8350
10350TIP3    H155245   2.200   1.939   7.580 -1.1939  0.3702  1.0867
10350TIP3    H255246   2.074   1.863   7.616 -0.2408 -1.5769  0.4245
10351TIP3   OH255247   6.424   2.785   8.237  0.3155  0.6945  0.2195
10351TIP3    H155248   6.462   2.842   8.170 -1.0692 -0.1053 -1.3146
10351TIP3    H255249   6.356   2.839   8.278  1.7796  1.5152  1.7500
10352TIP3   OH255250   6.589   8.137   9.265  0.0853 -0.5492  0.3185
10352TIP3    H155251   6.543   8.130   9.181 -2.5709 -0.2038  1.6444
10352TIP3    H255252   6.540   8.081   9.325  2.0409 -0.9512  1.6464
10353TIP3   OH255253   6.531   8.321   9.504  0.3900 -0.7472  0.4705
10353TIP3    H155254   6.537   8.289   9.595 -2.4844 -2.1973  0.2580
10353TIP3    H255255   6.622   8.337   9.479  1.2924  0.0218  3.6792
10354TIP3   OH255256   7.567   3.992   8.340  0.9184 -0.0253  1.0753
10354TIP3    H155257   7.548   3.923   8.277  1.1498 -0.3253  1.3302
10354TIP3    H255258   7.651   4.029   8.312  1.2101 -0.4151  1.4241
10355TIP3   OH255259   0.630   7.922   9.728 -0.0244 -0.0178 -0.2056
10355TIP3    H155260   0.633   8.016   9.714 -0.9230 -0.0604 -0.7456
10355TIP3    H255261   0.553   7.908   9.784  0.3134 -0.4018  0.1787
10356TIP3   OH255262   1.106   4.625   8.016 -0.9366 -0.1295 -0.8389
10356TIP3    H155263   1.086   4.641   8.109  0.5789 -1.4412 -0.2372
10356TIP3    H255264   1.156   4.544   8.016  0.3475  0.5971 -2.6618
10357TIP3   OH255265   4.769   5.689   8.687  0.3348  0.7792 -0.6105
10357TIP3    H155266   4.686   5.672   8.643  1.0458 -0.7218 -1.4774
10357TIP3    H255267   4.749   5.684   8.780 -0.4116 -0.3339 -0.8154
10358TIP3   OH255268   5.300   0.055   8.412 -0.4811 -0.2135  0.4832
10358TIP3    H155269   5.327   0.134   8.365 -1.5860 -0.6642 -0.9514
10358TIP3    H255270   5.339   0.066   8.499  3.1214 -0.1489 -0.9447
10359TIP3   OH255271   2.881   7.721   9.649  0.4507 -0.0665 -0.1449
10359TIP3    H155272   2.813   7.768   9.601 -1.0500  0.7565  2.5895
10359TIP3    H255273   2.841   7.636   9.669  0.9730 -0.3254 -0.1914
10360TIP3   OH255274   5.064   6.186  10.133  0.0878  0.1258 -0.0934
10360TIP3    H155275   4.988   6.184  10.074  0.4959  1.0274 -0.6936
10360TIP3    H255276   5.113   6.107  10.112 -0.1033  0.1161 -0.5145
10361TIP3   OH255277   4.397   3.751   9.398 -0.0716  0.1129  0.9013
10361TIP3    H155278   4.365   3.778   9.312  1.6544  0.4808  0.3324
10361TIP3    H255279   4.322   3.763   9.456 -1.7368 -1.4869 -0.7531
10362TIP3   OH255280   6.156   3.889   8.571 -0.4020 -0.0715 -0.0598
10362TIP3    H155281   6.250   3.886   8.551 -0.3085  0.7516  0.2105
10362TIP3    H255282   6.114   3.883   8.485 -0.0299  1.9402 -0.4434
10363TIP3   OH255283   6.991   0.280   8.671 -0.1825  1.4112  0.1421
10363TIP3    H155284   7.077   0.239   8.671 -0.8225  0.0070 -1.1737
10363TIP3    H255285   6.966   0.284   8.579 -1.3009  2.3144  0.4663
10364TIP3   OH255286   6.007   2.824   8.344  0.2620 -0.2998 -0.5668
10364TIP3    H155287   5.979   2.912   8.322  1.5822  0.2924  0.0051
10364TIP3    H255288   5.941   2.791   8.404  1.7700  1.8711  2.5441
10365TIP3   OH255289   3.177   0.568   9.668  0.6077  0.3802 -0.0864
10365TIP3    H155290   3.137   0.481   9.658  0.3109  0.6959 -2.2133
10365TIP3    H255291   3.110   0.620   9.711  0.5251 -0.2687  0.5876
10366TIP3   OH255292   0.164   3.081   9.851  0.0540  0.1771  0.3958
10366TIP3    H155293   0.140   3.174   9.849 -2.7284 -0.4850 -0.1540
10366TIP3    H255294   0.103   3.041   9.912  2.0073 -1.1782  1.6069
10367TIP3   OH255295   1.827   2.504   8.179  0.0041 -0.2865  0.5578
10367TIP3    H155296   1.919   2.479   8.176  0.1147  0.1089  0.6178
10367TIP3    H255297   1.827   2.595   8.211 -0.5301 -1.0324  2.9307
10368TIP3   OH255298   7.239   6.624   9.229 -0.4179 -0.1548 -0.2497
10368TIP3    H155299   7.179   6.696   9.211 -0.4481  0.3656  1.6613
10368TIP3    H255300   7.326   6.664   9.220 -0.4352  0.2559  1.0899
10369TIP3   OH255301   7.063   5.291   8.609  0.1112 -0.6722 -0.1686
10369TIP3    H155302   7.061   5.351   8.534  0.2958 -0.6637 -0.1680
10369TIP3    H255303   7.155   5.291   8.637  0.0293 -0.6220  0.1019
10370TIP3   OH255304   4.656   2.920   8.174 -0.4875  0.2578 -0.0402
10370TIP3    H155305   4.744   2.942   8.206 -1.2608  0.9423  1.7334
10370TIP3    H255306   4.671   2.848   8.113  1.2850  0.1406  0.4573
10371TIP3   OH255307   7.182   4.699   8.163 -0.2055 -0.3557  0.1682
10371TIP3    H155308   7.142   4.688   8.250 -1.2382  1.1655 -0.0749
10371TIP3    H255309   7.238   4.776   8.173 -0.9820  0.3376 -0.7212
10372TIP3   OH255310   6.639   5.730   8.359 -0.2806  0.0638  0.3481
10372TIP3    H155311   6.682   5.645   8.347  0.8667  0.4217  1.7096
10372TIP3    H255312   6.659   5.778   8.278  0.5622 -0.3422  0.3047
10373TIP3   OH255313   6.628   2.769   9.775  0.1088  0.2581  0.3600
10373TIP3    H155314   6.702   2.709   9.774 -0.3411 -0.3090  0.3527
10373TIP3    H255315   6.566   2.732   9.712  0.3411  1.4074 -0.5914
10374TIP3   OH255316   6.323   0.687   9.276 -0.0315 -0.7095 -0.1992
10374TIP3    H155317   6.258   0.748   9.308  0.8727  0.5797 -0.7468
10374TIP3    H255318   6.295   0.666   9.187  0.7200  0.5177 -0.7515
10375TIP3   OH255319   7.673   2.178   9.453 -0.1282 -0.3599 -0.3517
10375TIP3    H155320   7.683   2.141   9.365  0.5763  1.8993 -1.3019
10375TIP3    H255321   7.630   2.263   9.439  1.1841  0.6494  1.3272
10376TIP3   OH255322   6.298   2.971   9.817 -0.3089  0.1436 -0.1807
10376TIP3    H155323   6.277   3.032   9.746 -1.8688 -1.8958 -1.6259
10376TIP3    H255324   6.314   2.888   9.772  2.2476 -0.4619  1.6534
10377TIP3   OH255325   7.954   7.764   9.117 -0.7503  0.0777  0.3458
10377TIP3    H155326   7.913   7.837   9.163 -0.0268  0.7645 -0.0833
10377TIP3    H255327   7.918   7.686   9.160  0.1865  0.6711  2.3532
10378TIP3   OH255328   5.534   0.911   8.380 -0.0170  0.0662 -0.6533
10378TIP3    H155329   5.459   0.919   8.440  0.3619  0.7839 -0.2648
10378TIP3    H255330   5.610   0.903   8.437  0.2363 -0.3893 -1.0489
10379TIP3   OH255331   1.055   1.921   8.783 -0.3253 -0.7060 -0.2149
10379TIP3    H155332   0.967   1.892   8.761  0.1829 -2.7781  0.2217
10379TIP3    H255333   1.061   1.909   8.878  0.0314  0.6280 -0.0503
10380TIP3   OH255334   8.322   7.072   8.622 -0.9963 -0.1760 -0.4307
10380TIP3    H155335   8.252   7.094   8.561 -1.2757 -0.2869 -0.1550
10380TIP3    H255336   8.309   7.131   8.696 -1.2289 -0.6846 -0.0668
10381TIP3   OH255337   2.165   3.689   7.394  0.3043 -0.0531  0.1061
10381TIP3    H155338   2.081   3.667   7.435 -0.3290  2.6501  0.4035
10381TIP3    H255339   2.155   3.661   7.303  0.4399 -2.9058  0.8575
10382TIP3   OH255340   7.350   4.585   8.571 -0.1925  0.2094 -0.1642
10382TIP3    H155341   7.382   4.532   8.497  1.2005 -0.8665  1.1243
10382TIP3    H255342   7.407   4.560   8.644 -0.9005  1.9464  1.0470
10383TIP3   OH255343   6.630   3.529   8.698 -0.2435 -0.3069  0.4467
10383TIP3    H155344   6.616   3.624   8.707 -2.3536 -0.6374  1.1168
10383TIP3    H255345   6.651   3.517   8.605  1.9325  0.9722  0.6834
10384TIP3   OH255346   7.676   3.843   7.764 -0.3163  0.1198  0.5708
10384TIP3    H155347   7.754   3.859   7.817 -0.7920  0.5512  1.1636
10384TIP3    H255348   7.709   3.820   7.677  0.4613  1.1953  0.5660
10385TIP3   OH255349   5.614   8.299   8.527 -0.3075  0.5588  0.4394
10385TIP3    H155350   5.604   8.210   8.560 -0.8513  0.1580 -0.7787
10385TIP3    H255351   5.708   8.315   8.527 -0.2589  0.4566  1.8219
10386TIP3   OH255352   4.596   4.705   8.989 -0.1421 -0.3886  0.0759
10386TIP3    H155353   4.659   4.713   8.917  1.1117  1.5216  1.3045
10386TIP3    H255354   4.538   4.635   8.961 -0.6033  1.1614 -3.4803
10387TIP3   OH255355   6.925   2.767   8.452 -0.0344 -0.3635  0.4320
10387TIP3    H155356   7.020   2.773   8.465  0.0146  0.7214 -0.3372
10387TIP3    H255357   6.887   2.802   8.532  0.2490  1.8591 -0.3361
10388TIP3   OH255358   2.877   7.522   9.433 -0.1676  0.2464 -0.0841
10388TIP3    H155359   2.834   7.445   9.395  0.2600  0.6391 -1.4318
10388TIP3    H255360   2.818   7.594   9.413  0.2654  0.5237 -0.3871
10389TIP3   OH255361   4.740   3.394  10.123 -0.0493  0.4188  0.9977
10389TIP3    H155362   4.656   3.355  10.100 -0.0758 -0.8076  2.9665
10389TIP3    H255363   4.795   3.320  10.147  0.2596  1.4582  3.7624
10390TIP3   OH255364   4.683   6.557   9.610 -0.2436  0.4825 -0.1770
10390TIP3    H155365   4.747   6.514   9.553 -0.9832  0.1818 -0.7848
10390TIP3    H255366   4.737   6.611   9.668  0.6535 -0.7171  0.1521
10391TIP3   OH255367   6.590   6.239   8.635  0.0663 -0.3456  0.8344
10391TIP3    H155368   6.570   6.167   8.695 -1.7136 -0.2762  0.3924
10391TIP3    H255369   6.541   6.219   8.555 -0.1416  1.1338  0.5493
10392TIP3   OH255370   5.258   1.216   8.359 -0.1509  0.2930 -0.3830
10392TIP3    H155371   5.286   1.253   8.443  0.8732 -1.3096  0.0286
10392TIP3    H255372   5.178   1.167   8.380  0.2093 -0.2619 -0.3004
10393TIP3   OH255373   0.462   2.908   8.660 -0.2400 -0.2004  0.5678
10393TIP3    H155374   0.393   2.973   8.671  0.0164  0.1084  0.3936
10393TIP3    H255375   0.446   2.843   8.728 -0.8104 -0.2308  0.4037
10394TIP3   OH255376   5.020   5.386   9.204 -0.1628  0.1296  0.2476
10394TIP3    H155377   4.934   5.390   9.245 -0.4157  1.0725 -0.3417
10394TIP3    H255378   5.080   5.422   9.270 -0.4916  1.1637 -0.0057
10395TIP3   OH255379   1.722   5.072   9.002 -0.4399  0.0541 -0.1081
10395TIP3    H155380   1.726   4.978   8.986 -0.7373  0.0630 -0.2489
10395TIP3    H255381   1.797   5.090   9.058  0.2479 -0.0928 -0.9625
10396TIP3   OH255382   4.708   8.112   8.958  0.4180 -0.0366  0.5012
10396TIP3    H155383   4.715   8.186   9.020 -1.2741  0.5666  0.0287
10396TIP3    H255384   4.746   8.145   8.877 -0.1963  0.2812  0.3355
10397TIP3   OH255385   4.401   1.616   8.425  0.2339  0.2561  0.2043
10397TIP3    H155386   4.406   1.595   8.331 -0.3131  1.3769 -0.0863
10397TIP3    H255387   4.385   1.710   8.428  2.0313  0.5875  1.4486
10398TIP3   OH255388   1.116   5.145   7.536  0.1991 -0.2575  0.0935
10398TIP3    H155389   1.073   5.060   7.531 -0.9160  0.3014 -0.1387
10398TIP3    H255390   1.102   5.185   7.450  2.3060 -0.5559 -0.4486
10399TIP3   OH255391   6.392   4.036   7.922 -0.2028  0.2342  0.4953
10399TIP3    H155392   6.463   4.084   7.879 -0.4739 -0.2784 -0.5672
10399TIP3    H255393   6.313   4.084   7.898 -0.5731 -1.1711 -1.3111
10400TIP3   OH255394   0.410   4.553   9.181 -0.2805 -0.0330  0.0768
10400TIP3    H155395   0.391   4.486   9.248 -0.2687  0.3194  0.4361
10400TIP3    H255396   0.495   4.588   9.208  0.0715 -0.4044 -0.5438
10401TIP3   OH255397   6.153   1.329   8.138  0.3135 -0.2310  0.5835
10401TIP3    H155398   6.201   1.257   8.180 -1.0503 -1.4390  0.1448
10401TIP3    H255399   6.181   1.407   8.185  0.6365 -1.2452  2.1358
10402TIP3   OH255400   5.867   7.808   9.326  0.1709  0.0684 -0.1176
10402TIP3    H155401   5.792   7.866   9.339  0.6665  0.4754  1.0870
10402TIP3    H255402   5.832   7.732   9.281 -1.1477 -0.1552  1.2288
10403TIP3   OH255403   6.499   0.104   8.378  0.4978 -0.7747  0.3187
10403TIP3    H155404   6.453   0.070   8.454 -0.9754  0.6791  0.1381
10403TIP3    H255405   6.468   0.194   8.369  2.3870 -0.1526 -0.6438
10404TIP3   OH255406   3.279   5.661   8.981  0.0254 -0.0528 -0.2285
10404TIP3    H155407   3.298   5.691   9.069  1.9503 -0.9225 -0.2979
10404TIP3    H255408   3.249   5.570   8.991  1.6072 -0.6405 -0.5210
10405TIP3   OH255409   0.609   2.386   9.108  0.2528 -0.2825 -0.0852
10405TIP3    H155410   0.555   2.465   9.121  0.7513  0.5897 -2.6284
10405TIP3    H255411   0.674   2.390   9.178 -2.1207 -0.6875  2.3182
10406TIP3   OH255412   3.655   0.077   9.382 -0.5614 -0.4278 -0.2273
10406TIP3    H155413   3.565   0.072   9.347 -0.5965 -3.2513 -0.0191
10406TIP3    H255414   3.644   0.097   9.475 -1.1595 -2.3292  0.1597
10407TIP3   OH255415   3.898   2.148   9.927  0.0898  0.3204  0.1337
10407TIP3    H155416   3.816   2.116   9.890 -0.4976  0.5748  1.1977
10407TIP3    H255417   3.896   2.243   9.910  0.2011  0.3153  0.0907
10408TIP3   OH255418   3.522   3.910   9.222  0.3537  0.5479 -0.0964
10408TIP3    H155419   3.536   3.982   9.283 -0.9900  0.8625 -0.1377
10408TIP3    H255420   3.428   3.894   9.224  0.7829 -2.8547  1.7881
10409TIP3   OH255421   8.349   2.456   8.207 -0.0975 -0.0781 -0.3718
10409TIP3    H155422   8.285   2.505   8.257  1.5294  0.0402  1.7315
10409TIP3    H255423   8.297   2.407   8.143 -2.4790 -1.3466  2.3096
10410TIP3   OH255424   6.285   3.682   9.162  0.0733 -0.1866  0.2977
10410TIP3    H155425   6.290   3.769   9.201 -0.3654 -0.9480  2.1357
10410TIP3    H255426   6.375   3.664   9.134  0.6478 -0.0000  1.9050
10411TIP3   OH255427   1.578   6.718   7.887 -0.4739 -0.0176  0.3248
10411TIP3    H155428   1.534   6.680   7.963  0.6583  1.9071  2.0468
10411TIP3    H255429   1.670   6.693   7.897 -0.5436 -1.0579 -1.3176
10412TIP3   OH255430   2.600   0.025   7.965 -0.0236 -0.0669  0.4449
10412TIP3    H155431   2.536  -0.003   8.030 -0.5656  0.1403  0.0050
10412TIP3    H255432   2.629   0.111   7.994 -1.6568  0.8742 -0.5587
10413TIP3   OH255433   3.333   6.339   8.245  0.1117 -0.1690  0.3036
10413TIP3    H155434   3.335   6.333   8.150  0.0267 -0.8710  0.3444
10413TIP3    H255435   3.405   6.400   8.266  0.0235  0.1211 -0.2108
10414TIP3   OH255436   1.148   4.532   8.351 -0.1533  0.0187  0.1545
10414TIP3    H155437   1.202   4.537   8.429  0.8766 -1.7714 -0.3847
10414TIP3    H255438   1.109   4.619   8.342  0.8840  0.6817  1.8032
10415TIP3   OH255439   8.363   6.325   8.896  0.3045 -0.6477  0.1743
10415TIP3    H155440   8.345   6.277   8.816  2.3814 -0.6937 -0.3088
10415TIP3    H255441   8.283   6.315   8.948 -0.3085 -2.3899 -1.0022
10416TIP3   OH255442   1.006   1.596   8.823 -0.1493  0.0600 -0.2495
10416TIP3    H155443   0.945   1.669   8.831  0.9080  1.1884 -1.8233
10416TIP3    H255444   0.966   1.538   8.759 -0.5566 -0.2778  0.3078
10417TIP3   OH255445   1.793   0.024   8.586 -0.0829  0.0846  0.0689
10417TIP3    H155446   1.750   0.065   8.661  0.6333 -1.0124  1.1235
10417TIP3    H255447   1.872  -0.016   8.623  2.0648  2.2650 -1.8287
10418TIP3   OH255448   1.203   1.096   9.244  0.0821  0.0201 -0.1938
10418TIP3    H155449   1.258   1.171   9.222  3.0719 -1.6884  0.8830
10418TIP3    H255450   1.150   1.125   9.319 -0.5646  1.7049 -1.2519
10419TIP3   OH255451   0.193   4.257   8.262  0.2500 -0.3217  0.3276
10419TIP3    H155452   0.278   4.268   8.305  0.0109 -0.1628  0.7669
10419TIP3    H255453   0.129   4.278   8.330 -0.1278  1.2880 -0.4827
10420TIP3   OH255454   7.455   4.863   7.637  0.3556  0.2609 -0.2567
10420TIP3    H155455   7.423   4.924   7.703  0.2515 -0.9874  0.8894
10420TIP3    H255456   7.513   4.915   7.581  0.1627  1.4165  0.6048
10421TIP3   OH255457   2.464   7.073   8.306  0.5699  0.4898  0.7680
10421TIP3    H155458   2.419   7.011   8.247  0.0941  2.3284 -0.9131
10421TIP3    H255459   2.393   7.124   8.344  1.0580  1.9252 -0.1640
10422TIP3   OH255460   6.583   4.204   7.760 -0.0691 -0.1939 -0.3705
10422TIP3    H155461   6.647   4.174   7.696  0.7942 -1.0310  0.8324
10422TIP3    H255462   6.582   4.299   7.751  2.1174 -0.0516  0.2581
10423TIP3   OH255463   1.510   1.078   9.565 -0.1742  0.0137  0.3931
10423TIP3    H155464   1.418   1.095   9.585  0.1424  0.7585  1.2947
10423TIP3    H255465   1.531   1.000   9.617 -0.3981 -0.4362 -0.1688
10424TIP3   OH255466   1.323   7.031   8.184 -0.1217 -0.1051  0.3581
10424TIP3    H155467   1.292   6.943   8.207  0.4479 -0.2374  0.6413
10424TIP3    H255468   1.258   7.064   8.122  0.4410 -1.2979 -0.9102
10425TIP3   OH255469   4.586   2.914   9.309 -0.0674  0.2231  0.1561
10425TIP3    H155470   4.672   2.893   9.271 -0.2429  0.7092 -0.5438
10425TIP3    H255471   4.606   2.944   9.397  0.5535  0.8913 -0.1956
10426TIP3   OH255472   7.258   7.121   9.494 -0.6794 -0.1836  0.1064
10426TIP3    H155473   7.236   7.214   9.482  1.4498  0.2771 -0.7009
10426TIP3    H255474   7.287   7.092   9.407  0.6411 -1.0306  0.7972
10427TIP3   OH255475   0.727   0.770   8.390  0.1606  0.2019 -0.3954
10427TIP3    H155476   0.674   0.840   8.429 -1.8583 -0.9996 -0.8242
10427TIP3    H255477   0.770   0.811   8.315 -3.5762  0.3873 -2.6852
10428TIP3   OH255478   3.656   1.464   8.463 -0.0586 -0.0681  0.0584
10428TIP3    H155479   3.578   1.476   8.518  0.5854  0.3990  0.8899
10428TIP3    H255480   3.629   1.497   8.376 -0.2826  1.7034  0.7516
10429TIP3   OH255481   0.871   0.828   8.145 -0.0232  0.1785 -0.4449
10429TIP3    H155482   0.930   0.895   8.178  1.1703 -1.7048  1.5085
10429TIP3    H255483   0.920   0.787   8.074 -0.2405  0.5646 -0.8194
10430TIP3   OH255484   8.019   7.346   8.843  0.0348 -0.2563  0.3907
10430TIP3    H155485   8.103   7.311   8.816 -0.7257 -0.3719 -2.0722
10430TIP3    H255486   7.954   7.286   8.806 -1.2103  1.9976 -1.4113
10431TIP3   OH255487   4.277   7.999   8.122 -0.5670  0.2119 -0.0745
10431TIP3    H155488   4.234   7.915   8.131 -0.5345  0.3994  2.4289
10431TIP3    H255489   4.293   8.028   8.211  4.7557  0.1859 -0.6894
10432TIP3   OH255490   7.761   1.980   9.048  0.1168 -0.1545  0.1049
10432TIP3    H155491   7.699   1.972   9.121  0.0485  1.4173  0.2504
10432TIP3    H255492   7.794   1.891   9.035 -1.2699 -0.8040  0.8081
10433TIP3   OH255493   3.946   5.396   8.552  0.0605 -0.3353 -0.2203
10433TIP3    H155494   3.979   5.317   8.510 -1.3666  1.0410 -4.4065
10433TIP3    H255495   3.851   5.384   8.555 -0.0557  0.6321  0.4248
10434TIP3   OH255496   3.082   2.344   9.096 -0.6162  0.0352 -0.4056
10434TIP3    H155497   3.157   2.337   9.155 -0.3129 -0.8038 -0.8657
10434TIP3    H255498   3.019   2.280   9.130  0.0584 -1.3734 -1.6639
10435TIP3   OH255499   0.587   8.248   9.778  0.5763  0.5435  0.0716
10435TIP3    H155500   0.497   8.266   9.752  0.6596 -0.6976 -1.1902
10435TIP3    H255501   0.621   8.332   9.808 -0.2239  1.6326 -1.9040
10436TIP3   OH255502   2.863   6.982   9.130 -0.8035  0.5440  0.0227
10436TIP3    H155503   2.943   7.035   9.128 -0.8067  0.5887  0.6969
10436TIP3    H255504   2.792   7.044   9.115 -0.6620  0.3515 -1.5972
10437TIP3   OH255505   2.551   2.120   8.234 -0.2310  0.4397 -0.0794
10437TIP3    H155506   2.554   2.213   8.258  0.4097  0.3119  0.3764
10437TIP3    H255507   2.549   2.120   8.139  1.6786  0.9156 -0.1662
10438TIP3   OH255508   4.148   1.494   9.289 -0.0777 -0.1705  0.1471
10438TIP3    H155509   4.223   1.451   9.330  0.3442  1.9357  1.7639
10438TIP3    H255510   4.072   1.442   9.316  0.6450 -1.5428 -0.3794
10439TIP3   OH255511   4.787   8.014   8.601 -0.7983  0.2295 -0.2028
10439TIP3    H155512   4.848   7.978   8.537 -0.1075 -2.7590  1.8865
10439TIP3    H255513   4.809   8.107   8.606  1.7840 -0.2196 -1.4765
   8.44854   8.44854  30.00000
