Title
55513
    1DOPE     N    1   4.609   2.586  16.725 -0.6566  0.3379  0.1817
    1DOPE   HN1    2   4.559   2.677  16.726  1.2828  1.5227 -1.4142
    1DOPE   HN2    3   4.706   2.603  16.690 -0.3086 -0.4538  0.7371
    1DOPE   HN3    4   4.558   2.525  16.657  1.2072  0.1287 -1.1153
    1DOPE   C12    5   4.632   2.502  16.847 -0.5537 -0.0188 -0.1084
    1DOPE  H12A    6   4.679   2.564  16.927 -0.9762 -0.0913  0.1961
    1DOPE  H12B    7   4.702   2.419  16.825  0.2014  0.0090  1.9224
    1DOPE   C11    8   4.505   2.445  16.908  0.0727 -0.0486 -0.6006
    1DOPE  H11A    9   4.542   2.419  17.010 -0.0408 -1.7960 -0.9611
    1DOPE  H11B   10   4.478   2.349  16.859 -0.9080  0.5657 -1.2686
    1DOPE     P   11   4.248   2.500  16.906 -0.4263  0.2984 -0.2902
    1DOPE   O13   12   4.166   2.619  16.885  0.4251  0.4888  0.0287
    1DOPE   O14   13   4.225   2.423  17.036  1.3504 -0.0994  0.1429
    1DOPE   O11   14   4.249   2.395  16.788  0.0797 -0.2555  0.1788
    1DOPE   O12   15   4.395   2.541  16.922 -0.5478  0.4783 -0.1868
    1DOPE    C1   16   4.288   2.432  16.657  1.0821  0.5430 -0.0138
    1DOPE    HA   17   4.380   2.379  16.625 -0.4421 -1.2634 -1.6658
    1DOPE    HB   18   4.318   2.539  16.650 -1.1489  1.0811 -3.5555
    1DOPE    C2   19   4.174   2.406  16.557 -0.3962  0.4764 -0.2237
    1DOPE    HS   20   4.218   2.433  16.459 -0.0145 -2.8672 -1.0998
    1DOPE   O21   21   4.059   2.474  16.597 -0.1102 -0.4437  0.8390
    1DOPE   C21   22   4.034   2.600  16.558 -0.1519  0.7114 -0.3797
    1DOPE   O22   23   4.101   2.672  16.484  0.1575 -0.4668  0.0000
    1DOPE   C22   24   3.890   2.637  16.600  0.9350 -0.8289 -0.4208
    1DOPE   H2R   25   3.857   2.730  16.549  0.0057 -0.9686 -0.0834
    1DOPE   H2S   26   3.889   2.662  16.709  0.9566 -1.2312 -0.3268
    1DOPE    C3   27   4.131   2.254  16.559  0.1869  0.5552 -0.8286
    1DOPE    HX   28   4.045   2.240  16.629 -0.5512 -2.6075 -2.1885
    1DOPE    HY   29   4.205   2.183  16.601  0.0863  1.5460  1.1593
    1DOPE   O31   30   4.084   2.222  16.429 -0.0408 -0.5572  0.3761
    1DOPE   C31   31   4.048   2.097  16.409  0.7738  0.5104 -0.0766
    1DOPE   O32   32   4.054   2.011  16.493 -0.2392 -0.0434 -0.2536
    1DOPE   C32   33   3.994   2.075  16.264  0.5409  0.0957  0.0092
    1DOPE   H2X   34   3.884   2.081  16.255  0.6646  3.8128 -0.7953
    1DOPE   H2Y   35   4.024   2.164  16.204 -0.6388  0.8245  0.4781
    1DOPE   C23   36   3.776   2.533  16.568  0.1527  0.5314  0.0142
    1DOPE   H3R   37   3.686   2.561  16.626  0.9858 -0.6562  1.9891
    1DOPE   H3S   38   3.798   2.429  16.599  1.1644  0.3700 -1.1654
    1DOPE   C24   39   3.728   2.538  16.420 -0.0514  0.3361 -0.0053
    1DOPE   H4R   40   3.717   2.646  16.396 -0.8624  0.1406 -0.5655
    1DOPE   H4S   41   3.627   2.494  16.411  0.7983 -1.7883  0.2909
    1DOPE   C25   42   3.821   2.470  16.315  0.0090  0.1323  0.4513
    1DOPE   H5R   43   3.811   2.361  16.332 -0.8770  0.1207 -0.0697
    1DOPE   H5S   44   3.926   2.509  16.314  1.5913 -3.6768  1.5281
    1DOPE   C26   45   3.760   2.475  16.171 -0.1049 -0.1797 -0.4062
    1DOPE   H6R   46   3.773   2.577  16.129 -0.5120  0.3938  0.8245
    1DOPE   H6S   47   3.653   2.445  16.172 -0.2726  0.3679 -1.0713
    1DOPE   C27   48   3.839   2.391  16.062 -0.3154  0.1364 -0.8227
    1DOPE   H7R   49   3.838   2.287  16.102 -3.4650  0.7525  0.9887
    1DOPE   H7S   50   3.946   2.419  16.061 -0.1994 -0.2924 -0.9189
    1DOPE   C28   51   3.780   2.393  15.916  0.1839  0.6741  0.4292
    1DOPE   H8R   52   3.827   2.312  15.856  0.2014 -0.2546  1.6567
    1DOPE   H8S   53   3.814   2.485  15.863  3.3425 -0.3757  0.4208
    1DOPE   C29   54   3.626   2.383  15.907  0.4819  0.2937 -0.2998
    1DOPE   H9R   55   3.587   2.342  16.002  0.9063  0.5924  0.0070
    1DOPE  C210   56   3.538   2.396  15.804 -0.1841  0.0821  0.0971
    1DOPE  H10R   57   3.429   2.394  15.819 -0.4929  0.3054 -1.8647
    1DOPE  C211   58   3.593   2.421  15.665  0.3203  0.1713  0.2815
    1DOPE  H11R   59   3.694   2.377  15.663  0.3337  0.1841  0.6208
    1DOPE  H11S   60   3.588   2.531  15.651  0.8143  0.1510 -0.0916
    1DOPE  C212   61   3.512   2.366  15.544 -0.0483  0.9579 -0.1735
    1DOPE  H12R   62   3.417   2.424  15.545 -0.6552 -0.0117  0.7713
    1DOPE  H12S   63   3.498   2.256  15.552 -0.2518  1.0010  0.0641
    1DOPE  C213   64   3.576   2.400  15.412 -0.5336  0.5913 -0.1125
    1DOPE  H13R   65   3.680   2.361  15.406  0.1349  2.0267  1.4770
    1DOPE  H13S   66   3.599   2.508  15.401  1.6544  0.0027 -2.2170
    1DOPE  C214   67   3.501   2.350  15.279  0.5324  0.0042 -1.4906
    1DOPE  H14R   68   3.404   2.403  15.286  0.0696 -1.0170  1.7653
    1DOPE  H14S   69   3.488   2.240  15.285  3.1836 -0.3199  0.4977
    1DOPE  C215   70   3.576   2.398  15.159  0.5362 -1.0806  0.5379
    1DOPE  H15R   71   3.678   2.355  15.166  2.1958  2.3904  0.0807
    1DOPE  H15S   72   3.585   2.508  15.141 -0.0337 -1.1673 -0.3006
    1DOPE  C216   73   3.515   2.355  15.019  0.9260  0.0244 -0.2465
    1DOPE  H16R   74   3.425   2.417  14.998  1.2952 -0.1168 -2.4464
    1DOPE  H16S   75   3.501   2.244  15.013  1.2003  0.0458 -3.9425
    1DOPE  C217   76   3.597   2.383  14.901  0.0915  0.1048 -0.0611
    1DOPE  H17R   77   3.692   2.325  14.895  0.9674  1.6114 -1.4804
    1DOPE  H17S   78   3.641   2.484  14.892  1.8217 -0.4416  1.5020
    1DOPE  C218   79   3.522   2.356  14.773  0.1379 -0.2393  0.5199
    1DOPE  H18R   80   3.571   2.384  14.677 -0.8050  3.1773  0.9003
    1DOPE  H18S   81   3.428   2.414  14.763 -0.2517 -0.8577  0.5144
    1DOPE  H18T   82   3.492   2.249  14.766 -1.8084  0.1950  1.4506
    1DOPE   C33   83   4.036   1.950  16.194  1.1131  1.0486  0.0070
    1DOPE   H3X   84   3.990   1.860  16.241 -0.8595  0.4113 -2.8593
    1DOPE   H3Y   85   4.147   1.947  16.185  1.0294  1.3070 -1.2091
    1DOPE   C34   86   3.980   1.942  16.051 -0.8651 -0.5304 -0.2699
    1DOPE   H4X   87   4.025   2.022  15.989 -0.3767  0.1660  0.9474
    1DOPE   H4Y   88   4.013   1.845  16.008  1.8514 -0.0080  0.4955
    1DOPE   C35   89   3.826   1.943  16.020 -0.0610 -0.1542 -1.1810
    1DOPE   H5X   90   3.768   2.011  16.087 -0.8124 -2.1286  0.2665
    1DOPE   H5Y   91   3.788   1.840  16.035 -0.7185  0.3197  0.7408
    1DOPE   C36   92   3.797   1.989  15.876  0.0700 -0.2873  0.5512
    1DOPE   H6X   93   3.793   2.100  15.876 -0.9029 -0.3033  1.6061
    1DOPE   H6Y   94   3.693   1.963  15.849  0.3110 -2.1198  1.1945
    1DOPE   C37   95   3.883   1.930  15.761 -0.4009 -0.1307 -0.1637
    1DOPE   H7X   96   3.982   1.980  15.750  0.0396 -1.4062 -2.5254
    1DOPE   H7Y   97   3.902   1.822  15.776 -2.1123 -1.0341 -3.5322
    1DOPE   C38   98   3.812   1.946  15.620 -0.8543  0.0575  0.0326
    1DOPE   H8X   99   3.711   1.900  15.615  0.4538 -3.2690  1.2587
    1DOPE   H8Y  100   3.874   1.878  15.559 -0.4482 -0.8810  1.4462
    1DOPE   C39  101   3.815   2.091  15.561 -0.3265  0.2727  0.2590
    1DOPE   H9X  102   3.791   2.171  15.632  1.3548  1.0585 -0.0113
    1DOPE  C310  103   3.849   2.127  15.438  0.7778 -0.7444  0.5383
    1DOPE  H10X  104   3.825   2.230  15.405 -1.1993 -2.0430 -2.6458
    1DOPE  C311  105   3.887   2.041  15.326  0.0414 -0.2003  0.7052
    1DOPE  H11X  106   3.974   2.085  15.274  0.1999  0.0146  1.1460
    1DOPE  H11Y  107   3.918   1.943  15.369 -0.7077 -0.5768  0.4063
    1DOPE  C312  108   3.783   2.017  15.218  0.5068  0.4087 -0.5910
    1DOPE  H12X  109   3.748   2.111  15.170 -2.7079 -0.2947  0.1599
    1DOPE  H12Y  110   3.693   1.966  15.259  1.6815 -0.0855  1.4985
    1DOPE  C313  111   3.822   1.920  15.104  0.3092 -0.0025 -0.2733
    1DOPE  H13X  112   3.929   1.938  15.080  0.2466 -2.4060 -2.8702
    1DOPE  H13Y  113   3.817   1.811  15.124 -1.8205 -0.1524 -1.3045
    1DOPE  C314  114   3.733   1.944  14.980 -0.1278 -0.7301 -0.5522
    1DOPE  H14X  115   3.743   2.052  14.957  0.6108 -0.7508 -0.3369
    1DOPE  H14Y  116   3.631   1.899  14.989 -1.9455  3.0599 -0.2199
    1DOPE  C315  117   3.788   1.869  14.862  0.6110  0.0783 -0.0405
    1DOPE  H15X  118   3.769   1.760  14.874 -0.8812  0.1310 -1.5988
    1DOPE  H15Y  119   3.897   1.888  14.857  0.4755  1.6584  1.8072
    1DOPE  C316  120   3.722   1.916  14.732 -0.1085 -0.0908 -0.5987
    1DOPE  H16X  121   3.750   2.021  14.710 -1.5693  0.8876  1.8180
    1DOPE  H16Y  122   3.611   1.924  14.739 -0.2598 -1.9303 -0.3524
    1DOPE  C317  123   3.746   1.813  14.624  0.1110  0.2760 -0.4793
    1DOPE  H17X  124   3.853   1.810  14.594  0.5348  1.9341  0.7516
    1DOPE  H17Y  125   3.713   1.719  14.674 -0.3550  0.6938  0.0091
    1DOPE  C318  126   3.662   1.833  14.488 -0.1709 -0.3458 -0.1374
    1DOPE  H18X  127   3.558   1.794  14.502 -0.4637 -0.7626 -2.8712
    1DOPE  H18Y  128   3.656   1.941  14.464 -5.9334  0.3627  2.7064
    1DOPE  H18Z  129   3.715   1.772  14.412  1.5619 -0.7461  1.3130
    2DOPE     N  130   5.077   2.706  16.962 -0.2263  0.4408  0.2615
    2DOPE   HN1  131   5.016   2.631  16.998  0.6377 -0.2071  0.4042
    2DOPE   HN2  132   5.096   2.765  17.045 -1.9604  1.4070  0.0305
    2DOPE   HN3  133   5.023   2.771  16.900  0.8786 -0.0608 -1.3129
    2DOPE   C12  134   5.180   2.641  16.891 -0.6649  0.0810  0.3635
    2DOPE  H12A  135   5.215   2.556  16.953 -1.2063  2.7364  4.7035
    2DOPE  H12B  136   5.264   2.712  16.873 -0.7210  0.0460 -0.0423
    2DOPE   C11  137   5.129   2.580  16.756  0.0953  0.4284 -0.2126
    2DOPE  H11A  138   5.036   2.523  16.773  1.1274 -1.9674 -2.0561
    2DOPE  H11B  139   5.205   2.516  16.707  1.1386  0.4911  1.2564
    2DOPE     P  140   4.977   2.671  16.560 -0.3582  0.5163  0.3863
    2DOPE   O13  141   4.993   2.777  16.458  0.1038 -0.3963  0.2393
    2DOPE   O14  142   4.850   2.651  16.630 -0.1420 -0.2597 -0.2416
    2DOPE   O11  143   5.023   2.534  16.499  0.0656 -0.1834 -0.2949
    2DOPE   O12  144   5.103   2.692  16.664 -0.3507 -0.1147 -0.0254
    2DOPE    C1  145   4.932   2.424  16.489  0.4043  0.1839  0.4737
    2DOPE    HA  146   4.864   2.420  16.577  0.3769  0.4787  0.4659
    2DOPE    HB  147   4.986   2.328  16.474 -0.7178 -0.4746  0.4613
    2DOPE    C2  148   4.836   2.428  16.366  0.2978  1.0862 -0.4089
    2DOPE    HS  149   4.781   2.525  16.372 -1.6272  0.0118 -0.0741
    2DOPE   O21  150   4.756   2.308  16.369  0.4096  0.2936  0.8121
    2DOPE   C21  151   4.644   2.318  16.440 -0.8221  0.4202 -0.6331
    2DOPE   O22  152   4.614   2.420  16.502  0.2486  0.1640  0.2653
    2DOPE   C22  153   4.558   2.199  16.434  0.6910 -0.2483  0.0481
    2DOPE   H2R  154   4.549   2.157  16.537  0.9972  1.2190  0.7002
    2DOPE   H2S  155   4.605   2.106  16.396 -0.4853 -1.1303  0.6509
    2DOPE    C3  156   4.925   2.430  16.232  0.0378  0.4766 -0.4635
    2DOPE    HX  157   4.997   2.347  16.246  0.2321  0.7721  0.4212
    2DOPE    HY  158   4.984   2.524  16.231  1.3749 -0.3164 -2.6501
    2DOPE   O31  159   4.855   2.407  16.106 -0.1583 -0.0726 -0.0671
    2DOPE   C31  160   4.789   2.520  16.072  0.5896  1.0138 -0.6386
    2DOPE   O32  161   4.783   2.620  16.142 -0.0169  0.1297  0.3843
    2DOPE   C32  162   4.730   2.506  15.936 -0.6112  0.3490  0.6433
    2DOPE   H2X  163   4.822   2.497  15.874 -0.4794 -1.8558  1.0631
    2DOPE   H2Y  164   4.670   2.412  15.932 -2.2511  1.3796 -0.1810
    2DOPE   C23  165   4.439   2.213  16.339  0.3028 -0.7700 -0.0430
    2DOPE   H3R  166   4.382   2.298  16.383  0.6277 -0.0374 -1.0068
    2DOPE   H3S  167   4.373   2.125  16.353 -2.2162  1.1607  0.9899
    2DOPE   C24  168   4.477   2.218  16.189  0.4300  0.4134  0.5312
    2DOPE   H4R  169   4.539   2.129  16.164  0.6841  0.3590  1.3235
    2DOPE   H4S  170   4.549   2.298  16.162  1.4238  0.4354  2.9987
    2DOPE   C25  171   4.347   2.233  16.095 -0.6210 -0.0106  0.4555
    2DOPE   H5R  172   4.275   2.309  16.131  0.7315  0.8350  1.4273
    2DOPE   H5S  173   4.294   2.135  16.094 -0.1994 -0.2481 -0.6140
    2DOPE   C26  174   4.400   2.271  15.958 -0.1210 -0.3804  0.6335
    2DOPE   H6R  175   4.492   2.216  15.927 -0.3566  0.3232 -1.5055
    2DOPE   H6S  176   4.431   2.378  15.963 -1.2111  0.0492 -0.9174
    2DOPE   C27  177   4.292   2.230  15.852  0.3541  0.5422 -0.1845
    2DOPE   H7R  178   4.302   2.307  15.772 -2.1846  0.5547 -0.5638
    2DOPE   H7S  179   4.194   2.259  15.896  0.7161 -0.3261  1.2137
    2DOPE   C28  180   4.299   2.092  15.784 -0.6145  0.3055 -0.1782
    2DOPE   H8R  181   4.201   2.097  15.733 -1.9328  1.6426  2.2932
    2DOPE   H8S  182   4.294   2.010  15.858 -0.5373  0.5623  0.1113
    2DOPE   C29  183   4.421   2.073  15.694 -0.3109  0.4848 -0.1566
    2DOPE   H9R  184   4.512   2.025  15.734 -1.2215 -2.1871 -1.0428
    2DOPE  C210  185   4.425   2.109  15.563 -0.0852 -0.0406 -0.0071
    2DOPE  H10R  186   4.524   2.108  15.516  0.9304  1.1704  1.9253
    2DOPE  C211  187   4.318   2.176  15.496  0.3320 -0.7566  0.1342
    2DOPE  H11R  188   4.360   2.270  15.453 -1.4410 -0.5926 -1.3628
    2DOPE  H11S  189   4.231   2.203  15.559 -0.5396 -1.1016 -0.8968
    2DOPE  C212  190   4.272   2.097  15.368  0.6781  0.2197  0.0923
    2DOPE  H12R  191   4.217   2.166  15.301  0.1885 -1.4840 -1.3638
    2DOPE  H12S  192   4.209   2.010  15.396  0.8113 -0.4051 -1.4202
    2DOPE  C213  193   4.389   2.038  15.280 -0.1486  0.5173 -0.6896
    2DOPE  H13R  194   4.450   1.968  15.341 -1.3908 -1.8131 -2.0123
    2DOPE  H13S  195   4.449   2.131  15.268 -1.0391  1.1977 -0.0555
    2DOPE  C214  196   4.338   1.974  15.152  0.2830 -0.7192 -0.4989
    2DOPE  H14R  197   4.237   1.936  15.180  0.2354 -0.1308  0.1625
    2DOPE  H14S  198   4.404   1.888  15.127 -0.7118 -1.6822  0.0938
    2DOPE  C215  199   4.322   2.073  15.038 -0.2004  0.0067  0.5069
    2DOPE  H15R  200   4.418   2.127  15.024  1.2982 -2.6764 -0.1433
    2DOPE  H15S  201   4.244   2.144  15.075 -1.5408 -0.2145 -1.6966
    2DOPE  C216  202   4.264   2.015  14.905  0.1670 -0.2508  0.1214
    2DOPE  H16R  203   4.248   2.098  14.833  0.4855 -0.9500 -0.7816
    2DOPE  H16S  204   4.163   1.975  14.929 -0.1389  0.3544 -0.1339
    2DOPE  C217  205   4.360   1.915  14.839  0.5975  0.2462 -0.2710
    2DOPE  H17R  206   4.305   1.854  14.764  2.8557  0.5929 -2.3506
    2DOPE  H17S  207   4.393   1.836  14.909 -1.7983 -2.2711 -1.7526
    2DOPE  C218  208   4.474   1.980  14.772 -0.1438  0.4177 -0.1096
    2DOPE  H18R  209   4.530   2.049  14.838 -0.0088 -1.6206  2.0300
    2DOPE  H18S  210   4.451   2.040  14.681  0.4019 -2.1603 -2.1058
    2DOPE  H18T  211   4.553   1.905  14.748  0.5392  0.8573  0.7433
    2DOPE   C33  212   4.637   2.623  15.903  0.6192 -0.4656  0.1145
    2DOPE   H3X  213   4.672   2.723  15.937 -2.3196  1.5308 -2.1832
    2DOPE   H3Y  214   4.533   2.601  15.938 -0.1101  0.1786 -1.5604
    2DOPE   C34  215   4.627   2.640  15.746  0.0056  0.0534  0.2526
    2DOPE   H4X  216   4.580   2.739  15.726  2.3041  1.3867  1.1011
    2DOPE   H4Y  217   4.727   2.653  15.701 -0.4352 -0.3165 -0.8834
    2DOPE   C35  218   4.553   2.531  15.670  0.0250 -0.6203 -0.3773
    2DOPE   H5X  219   4.444   2.534  15.691 -0.0343 -0.2799 -0.7260
    2DOPE   H5Y  220   4.596   2.436  15.708  1.6557  0.1118 -0.3325
    2DOPE   C36  221   4.585   2.542  15.524  0.5615 -0.1413 -0.9046
    2DOPE   H6X  222   4.562   2.451  15.465  0.1837 -0.9539  0.4566
    2DOPE   H6Y  223   4.695   2.552  15.527  0.5710 -0.5886  0.6674
    2DOPE   C37  224   4.532   2.669  15.449 -0.0376  0.4051  0.0799
    2DOPE   H7X  225   4.430   2.675  15.491 -0.6559 -1.2066 -1.1283
    2DOPE   H7Y  226   4.586   2.760  15.483 -1.5817  1.7020 -0.8289
    2DOPE   C38  227   4.535   2.663  15.293  1.1816 -0.1723  0.2021
    2DOPE   H8X  228   4.538   2.771  15.268  0.2324  0.5607  2.9146
    2DOPE   H8Y  229   4.433   2.629  15.266  0.8807  0.4269  0.5907
    2DOPE   C39  230   4.645   2.584  15.232  0.7234  0.3125  0.6926
    2DOPE   H9X  231   4.743   2.628  15.256  0.8895 -0.5564  1.6746
    2DOPE  C310  232   4.639   2.476  15.144  0.3900  0.0621 -0.1675
    2DOPE  H10X  233   4.728   2.418  15.117 -0.3820 -1.5857  0.6937
    2DOPE  C311  234   4.510   2.404  15.103  0.3721 -0.1439  0.0408
    2DOPE  H11X  235   4.510   2.303  15.149 -2.0189  0.5644  1.8086
    2DOPE  H11Y  236   4.414   2.445  15.142  0.8762  0.0843  1.0482
    2DOPE  C312  237   4.503   2.405  14.947 -0.2702 -0.3407 -0.0820
    2DOPE  H12X  238   4.412   2.349  14.917 -1.1321  0.4308  1.0304
    2DOPE  H12Y  239   4.587   2.350  14.900 -1.0551 -1.9643  0.3457
    2DOPE  C313  240   4.481   2.534  14.873 -0.2450 -0.2766 -0.7970
    2DOPE  H13X  241   4.393   2.582  14.920  1.1035  1.9901 -0.4548
    2DOPE  H13Y  242   4.572   2.595  14.889 -0.7321 -0.0385  1.3784
    2DOPE  C314  243   4.450   2.529  14.728 -0.4161  0.2830  0.9320
    2DOPE  H14X  244   4.350   2.572  14.705 -0.6597 -1.4296 -1.6859
    2DOPE  H14Y  245   4.427   2.427  14.690 -3.2076  1.2508 -0.2199
    2DOPE  C315  246   4.557   2.598  14.636 -1.3183  0.6840 -0.0885
    2DOPE  H15X  247   4.657   2.567  14.671 -1.6543 -1.2576 -0.7636
    2DOPE  H15Y  248   4.540   2.708  14.637  1.6671  1.2529 -1.1617
    2DOPE  C316  249   4.530   2.558  14.489  0.2259 -0.9906 -0.0669
    2DOPE  H16X  250   4.433   2.592  14.448  0.9906  1.0680 -0.2880
    2DOPE  H16Y  251   4.532   2.447  14.485 -0.9850 -0.9961 -0.9811
    2DOPE  C317  252   4.635   2.608  14.379  0.0578  0.1181 -0.3247
    2DOPE  H17X  253   4.729   2.552  14.397  1.0003  1.9478  0.7384
    2DOPE  H17Y  254   4.594   2.575  14.281 -2.1687  1.7040 -0.0101
    2DOPE  C318  255   4.665   2.755  14.399 -0.1570  0.0481 -0.1220
    2DOPE  H18X  256   4.737   2.770  14.482  0.3701  0.1515 -0.5886
    2DOPE  H18Y  257   4.707   2.793  14.303 -2.8715  0.1423 -1.3744
    2DOPE  H18Z  258   4.573   2.805  14.433 -0.5958 -1.5444  1.1424
    3DOPE     N  259   2.005   3.602  16.175 -0.5315  0.0547  0.3837
    3DOPE   HN1  260   1.995   3.525  16.106 -1.2644 -0.8299  1.4320
    3DOPE   HN2  261   2.023   3.690  16.123  0.0511  1.1501  2.3221
    3DOPE   HN3  262   2.093   3.573  16.222 -0.1629 -0.0735 -0.3817
    3DOPE   C12  263   1.887   3.611  16.266 -0.3794 -0.2007  0.1962
    3DOPE  H12A  264   1.804   3.647  16.200 -0.6193  0.5741  0.8949
    3DOPE  H12B  265   1.915   3.688  16.341  3.0852  0.0446 -1.1916
    3DOPE   C11  266   1.839   3.473  16.318  0.0661  0.0824  0.0042
    3DOPE  H11A  267   1.819   3.412  16.227  0.6909  1.0640 -0.8068
    3DOPE  H11B  268   1.757   3.499  16.389  2.4341 -2.0268  3.8796
    3DOPE     P  269   2.019   3.286  16.351 -0.6067  0.1327 -0.0469
    3DOPE   O13  270   1.926   3.170  16.354 -0.4739 -0.5363  0.6393
    3DOPE   O14  271   2.134   3.280  16.441 -0.4604  0.5496  0.1358
    3DOPE   O11  272   2.066   3.330  16.209 -0.1961 -0.2955  0.4260
    3DOPE   O12  273   1.942   3.408  16.398  0.0461  0.1311  0.3653
    3DOPE    C1  274   2.170   3.259  16.148  0.7505  0.3353 -0.7382
    3DOPE    HA  275   2.145   3.151  16.134  0.8413  0.0373  1.1411
    3DOPE    HB  276   2.264   3.263  16.208 -0.7305 -0.3379  1.7772
    3DOPE    C2  277   2.207   3.327  16.012 -0.2063 -0.6423  0.5554
    3DOPE    HS  278   2.216   3.437  16.024 -0.3966 -0.6541  0.8312
    3DOPE   O21  279   2.115   3.282  15.909  0.5319  0.2695  0.5725
    3DOPE   C21  280   2.013   3.362  15.892  0.1168  0.3778  0.4360
    3DOPE   O22  281   1.988   3.459  15.963  0.6485  0.5220  0.0552
    3DOPE   C22  282   1.935   3.307  15.771  1.0424 -0.6579  0.0210
    3DOPE   H2R  283   2.014   3.259  15.710  1.9670  0.8954 -0.0648
    3DOPE   H2S  284   1.892   3.397  15.721  2.0040 -1.2400 -1.9691
    3DOPE    C3  285   2.353   3.294  15.969 -0.0156 -0.2487  0.1815
    3DOPE    HX  286   2.351   3.186  15.941  0.0973  0.2177 -1.7603
    3DOPE    HY  287   2.424   3.300  16.055 -0.2964 -0.4209  0.4287
    3DOPE   O31  288   2.390   3.380  15.857  0.6755 -0.0978  0.2646
    3DOPE   C31  289   2.516   3.352  15.805  0.3581 -0.5987 -0.3974
    3DOPE   O32  290   2.579   3.260  15.846 -0.0251 -0.1766  0.1978
    3DOPE   C32  291   2.555   3.439  15.692  0.5653  0.3343  0.9446
    3DOPE   H2X  292   2.536   3.543  15.726  1.3763  0.3570  1.3609
    3DOPE   H2Y  293   2.665   3.429  15.678  0.5932 -1.0026  1.9029
    3DOPE   C23  294   1.817   3.209  15.814 -0.4376 -0.4367 -0.8752
    3DOPE   H3R  295   1.733   3.268  15.855  0.5044 -0.2888  0.9255
    3DOPE   H3S  296   1.861   3.141  15.891 -2.0421 -0.0648  0.4236
    3DOPE   C24  297   1.778   3.113  15.703  0.0468 -0.3689 -0.1810
    3DOPE   H4R  298   1.691   3.052  15.738 -0.7164 -0.2086 -1.7307
    3DOPE   H4S  299   1.858   3.048  15.664  1.2028  0.6649  0.4068
    3DOPE   C25  300   1.724   3.188  15.577  0.1406  0.6599 -0.1705
    3DOPE   H5R  301   1.811   3.238  15.530  1.2465 -1.2581 -0.2568
    3DOPE   H5S  302   1.645   3.263  15.601  1.9653  2.2750  1.2091
    3DOPE   C26  303   1.681   3.090  15.469 -0.8277  0.3275  0.0337
    3DOPE   H6R  304   1.600   3.019  15.500 -1.4595  0.8458 -0.3965
    3DOPE   H6S  305   1.761   3.019  15.440 -1.6521 -0.7684  0.3315
    3DOPE   C27  306   1.652   3.173  15.340 -0.3536  0.4239  0.2535
    3DOPE   H7R  307   1.736   3.227  15.292  0.9577  1.1729  3.1844
    3DOPE   H7S  308   1.586   3.260  15.362 -0.4039  0.8827 -1.5291
    3DOPE   C28  309   1.586   3.084  15.233 -0.0567  0.6686 -0.3046
    3DOPE   H8R  310   1.514   3.015  15.284 -0.6104 -1.4473 -3.6439
    3DOPE   H8S  311   1.665   3.015  15.197 -0.3286  0.4937 -0.5715
    3DOPE   C29  312   1.529   3.171  15.126  0.9828 -0.5545 -1.3375
    3DOPE   H9R  313   1.432   3.217  15.151  0.7408  0.4988 -3.8499
    3DOPE  C210  314   1.564   3.186  15.006  0.0103  0.2906  0.4820
    3DOPE  H10R  315   1.498   3.247  14.943  0.5156  0.7760  0.4146
    3DOPE  C211  316   1.678   3.121  14.925  0.2612  0.0595  0.7776
    3DOPE  H11R  317   1.679   3.010  14.934  0.0284 -0.2863 -2.4378
    3DOPE  H11S  318   1.775   3.167  14.952  0.8558 -1.2431  0.9742
    3DOPE  C212  319   1.660   3.143  14.776  0.5987 -0.4988  0.2017
    3DOPE  H12R  320   1.755   3.121  14.723  0.5371  0.1063 -0.1813
    3DOPE  H12S  321   1.628   3.248  14.758 -0.3497 -0.4982  1.6699
    3DOPE  C213  322   1.544   3.058  14.720  0.1127  0.0311  0.4175
    3DOPE  H13R  323   1.446   3.103  14.746 -1.8797 -2.5004 -2.0000
    3DOPE  H13S  324   1.548   2.950  14.746 -0.9047 -1.2020 -3.7598
    3DOPE  C214  325   1.545   3.072  14.561  0.3234  0.4671  0.4179
    3DOPE  H14R  326   1.637   3.021  14.525 -0.7530 -0.6810 -0.8216
    3DOPE  H14S  327   1.543   3.181  14.540  2.1438  0.1951 -1.6361
    3DOPE  C215  328   1.438   2.981  14.497 -0.7237  0.3074 -0.1592
    3DOPE  H15R  329   1.338   3.014  14.533 -1.4783 -0.1631 -1.7339
    3DOPE  H15S  330   1.457   2.879  14.536 -1.3771 -0.4541 -1.7372
    3DOPE  C216  331   1.443   2.974  14.348 -0.1521 -0.5890 -0.1785
    3DOPE  H16R  332   1.372   2.891  14.332 -2.5111  0.4765  3.5768
    3DOPE  H16S  333   1.547   2.951  14.316  1.1179  1.2288  2.2779
    3DOPE  C217  334   1.394   3.105  14.290  0.1618  0.6466 -0.0749
    3DOPE  H17R  335   1.440   3.192  14.342 -2.3151  1.7783  0.4123
    3DOPE  H17S  336   1.284   3.109  14.309 -0.3620 -2.8875 -1.5720
    3DOPE  C218  337   1.421   3.116  14.135  0.1308 -0.2191 -0.5622
    3DOPE  H18R  338   1.379   3.210  14.092 -0.4563 -0.2386 -0.0366
    3DOPE  H18S  339   1.367   3.030  14.090  1.3401 -2.8641  2.6394
    3DOPE  H18T  340   1.530   3.105  14.115 -0.3478 -0.1359 -3.8753
    3DOPE   C33  341   2.495   3.386  15.553  0.0588 -0.7163  0.2031
    3DOPE   H3X  342   2.386   3.383  15.574 -0.1217  0.5379 -0.4640
    3DOPE   H3Y  343   2.531   3.285  15.520  1.2423 -0.8449  1.7507
    3DOPE   C34  344   2.532   3.480  15.438  0.4135  0.0847 -1.1878
    3DOPE   H4X  345   2.473   3.573  15.455  0.8011  0.5884 -2.4862
    3DOPE   H4Y  346   2.640   3.507  15.439  0.0134  1.7601 -0.2922
    3DOPE   C35  347   2.506   3.401  15.307  0.3155 -0.1404 -0.4763
    3DOPE   H5X  348   2.401   3.365  15.309 -0.3641  1.7757  0.4680
    3DOPE   H5Y  349   2.573   3.312  15.312  0.7191  0.2172  1.5953
    3DOPE   C36  350   2.534   3.484  15.186  0.0196 -0.8060 -0.1508
    3DOPE   H6X  351   2.642   3.507  15.173 -0.0515  2.5305  3.3354
    3DOPE   H6Y  352   2.492   3.584  15.208  0.0644 -0.3659 -1.9434
    3DOPE   C37  353   2.478   3.424  15.057 -0.2884  0.0204  0.2969
    3DOPE   H7X  354   2.535   3.330  15.042  0.8008  0.9485 -1.7560
    3DOPE   H7Y  355   2.372   3.402  15.083 -0.2773  2.5669  3.1111
    3DOPE   C38  356   2.478   3.520  14.939  0.1669 -0.2407 -0.9256
    3DOPE   H8X  357   2.576   3.573  14.940 -0.1815  0.4076 -0.6241
    3DOPE   H8Y  358   2.411   3.604  14.966  1.3699  0.7423 -0.9102
    3DOPE   C39  359   2.427   3.467  14.811 -0.0662 -0.5311  0.4409
    3DOPE   H9X  360   2.349   3.390  14.814  1.1411 -1.7546  2.2669
    3DOPE  C310  361   2.471   3.501  14.687 -0.4202  0.3725 -0.8303
    3DOPE  H10X  362   2.421   3.467  14.596 -0.9605  1.4742 -0.9606
    3DOPE  C311  363   2.570   3.613  14.659  0.3617 -0.8067 -0.1256
    3DOPE  H11X  364   2.516   3.709  14.654  0.1717 -0.9758 -1.9284
    3DOPE  H11Y  365   2.652   3.624  14.734  3.1882  0.4268 -3.1468
    3DOPE  C312  366   2.653   3.603  14.532 -0.9505 -0.0495  0.6461
    3DOPE  H12X  367   2.590   3.621  14.442  1.3677  0.1786 -1.0097
    3DOPE  H12Y  368   2.696   3.500  14.525  0.7494  0.7093 -0.6445
    3DOPE  C313  369   2.767   3.701  14.519  0.0448 -0.4550 -0.6615
    3DOPE  H13X  370   2.723   3.803  14.507 -2.3709 -1.3538 -0.0036
    3DOPE  H13Y  371   2.829   3.701  14.611  0.9547 -0.5468 -1.2671
    3DOPE  C314  372   2.867   3.668  14.410 -0.6693 -0.2424 -0.1063
    3DOPE  H14X  373   2.887   3.560  14.429  0.0812 -0.0563  0.2123
    3DOPE  H14Y  374   2.967   3.717  14.416  0.4566 -2.4414  0.4399
    3DOPE  C315  375   2.812   3.713  14.270 -0.4679 -0.2159  0.1608
    3DOPE  H15X  376   2.806   3.823  14.278 -0.2746  0.1560 -3.3065
    3DOPE  H15Y  377   2.712   3.670  14.248 -1.1151  1.1931  0.2482
    3DOPE  C316  378   2.902   3.679  14.149 -0.3676 -0.2135  1.0574
    3DOPE  H16X  379   2.901   3.568  14.139  1.0473 -0.2713  1.3482
    3DOPE  H16Y  380   3.004   3.709  14.179  0.3368  0.7153 -1.9549
    3DOPE  C317  381   2.862   3.747  14.022 -0.7835  0.2591 -0.2702
    3DOPE  H17X  382   2.760   3.712  13.995 -0.7623  0.2949 -0.3991
    3DOPE  H17Y  383   2.860   3.858  14.020 -0.5178  0.2550 -1.5426
    3DOPE  C318  384   2.947   3.699  13.904  0.8652 -0.1190  0.5042
    3DOPE  H18X  385   3.043   3.752  13.922  0.1825  1.2442  0.2191
    3DOPE  H18Y  386   2.962   3.591  13.930 -0.6554  0.2259  3.1810
    3DOPE  H18Z  387   2.903   3.714  13.803  0.9476 -0.9135  0.3348
    4DOPE     N  388   4.801   1.589  17.016 -0.1109 -0.1390  0.7778
    4DOPE   HN1  389   4.884   1.649  17.033 -0.4053  0.5999 -0.3464
    4DOPE   HN2  390   4.743   1.578  17.102  0.8902 -0.7806  1.3935
    4DOPE   HN3  391   4.839   1.493  17.001  0.1722 -0.3687  2.6852
    4DOPE   C12  392   4.720   1.633  16.896  0.0940  0.4055 -0.1433
    4DOPE  H12A  393   4.650   1.549  16.873  0.3790 -0.3794  1.6711
    4DOPE  H12B  394   4.801   1.632  16.820  2.9649 -1.0352  2.6766
    4DOPE   C11  395   4.652   1.768  16.920  1.0683  0.2718 -1.0187
    4DOPE  H11A  396   4.596   1.787  16.825 -0.6079  1.7217  0.1999
    4DOPE  H11B  397   4.729   1.847  16.932  2.2064 -1.0695  0.9838
    4DOPE     P  398   4.477   1.882  17.061  0.3472 -0.4365 -0.3245
    4DOPE   O13  399   4.547   2.009  17.035  0.3350  0.2165 -0.3621
    4DOPE   O14  400   4.405   1.872  17.192  0.0290  0.3823 -0.1915
    4DOPE   O11  401   4.367   1.857  16.947 -0.0597  0.1234  0.0224
    4DOPE   O12  402   4.564   1.758  17.031 -0.4775  0.0484 -0.3290
    4DOPE    C1  403   4.281   1.748  16.950 -0.0170  0.3157 -0.5235
    4DOPE    HA  404   4.174   1.777  16.939 -0.3284 -1.0593 -1.2782
    4DOPE    HB  405   4.285   1.690  17.044 -0.5707  1.2005  0.0618
    4DOPE    C2  406   4.316   1.649  16.826 -0.0161 -0.1080  0.8201
    4DOPE    HS  407   4.426   1.629  16.820  0.3540  2.0774 -2.3289
    4DOPE   O21  408   4.286   1.720  16.706 -0.1263 -0.0317  0.4069
    4DOPE   C21  409   4.358   1.706  16.598  0.4236 -0.2371  0.2924
    4DOPE   O22  410   4.466   1.649  16.594 -0.4453  0.5174  0.1084
    4DOPE   C22  411   4.293   1.767  16.473 -0.1732 -0.0958  0.1215
    4DOPE   H2R  412   4.329   1.872  16.460 -0.5781 -0.0870 -1.1032
    4DOPE   H2S  413   4.184   1.762  16.490  0.0368 -1.0795  1.2745
    4DOPE    C3  414   4.232   1.524  16.835 -0.3221  0.5679  0.9949
    4DOPE    HX  415   4.125   1.548  16.854 -0.0988  0.5510  2.3937
    4DOPE    HY  416   4.247   1.471  16.931 -2.6849 -1.4737  0.3355
    4DOPE   O31  417   4.255   1.438  16.718 -0.6117 -0.3049 -0.8107
    4DOPE   C31  418   4.369   1.366  16.728 -0.0153  0.3029  0.0899
    4DOPE   O32  419   4.450   1.367  16.822  0.6536 -0.1018 -0.2555
    4DOPE   C32  420   4.369   1.284  16.600 -0.0628 -0.0982  0.4278
    4DOPE   H2X  421   4.264   1.250  16.594  0.1810 -0.8209  0.2258
    4DOPE   H2Y  422   4.378   1.354  16.514 -2.4156  0.3410  0.4861
    4DOPE   C23  423   4.351   1.687  16.354 -0.4000 -1.0022 -0.1016
    4DOPE   H3R  424   4.459   1.671  16.377  0.3167  2.1395 -0.8116
    4DOPE   H3S  425   4.360   1.742  16.258 -4.9985  2.7560  1.2252
    4DOPE   C24  426   4.275   1.561  16.335  0.0220 -0.4532 -0.1328
    4DOPE   H4R  427   4.221   1.527  16.426 -0.3837  0.1867 -0.1258
    4DOPE   H4S  428   4.327   1.469  16.301 -0.6945 -0.4435 -1.2860
    4DOPE   C25  429   4.161   1.571  16.224  0.2169  0.6202  0.9266
    4DOPE   H5R  430   4.101   1.665  16.226  1.7028  1.6006  1.6951
    4DOPE   H5S  431   4.089   1.486  16.223  1.6573 -0.6448 -0.0038
    4DOPE   C26  432   4.228   1.570  16.079  0.1657 -0.0545  0.0453
    4DOPE   H6R  433   4.319   1.508  16.087 -0.7531 -1.6556 -1.2983
    4DOPE   H6S  434   4.263   1.672  16.055 -0.7987  0.6456  1.4610
    4DOPE   C27  435   4.121   1.536  15.971 -0.2652 -0.4547  0.8576
    4DOPE   H7R  436   4.020   1.580  15.985 -0.1293  1.2706 -2.4744
    4DOPE   H7S  437   4.107   1.427  15.988 -1.5724 -0.2038  1.4770
    4DOPE   C28  438   4.164   1.555  15.823 -0.2979  0.1505  0.0127
    4DOPE   H8R  439   4.103   1.502  15.746  0.3784 -0.5302 -0.0737
    4DOPE   H8S  440   4.264   1.508  15.826 -0.5182 -0.4653 -1.3447
    4DOPE   C29  441   4.175   1.695  15.767  0.0599 -0.6460 -0.3762
    4DOPE   H9R  442   4.123   1.771  15.827 -2.4391 -1.6624 -1.0975
    4DOPE  C210  443   4.240   1.732  15.655 -0.0274  0.3603  0.6906
    4DOPE  H10R  444   4.251   1.839  15.632 -0.0333  0.5555  1.5480
    4DOPE  C211  445   4.293   1.629  15.555  0.6358 -0.3097 -0.1137
    4DOPE  H11R  446   4.251   1.531  15.585  0.2742 -0.5189 -1.2636
    4DOPE  H11S  447   4.400   1.599  15.564  0.9807  1.0916  0.7305
    4DOPE  C212  448   4.245   1.660  15.411 -0.5166 -0.1488  0.6768
    4DOPE  H12R  449   4.296   1.586  15.345  1.6395  2.5504 -0.9297
    4DOPE  H12S  450   4.282   1.758  15.375  0.4517 -1.0411 -0.8839
    4DOPE  C213  451   4.099   1.648  15.402  0.1632  0.6361 -1.1578
    4DOPE  H13R  452   4.059   1.751  15.409  0.7347  0.8194 -0.4971
    4DOPE  H13S  453   4.052   1.584  15.480 -0.7858 -1.7997 -3.5376
    4DOPE  C214  454   4.039   1.585  15.270 -0.0368  0.9699 -0.4168
    4DOPE  H14R  455   3.930   1.606  15.268 -0.5405 -1.4671 -1.7825
    4DOPE  H14S  456   4.049   1.475  15.270  3.4671  1.0911 -3.2109
    4DOPE  C215  457   4.094   1.633  15.138 -0.2843  0.1821 -0.1109
    4DOPE  H15R  458   4.204   1.620  15.129  0.2629  2.9001  1.4329
    4DOPE  H15S  459   4.068   1.741  15.132 -0.2221  0.1569 -0.8585
    4DOPE  C216  460   4.032   1.558  15.025 -0.0570  0.4528  0.0659
    4DOPE  H16R  461   3.922   1.578  15.026 -0.1107  0.2779 -1.0310
    4DOPE  H16S  462   4.049   1.449  15.035 -1.6249  0.3176  1.8980
    4DOPE  C217  463   4.077   1.616  14.893 -0.4165 -0.3062 -0.6229
    4DOPE  H17R  464   4.187   1.605  14.892 -0.5336 -1.5898 -0.5981
    4DOPE  H17S  465   4.064   1.727  14.898  0.6257 -0.1088 -1.8484
    4DOPE  C218  466   4.011   1.560  14.769 -0.6781 -0.8198 -0.0601
    4DOPE  H18R  467   4.038   1.629  14.686 -1.5129  0.5569  0.7739
    4DOPE  H18S  468   3.900   1.563  14.774 -0.6537 -0.4493  0.3309
    4DOPE  H18T  469   4.040   1.457  14.738 -0.9239 -0.8192 -0.2904
    4DOPE   C33  470   4.452   1.160  16.607 -0.2159 -0.2244  0.2057
    4DOPE   H3X  471   4.446   1.118  16.710  0.9021  0.4785  0.5688
    4DOPE   H3Y  472   4.556   1.188  16.580 -0.7413  0.5553 -1.1106
    4DOPE   C34  473   4.389   1.051  16.522 -0.4748 -0.3545 -0.4267
    4DOPE   H4X  474   4.456   0.964  16.538  2.0445  1.8754  2.2069
    4DOPE   H4Y  475   4.291   1.022  16.567 -0.6784  0.4847 -0.3164
    4DOPE   C35  476   4.363   1.100  16.382  0.0164  0.6644  0.4695
    4DOPE   H5X  477   4.301   1.191  16.365 -0.5531 -0.2043 -2.7848
    4DOPE   H5Y  478   4.299   1.025  16.331 -1.0452  2.0774 -0.3652
    4DOPE   C36  479   4.486   1.106  16.296  0.0262 -0.6152  0.0227
    4DOPE   H6X  480   4.499   1.000  16.266 -0.9375 -0.3952 -1.2745
    4DOPE   H6Y  481   4.575   1.143  16.351 -0.7545  0.2652  0.7362
    4DOPE   C37  482   4.469   1.187  16.174 -0.2840 -0.0423 -0.2516
    4DOPE   H7X  483   4.481   1.290  16.214  3.6274 -0.6667  0.6488
    4DOPE   H7Y  484   4.555   1.170  16.105 -0.3529 -0.9586 -0.1246
    4DOPE   C38  485   4.341   1.164  16.095 -0.7708 -0.1534 -0.9385
    4DOPE   H8X  486   4.305   1.259  16.051 -0.4879  0.5120  0.2327
    4DOPE   H8Y  487   4.250   1.137  16.154 -0.2540  0.2832  0.0780
    4DOPE   C39  488   4.348   1.068  15.981 -0.4299  0.0568  1.0949
    4DOPE   H9X  489   4.289   0.975  15.982  0.5334 -0.6889 -2.0000
    4DOPE  C310  490   4.414   1.083  15.862 -0.6892 -0.2944  0.2701
    4DOPE  H10X  491   4.428   0.997  15.794  0.0014  1.3325 -1.7474
    4DOPE  C311  492   4.501   1.199  15.820 -0.1865  0.2031 -0.8271
    4DOPE  H11X  493   4.528   1.265  15.905 -1.1513  2.0916 -1.9336
    4DOPE  H11Y  494   4.594   1.169  15.767  0.6763 -0.0241  0.7373
    4DOPE  C312  495   4.427   1.276  15.707  0.4035  0.2275  0.2451
    4DOPE  H12X  496   4.467   1.380  15.710 -0.2852  0.4813  0.7975
    4DOPE  H12Y  497   4.317   1.286  15.713  0.2498  3.2114 -3.5308
    4DOPE  C313  498   4.446   1.208  15.564  0.8080 -0.0662 -0.3679
    4DOPE  H13X  499   4.557   1.200  15.558  0.9697 -0.5338  2.0864
    4DOPE  H13Y  500   4.402   1.107  15.573  1.0958 -0.1596  0.0466
    4DOPE  C314  501   4.370   1.282  15.453  0.0556  0.8483 -0.1946
    4DOPE  H14X  502   4.419   1.381  15.448  1.4903  0.1445 -0.5554
    4DOPE  H14Y  503   4.262   1.296  15.476  0.2879 -0.1773  1.7779
    4DOPE  C315  504   4.375   1.211  15.318  0.0508 -0.6251 -0.4494
    4DOPE  H15X  505   4.378   1.102  15.337  0.3283 -0.5772 -0.2233
    4DOPE  H15Y  506   4.479   1.230  15.287  0.0652  0.3627  0.1641
    4DOPE  C316  507   4.276   1.265  15.216 -0.1957  0.1372 -1.0308
    4DOPE  H16X  508   4.277   1.376  15.204  1.8814  0.2841  0.0222
    4DOPE  H16Y  509   4.175   1.233  15.250 -0.8367 -0.6598 -3.4700
    4DOPE  C317  510   4.308   1.193  15.082  0.3521 -0.2137  0.0689
    4DOPE  H17X  511   4.241   1.229  15.001 -1.3090 -1.4510  0.8211
    4DOPE  H17Y  512   4.411   1.216  15.049  0.0203  1.1133 -0.1164
    4DOPE  C318  513   4.287   1.039  15.090 -0.6706 -0.1052  0.0151
    4DOPE  H18X  514   4.310   0.992  14.991 -0.3522 -0.2472  0.1531
    4DOPE  H18Y  515   4.380   1.009  15.142  0.5608  1.2215 -1.2924
    4DOPE  H18Z  516   4.197   0.998  15.139 -1.5307 -0.1861 -1.5570
    5DOPE     N  517   1.318   4.001  16.672  0.0477 -0.1387 -0.4371
    5DOPE   HN1  518   1.288   4.078  16.608 -0.8864 -1.1041 -1.2012
    5DOPE   HN2  519   1.290   4.027  16.768  1.6902 -1.7110  0.5262
    5DOPE   HN3  520   1.421   4.001  16.683 -0.0327  0.0749  0.4005
    5DOPE   C12  521   1.268   3.877  16.610 -0.1649  0.0458 -0.3104
    5DOPE  H12A  522   1.159   3.895  16.622  0.0468  2.2671 -1.2019
    5DOPE  H12B  523   1.295   3.780  16.657 -1.6262 -0.7976 -1.1174
    5DOPE   C11  524   1.310   3.842  16.470 -0.1830 -0.4967  1.4598
    5DOPE  H11A  525   1.255   3.902  16.395 -1.1775 -2.3086  0.6591
    5DOPE  H11B  526   1.276   3.736  16.460 -1.1186  0.0183 -1.6194
    5DOPE     P  527   1.553   3.752  16.414 -0.0587 -0.1065  0.0826
    5DOPE   O13  528   1.529   3.628  16.489  0.0501  0.0071  0.7813
    5DOPE   O14  529   1.686   3.806  16.422  0.2652  0.1911  0.3256
    5DOPE   O11  530   1.524   3.726  16.269 -0.3969  0.1436  0.1521
    5DOPE   O12  531   1.453   3.860  16.461  0.0979  0.4467  0.1306
    5DOPE    C1  532   1.462   3.808  16.173  0.0116  0.4642 -0.3049
    5DOPE    HA  533   1.439   3.910  16.211  0.5885  0.5932 -0.2964
    5DOPE    HB  534   1.360   3.771  16.149  0.4849 -0.9104 -0.2530
    5DOPE    C2  535   1.552   3.821  16.043 -0.4241 -0.3642 -1.0795
    5DOPE    HS  536   1.498   3.877  15.964  1.9878  1.3783 -1.6229
    5DOPE   O21  537   1.590   3.690  16.000  0.1142  0.0521 -0.0584
    5DOPE   C21  538   1.487   3.619  15.946  0.4777 -0.6152  0.5387
    5DOPE   O22  539   1.376   3.667  15.917  0.2103  0.1636  0.0986
    5DOPE   C22  540   1.520   3.471  15.940  0.6363 -0.2032 -0.3008
    5DOPE   H2R  541   1.618   3.455  15.990  0.8926  0.2816 -0.6328
    5DOPE   H2S  542   1.520   3.463  15.829 -2.3120  0.0388 -0.4017
    5DOPE    C3  543   1.686   3.891  16.074  0.2235 -0.6008 -0.1815
    5DOPE    HX  544   1.731   3.858  16.170 -0.0565 -0.2596  0.0729
    5DOPE    HY  545   1.660   3.997  16.098 -0.3708 -1.1739  1.9756
    5DOPE   O31  546   1.782   3.872  15.965 -0.3204 -0.1530  0.8308
    5DOPE   C31  547   1.759   3.962  15.867 -0.2808  0.8138 -0.0429
    5DOPE   O32  548   1.686   4.059  15.874  1.0898  0.1936 -0.1447
    5DOPE   C32  549   1.851   3.922  15.747  0.1028 -0.3992 -0.1050
    5DOPE   H2X  550   1.953   3.924  15.791 -1.4224 -0.8937  3.7957
    5DOPE   H2Y  551   1.831   3.815  15.728 -0.5439 -0.2275 -0.3974
    5DOPE   C23  552   1.402   3.380  15.983  0.3470  0.1641 -0.4496
    5DOPE   H3R  553   1.316   3.398  15.915  0.6715 -1.0050 -1.1938
    5DOPE   H3S  554   1.365   3.402  16.086  0.5951  1.3327 -0.5976
    5DOPE   C24  555   1.437   3.233  15.980 -0.4775 -0.5849 -0.3436
    5DOPE   H4R  556   1.371   3.171  16.044  1.3388 -2.5390 -0.2690
    5DOPE   H4S  557   1.535   3.229  16.030 -0.2041  1.3453 -0.6598
    5DOPE   C25  558   1.440   3.161  15.840 -0.2863 -0.5195  0.1924
    5DOPE   H5R  559   1.498   3.070  15.866 -0.3896 -0.7751 -0.4657
    5DOPE   H5S  560   1.503   3.230  15.779 -0.8350  0.9448  1.2251
    5DOPE   C26  561   1.308   3.127  15.776  0.2314  0.1135  0.5906
    5DOPE   H6R  562   1.263   3.228  15.764  2.1345  1.4731  3.6384
    5DOPE   H6S  563   1.239   3.081  15.849  1.4017 -1.4169  0.7792
    5DOPE   C27  564   1.313   3.044  15.642 -0.5998 -0.2340 -0.3502
    5DOPE   H7R  565   1.228   2.973  15.646 -1.3884  0.7399  1.2844
    5DOPE   H7S  566   1.404   2.981  15.640 -0.2056  0.3380 -0.7233
    5DOPE   C28  567   1.310   3.135  15.522  0.0088 -0.2456  0.4857
    5DOPE   H8R  568   1.351   3.085  15.432 -1.8024 -1.5395  0.2978
    5DOPE   H8S  569   1.378   3.222  15.526  1.0793 -1.0490  0.1654
    5DOPE   C29  570   1.170   3.192  15.502  0.0383  0.1139  0.0493
    5DOPE   H9R  571   1.137   3.250  15.589  1.7980  1.7612 -0.3106
    5DOPE  C210  572   1.096   3.202  15.383  0.3333 -0.1504  0.1050
    5DOPE  H10R  573   0.996   3.247  15.379 -0.0017 -0.9406 -0.5349
    5DOPE  C211  574   1.143   3.145  15.256  0.2937  0.1977  0.5535
    5DOPE  H11R  575   1.080   3.059  15.226  0.7028  0.4478 -1.1290
    5DOPE  H11S  576   1.246   3.104  15.263  0.5191  0.4931 -0.8106
    5DOPE  C212  577   1.140   3.257  15.147  0.4567 -0.9614 -0.1240
    5DOPE  H12R  578   1.228   3.322  15.166 -0.0914  0.5793 -2.4029
    5DOPE  H12S  579   1.047   3.317  15.146  1.3129  0.4046 -0.6082
    5DOPE  C213  580   1.158   3.196  15.004 -0.4953 -0.2337 -1.0287
    5DOPE  H13R  581   1.065   3.138  14.983  0.7735 -1.9612 -2.1358
    5DOPE  H13S  582   1.241   3.123  15.004 -1.4725 -1.4024  0.6623
    5DOPE  C214  583   1.158   3.293  14.887 -0.1800 -0.2142  0.0088
    5DOPE  H14R  584   1.255   3.347  14.876  0.2159 -1.2806 -2.3072
    5DOPE  H14S  585   1.086   3.374  14.912  1.5360  0.7608  2.2257
    5DOPE  C215  586   1.133   3.235  14.747 -0.2314 -0.0816 -0.1180
    5DOPE  H15R  587   1.025   3.207  14.740 -0.2282  0.0144 -0.5829
    5DOPE  H15S  588   1.199   3.149  14.726  0.0496  0.2014 -0.4044
    5DOPE  C216  589   1.154   3.337  14.631 -0.2434  0.2003  0.2387
    5DOPE  H16R  590   1.129   3.441  14.660  2.0012  0.5573  1.1084
    5DOPE  H16S  591   1.088   3.295  14.552  0.1723 -2.8580  1.3852
    5DOPE  C217  592   1.300   3.341  14.575  0.0117  0.4025 -0.0161
    5DOPE  H17R  593   1.342   3.240  14.552  0.8941  0.4950  1.0763
    5DOPE  H17S  594   1.371   3.405  14.632  1.0198 -1.3251  0.7861
    5DOPE  C218  595   1.301   3.412  14.437 -0.0800  0.1329 -0.1522
    5DOPE  H18R  596   1.405   3.436  14.407 -0.1642 -0.4108 -0.9078
    5DOPE  H18S  597   1.247   3.507  14.455  0.0275 -0.0663  1.3134
    5DOPE  H18T  598   1.238   3.365  14.358  0.8553 -1.8542  0.2060
    5DOPE   C33  599   1.838   4.007  15.626 -0.5759 -0.0407 -0.4637
    5DOPE   H3X  600   1.825   4.114  15.653  0.1531 -0.2146  0.6300
    5DOPE   H3Y  601   1.751   3.977  15.564 -0.5709  1.9041 -1.4753
    5DOPE   C34  602   1.962   3.978  15.537  0.0097 -0.0506 -0.9636
    5DOPE   H4X  603   2.055   4.011  15.587 -0.9788  0.8601  0.3459
    5DOPE   H4Y  604   1.966   3.871  15.509 -0.8549 -0.9577  2.0565
    5DOPE   C35  605   1.955   4.056  15.397  0.7930 -0.7273 -0.0362
    5DOPE   H5X  606   1.942   4.165  15.410  0.4690 -0.8813  1.0731
    5DOPE   H5Y  607   1.860   4.026  15.346  1.1151  2.9129 -3.2057
    5DOPE   C36  608   2.079   4.029  15.315  0.5603  0.1577  0.0387
    5DOPE   H6X  609   2.115   3.924  15.315  2.2077  0.6219  2.7840
    5DOPE   H6Y  610   2.163   4.091  15.354 -0.0669 -0.4098  2.4527
    5DOPE   C37  611   2.067   4.072  15.165  0.5410  0.0689  0.2320
    5DOPE   H7X  612   1.964   4.047  15.132  1.0868 -0.5301 -1.0790
    5DOPE   H7Y  613   2.085   4.181  15.154  2.0002 -0.1416  0.3200
    5DOPE   C38  614   2.180   3.992  15.087  0.5887 -0.6604  0.0365
    5DOPE   H8X  615   2.171   3.882  15.095  0.2674 -0.6708 -0.4759
    5DOPE   H8Y  616   2.276   4.020  15.135  0.7940  1.3845 -1.4154
    5DOPE   C39  617   2.190   4.044  14.939 -0.1455  0.0964 -0.4056
    5DOPE   H9X  618   2.220   4.150  14.931  1.4521 -0.4178 -1.7597
    5DOPE  C310  619   2.157   3.988  14.824 -0.4784  0.3848  0.0525
    5DOPE  H10X  620   2.174   4.037  14.727 -1.2492  0.4551 -0.0493
    5DOPE  C311  621   2.129   3.844  14.806 -0.1547 -0.3724  0.0708
    5DOPE  H11X  622   2.161   3.783  14.893  2.2033 -0.9312 -1.1062
    5DOPE  H11Y  623   2.020   3.824  14.794 -0.7947  1.1134  2.5803
    5DOPE  C312  624   2.212   3.766  14.701 -0.2855 -0.4016  0.0161
    5DOPE  H12X  625   2.177   3.661  14.712  0.9326 -0.7709  0.6613
    5DOPE  H12Y  626   2.320   3.771  14.726  0.2126  0.2859 -2.0860
    5DOPE  C313  627   2.191   3.807  14.557 -0.9812 -0.6033 -0.3996
    5DOPE  H13X  628   2.081   3.820  14.544 -0.9874  0.3866  0.4947
    5DOPE  H13Y  629   2.267   3.884  14.530 -1.4862 -0.8953 -2.9236
    5DOPE  C314  630   2.234   3.696  14.455 -0.2479 -0.1152  0.0883
    5DOPE  H14X  631   2.196   3.600  14.496 -1.3346 -0.4503 -1.6020
    5DOPE  H14Y  632   2.345   3.687  14.464 -0.3376  0.4924  2.1270
    5DOPE  C315  633   2.172   3.717  14.315  0.3397  0.1852 -0.0689
    5DOPE  H15X  634   2.198   3.816  14.274  2.7245  0.4910  1.9177
    5DOPE  H15Y  635   2.062   3.711  14.334  0.6997 -0.3183  2.2352
    5DOPE  C316  636   2.216   3.615  14.217 -0.9709  0.4035  0.3540
    5DOPE  H16X  637   2.326   3.621  14.204 -0.8393  1.8588  1.9554
    5DOPE  H16Y  638   2.168   3.639  14.119  0.2020  2.1833  0.1659
    5DOPE  C317  639   2.167   3.476  14.256 -0.0837 -0.1355 -0.3922
    5DOPE  H17X  640   2.215   3.457  14.355  0.6494 -1.9702 -1.0475
    5DOPE  H17Y  641   2.057   3.480  14.272 -0.2814  0.0970 -1.6827
    5DOPE  C318  642   2.199   3.363  14.160  0.7059  0.2302 -0.3567
    5DOPE  H18X  643   2.163   3.262  14.190  2.9098 -0.2092  1.0572
    5DOPE  H18Y  644   2.163   3.389  14.058 -0.4129  3.3715  0.7078
    5DOPE  H18Z  645   2.309   3.349  14.156  0.6334 -1.4608  1.5845
    6DOPE     N  646   0.488   3.930  16.393 -0.3720 -0.0555  0.0820
    6DOPE   HN1  647   0.464   4.029  16.372 -2.5604 -0.7212 -0.8329
    6DOPE   HN2  648   0.499   3.903  16.293 -0.5078  2.2771 -0.6257
    6DOPE   HN3  649   0.404   3.882  16.431  0.4335 -0.7174  1.0853
    6DOPE   C12  650   0.599   3.923  16.489  0.6293  0.3395 -0.4929
    6DOPE  H12A  651   0.631   3.816  16.494 -1.3051 -0.2391  0.5549
    6DOPE  H12B  652   0.563   3.957  16.589  0.9632  0.4456 -0.4084
    6DOPE   C11  653   0.706   4.020  16.460  0.5018 -0.1100  0.4415
    6DOPE  H11A  654   0.790   3.987  16.525  2.2500 -0.9958 -2.1232
    6DOPE  H11B  655   0.674   4.120  16.496  2.2168 -0.5428  3.5651
    6DOPE     P  656   0.830   3.901  16.266 -0.1795  0.5304 -0.2633
    6DOPE   O13  657   0.803   3.873  16.121  0.8439  0.4512 -0.3367
    6DOPE   O14  658   0.823   3.781  16.348  0.0205 -0.4615 -0.3774
    6DOPE   O11  659   0.978   3.963  16.275  0.2940  0.1838 -0.1178
    6DOPE   O12  660   0.743   4.019  16.323  0.1903  0.2236 -0.2931
    6DOPE    C1  661   1.011   4.105  16.289 -0.1521 -0.2562 -0.0511
    6DOPE    HA  662   1.065   4.118  16.385  3.2971 -0.0428 -1.8250
    6DOPE    HB  663   0.915   4.157  16.306  1.3952  2.8091  0.0229
    6DOPE    C2  664   1.083   4.166  16.167  0.6218  0.2710  0.6279
    6DOPE    HS  665   1.057   4.274  16.173  3.1259  0.9709 -0.1000
    6DOPE   O21  666   1.030   4.113  16.045  0.3406 -0.4683  0.1522
    6DOPE   C21  667   0.909   4.147  16.014  0.3551  0.4219 -0.0876
    6DOPE   O22  668   0.839   4.233  16.068 -0.3868  0.1051  0.0409
    6DOPE   C22  669   0.865   4.082  15.887 -0.1623 -0.4528 -0.2228
    6DOPE   H2R  670   0.760   4.105  15.861 -0.3093 -1.6493 -0.7943
    6DOPE   H2S  671   0.880   3.973  15.905 -0.9300 -0.4999  0.1461
    6DOPE    C3  672   1.236   4.165  16.171 -0.0984  0.7462 -0.1154
    6DOPE    HX  673   1.270   4.059  16.179 -3.6318 -0.4286  1.4097
    6DOPE    HY  674   1.271   4.219  16.261  1.0707  2.1219 -1.3328
    6DOPE   O31  675   1.303   4.233  16.058  0.7200 -0.3058 -0.0482
    6DOPE   C31  676   1.330   4.163  15.942 -0.1428 -0.3089 -1.0152
    6DOPE   O32  677   1.307   4.047  15.931 -0.5752 -0.1585  0.4495
    6DOPE   C32  678   1.391   4.258  15.838 -0.0339  0.5723 -0.6550
    6DOPE   H2X  679   1.362   4.362  15.861  0.8029  0.8379 -0.7630
    6DOPE   H2Y  680   1.500   4.257  15.859  0.1159  0.7485 -1.3726
    6DOPE   C23  681   0.948   4.140  15.766  0.4334  0.0924  0.4732
    6DOPE   H3R  682   1.057   4.118  15.769  0.0889 -1.7630  0.2552
    6DOPE   H3S  683   0.945   4.251  15.768 -0.3015  0.1150 -0.7030
    6DOPE   C24  684   0.893   4.091  15.628 -0.2130  0.1172 -0.3730
    6DOPE   H4R  685   0.786   4.119  15.620  0.0821  1.1182 -1.0564
    6DOPE   H4S  686   0.899   3.980  15.634  0.2903  0.2043  1.1309
    6DOPE   C25  687   0.955   4.152  15.505 -0.4706  0.5076  0.1836
    6DOPE   H5R  688   1.059   4.187  15.520 -0.1831 -0.0403 -0.4577
    6DOPE   H5S  689   0.900   4.248  15.488  0.2053  1.0408  0.9321
    6DOPE   C26  690   0.968   4.059  15.383  0.1668 -0.3628  0.2498
    6DOPE   H6R  691   0.864   4.053  15.344  0.1632  1.0804 -0.0360
    6DOPE   H6S  692   0.995   3.958  15.419  1.6825 -0.4744 -1.0996
    6DOPE   C27  693   1.059   4.117  15.277 -0.6844 -0.8127 -0.0587
    6DOPE   H7R  694   1.161   4.094  15.313  0.7696  1.7149 -2.2604
    6DOPE   H7S  695   1.051   4.227  15.268  1.8703 -0.6877 -1.3790
    6DOPE   C28  696   1.053   4.065  15.129 -0.6876 -0.8862  0.2279
    6DOPE   H8R  697   1.042   3.956  15.146 -1.9724 -0.4742  2.4618
    6DOPE   H8S  698   1.152   4.094  15.089 -0.7043  2.0073  1.9644
    6DOPE   C29  699   0.932   4.123  15.066  0.6204 -0.4181  0.2719
    6DOPE   H9R  700   0.833   4.094  15.105  0.4579  0.8872  0.9185
    6DOPE  C210  701   0.946   4.214  14.963 -0.2468  1.3731 -0.4520
    6DOPE  H10R  702   0.854   4.263  14.926 -1.4365 -0.3035  0.1606
    6DOPE  C211  703   1.073   4.273  14.912 -0.8083 -0.2397  0.3753
    6DOPE  H11R  704   1.140   4.289  14.999 -1.7846 -1.5667  1.4124
    6DOPE  H11S  705   1.063   4.379  14.880 -0.8143 -0.4069 -0.1736
    6DOPE  C212  706   1.146   4.204  14.793  0.3374  0.3943  1.0385
    6DOPE  H12R  707   1.154   4.096  14.819  0.7117  0.5790  1.7307
    6DOPE  H12S  708   1.250   4.238  14.771  0.8307 -1.3685  0.5208
    6DOPE  C213  709   1.068   4.206  14.659 -0.0547 -0.5854 -0.1600
    6DOPE  H13R  710   0.984   4.277  14.673 -0.7535 -1.4729  0.2110
    6DOPE  H13S  711   1.020   4.109  14.637 -1.1733 -0.0230 -0.2788
    6DOPE  C214  712   1.156   4.260  14.546 -0.1874 -0.0483  0.1594
    6DOPE  H14R  713   1.232   4.184  14.517  0.1079  0.1025  0.5432
    6DOPE  H14S  714   1.215   4.351  14.570 -0.8145  0.2001  0.7886
    6DOPE  C215  715   1.066   4.293  14.417 -0.3421 -0.5186 -0.2172
    6DOPE  H15R  716   0.993   4.374  14.437 -1.1767 -1.5081  0.8558
    6DOPE  H15S  717   1.009   4.203  14.390 -1.0369  0.1726 -1.1052
    6DOPE  C216  718   1.157   4.330  14.304  0.3423 -0.4097 -0.1776
    6DOPE  H16R  719   1.227   4.247  14.281  0.3520 -0.4066 -0.1595
    6DOPE  H16S  720   1.217   4.423  14.318  0.0309 -0.1058 -0.7849
    6DOPE  C217  721   1.082   4.370  14.168 -0.5383  0.1171 -0.1665
    6DOPE  H17R  722   1.067   4.480  14.171  2.4959  0.5800  1.7948
    6DOPE  H17S  723   0.988   4.310  14.162 -0.5434  0.2334 -1.5613
    6DOPE  C218  724   1.163   4.349  14.036  0.9538 -0.1591 -0.0614
    6DOPE  H18R  725   1.142   4.245  14.001  0.1017 -0.1098  0.2853
    6DOPE  H18S  726   1.273   4.347  14.052  1.0066  0.9444 -0.2519
    6DOPE  H18T  727   1.133   4.421  13.957  1.1602 -1.1690 -1.0961
    6DOPE   C33  728   1.350   4.222  15.693 -0.8847  0.0721 -0.5166
    6DOPE   H3X  729   1.240   4.212  15.686 -0.8282 -1.2800  0.2086
    6DOPE   H3Y  730   1.408   4.137  15.651 -1.4842  0.3551 -1.9836
    6DOPE   C34  731   1.399   4.335  15.592 -0.0168 -0.6657 -0.1642
    6DOPE   H4X  732   1.342   4.426  15.619  2.1700  0.6305  0.3024
    6DOPE   H4Y  733   1.503   4.360  15.620 -0.0167 -0.8141 -0.0297
    6DOPE   C35  734   1.388   4.288  15.449 -0.0535  0.1020 -0.0916
    6DOPE   H5X  735   1.282   4.283  15.418  0.3320  0.6266 -1.5772
    6DOPE   H5Y  736   1.426   4.184  15.434 -0.2355  0.2046 -1.3855
    6DOPE   C36  737   1.467   4.381  15.349  0.2433  0.1496 -0.5380
    6DOPE   H6X  738   1.578   4.387  15.358  0.3458  3.3129 -2.3925
    6DOPE   H6Y  739   1.440   4.483  15.385 -0.2367 -0.9493  2.4025
    6DOPE   C37  740   1.427   4.349  15.208  0.2490  0.9270 -0.2937
    6DOPE   H7X  741   1.451   4.244  15.180 -1.2777  0.5442 -0.2563
    6DOPE   H7Y  742   1.317   4.352  15.192  0.5455  0.0917 -3.0765
    6DOPE   C38  743   1.484   4.452  15.110 -0.2520  0.0322 -0.2237
    6DOPE   H8X  744   1.593   4.434  15.108 -0.1393  0.1442  1.9394
    6DOPE   H8Y  745   1.458   4.550  15.155  1.1603 -0.3406  1.5369
    6DOPE   C39  746   1.419   4.443  14.972 -0.6783 -0.7766  0.4132
    6DOPE   H9X  747   1.313   4.413  14.961 -1.4801  1.5270  1.2505
    6DOPE  C310  748   1.493   4.485  14.869  0.8314 -0.5797 -0.4695
    6DOPE  H10X  749   1.437   4.484  14.774 -1.1720  1.6440  0.5992
    6DOPE  C311  750   1.628   4.557  14.865  0.0634  1.4751 -0.8223
    6DOPE  H11X  751   1.654   4.598  14.965 -1.7588 -1.2669  0.9111
    6DOPE  H11Y  752   1.713   4.486  14.853 -0.5804  0.5084  0.1027
    6DOPE  C312  753   1.634   4.664  14.763 -0.3237  0.3565  0.0378
    6DOPE  H12X  754   1.728   4.721  14.779 -0.1066 -0.3850  1.4710
    6DOPE  H12Y  755   1.546   4.732  14.772  0.6466  1.4446  1.6720
    6DOPE  C313  756   1.646   4.610  14.617 -0.4918  0.2017  0.4918
    6DOPE  H13X  757   1.712   4.523  14.597  0.5509  1.4739 -2.1064
    6DOPE  H13Y  758   1.543   4.580  14.587 -0.8380 -0.7984  2.5086
    6DOPE  C314  759   1.701   4.708  14.513  0.6003 -0.5234  0.1892
    6DOPE  H14X  760   1.710   4.665  14.411  0.2752  0.7372 -0.3867
    6DOPE  H14Y  761   1.807   4.732  14.533  0.4541 -0.4551  0.9112
    6DOPE  C315  762   1.623   4.840  14.517 -0.0245 -0.2245  0.2936
    6DOPE  H15X  763   1.603   4.879  14.619  0.7051  2.7047 -0.5838
    6DOPE  H15Y  764   1.518   4.825  14.485 -1.0714  0.9104  2.9246
    6DOPE  C316  765   1.690   4.960  14.441  0.2265  0.4950 -0.2953
    6DOPE  H16X  766   1.607   5.033  14.438  1.2734  2.0118  2.7216
    6DOPE  H16Y  767   1.715   4.922  14.339  0.1053 -1.1357  0.2529
    6DOPE  C317  768   1.809   5.021  14.524  0.3958 -0.1532 -0.4340
    6DOPE  H17X  769   1.760   5.059  14.616  0.2452 -1.3502  0.0049
    6DOPE  H17Y  770   1.876   4.944  14.569  0.1100  0.4444  1.0677
    6DOPE  C318  771   1.886   5.135  14.450 -0.2278 -0.3193 -0.1611
    6DOPE  H18X  772   1.951   5.078  14.379  0.9315 -0.9637  1.3643
    6DOPE  H18Y  773   1.824   5.207  14.393  0.8040  1.6184  1.0549
    6DOPE  H18Z  774   1.952   5.194  14.516 -0.5452  3.0224 -2.6027
    7DOPE     N  775   3.522   4.330  16.617  0.8855  0.8346 -0.3732
    7DOPE   HN1  776   3.544   4.348  16.517  1.4264 -2.7241 -1.0128
    7DOPE   HN2  777   3.451   4.255  16.628  0.4485  0.9467 -2.1445
    7DOPE   HN3  778   3.488   4.418  16.662  2.8390  1.3319  0.2006
    7DOPE   C12  779   3.649   4.307  16.688  0.4913  0.0621 -0.3926
    7DOPE  H12A  780   3.683   4.412  16.703  1.2675 -0.0552 -1.2205
    7DOPE  H12B  781   3.723   4.249  16.629  1.8827  1.6172 -0.2431
    7DOPE   C11  782   3.625   4.251  16.827  0.2954 -0.1751  0.6960
    7DOPE  H11A  783   3.537   4.304  16.869 -0.5140 -1.0597  0.1456
    7DOPE  H11B  784   3.708   4.272  16.898  1.4228 -1.6983 -0.1111
    7DOPE     P  785   3.530   4.037  16.939 -0.0076  0.0342 -0.3186
    7DOPE   O13  786   3.404   4.110  16.966 -0.1198  0.1569 -0.0995
    7DOPE   O14  787   3.626   4.023  17.054  0.3895 -0.2825  0.2958
    7DOPE   O11  788   3.496   3.880  16.909 -0.6078 -0.1736 -0.0276
    7DOPE   O12  789   3.603   4.109  16.816  0.5550 -0.2498 -0.2277
    7DOPE    C1  790   3.584   3.805  16.819 -0.0638 -0.3240 -0.7508
    7DOPE    HA  791   3.565   3.696  16.834 -3.1261  0.5827  3.6563
    7DOPE    HB  792   3.690   3.829  16.843 -0.0911 -0.3861 -0.5674
    7DOPE    C2  793   3.573   3.818  16.666  0.3356 -0.4074 -0.0162
    7DOPE    HS  794   3.611   3.920  16.644  2.3435 -1.0736  0.1878
    7DOPE   O21  795   3.433   3.818  16.634  0.4559 -0.2513 -0.1495
    7DOPE   C21  796   3.394   3.890  16.529  0.3835 -0.2410  0.2996
    7DOPE   O22  797   3.465   3.968  16.469 -0.0218 -0.3494  0.5747
    7DOPE   C22  798   3.245   3.869  16.518 -0.0523  0.0129  0.6115
    7DOPE   H2R  799   3.192   3.885  16.615  2.1583  1.0758  1.7263
    7DOPE   H2S  800   3.222   3.768  16.480 -2.6560  1.2168 -1.3791
    7DOPE    C3  801   3.641   3.706  16.582 -0.3663  0.4613 -0.0789
    7DOPE    HX  802   3.595   3.605  16.578  0.7351 -0.0116 -1.6428
    7DOPE    HY  803   3.742   3.684  16.621 -0.5028  0.7802  0.4723
    7DOPE   O31  804   3.646   3.754  16.446 -0.7985  0.0334 -0.4243
    7DOPE   C31  805   3.755   3.818  16.405 -0.5519  0.4270  0.1663
    7DOPE   O32  806   3.840   3.867  16.479  0.0338  0.0285 -0.1376
    7DOPE   C32  807   3.757   3.808  16.254  0.2678  0.1813  0.5670
    7DOPE   H2X  808   3.756   3.700  16.228  2.4359  0.4127 -0.6907
    7DOPE   H2Y  809   3.668   3.863  16.216 -0.3817 -0.7421  0.7330
    7DOPE   C23  810   3.180   3.969  16.421 -0.3829 -0.8781 -0.0990
    7DOPE   H3R  811   3.229   4.069  16.423 -0.1990 -0.7397  6.0272
    7DOPE   H3S  812   3.073   3.993  16.439 -0.7437 -1.4639 -1.3309
    7DOPE   C24  813   3.193   3.912  16.276  0.5100 -0.1188  0.9871
    7DOPE   H4R  814   3.170   3.803  16.283 -0.3436  0.0671  1.1728
    7DOPE   H4S  815   3.298   3.922  16.242  0.5801  1.0447  1.5213
    7DOPE   C25  816   3.095   3.970  16.173  0.7442 -0.7547  0.0419
    7DOPE   H5R  817   3.100   4.081  16.183 -0.4785 -0.3554 -2.8628
    7DOPE   H5S  818   2.987   3.950  16.194 -0.2834  2.4621 -1.4267
    7DOPE   C26  819   3.132   3.937  16.036  0.0994  0.1248 -0.6227
    7DOPE   H6R  820   3.146   3.827  16.035 -3.1608 -0.3894 -0.3343
    7DOPE   H6S  821   3.234   3.981  16.030  0.5964 -0.7971  0.6062
    7DOPE   C27  822   3.043   3.979  15.921  1.0379 -0.5881  0.3578
    7DOPE   H7R  823   3.049   4.090  15.909 -1.3718 -0.5462 -0.8993
    7DOPE   H7S  824   2.943   3.959  15.964 -0.1689  3.8048  0.1052
    7DOPE   C28  825   3.048   3.900  15.790 -0.2222  0.1340 -0.2487
    7DOPE   H8R  826   2.963   3.913  15.720  0.9067  1.1925 -1.4951
    7DOPE   H8S  827   3.038   3.794  15.821 -0.3306  0.5585  1.2447
    7DOPE   C29  828   3.175   3.912  15.711 -0.7806 -0.0683 -0.1709
    7DOPE   H9R  829   3.267   3.932  15.767 -1.7622 -0.6869  1.7452
    7DOPE  C210  830   3.189   3.885  15.575 -0.0533  0.5775  0.1490
    7DOPE  H10R  831   3.288   3.897  15.530 -0.0314  0.1190  0.0722
    7DOPE  C211  832   3.080   3.854  15.483 -0.1252 -0.7965 -0.0181
    7DOPE  H11R  833   2.978   3.848  15.526  0.2155  1.4228  1.2809
    7DOPE  H11S  834   3.087   3.754  15.435 -2.6324  0.2378 -2.8607
    7DOPE  C212  835   3.089   3.963  15.372 -0.2854 -0.3861 -0.0165
    7DOPE  H12R  836   3.100   4.066  15.412 -0.5205  0.1087 -1.1899
    7DOPE  H12S  837   2.994   3.962  15.315  0.9800 -0.6176 -2.2405
    7DOPE  C213  838   3.199   3.944  15.265 -0.8344  0.3491  0.6716
    7DOPE  H13R  839   3.186   3.840  15.227  2.1633 -0.3477  1.3593
    7DOPE  H13S  840   3.301   3.953  15.307  0.0989  1.4420 -1.6517
    7DOPE  C214  841   3.181   4.054  15.154 -0.0509  0.5018 -0.6087
    7DOPE  H14R  842   3.186   4.156  15.198  3.0714 -0.3403  1.3089
    7DOPE  H14S  843   3.086   4.042  15.099  1.2750 -1.6953 -2.6172
    7DOPE  C215  844   3.299   4.046  15.051  0.5589 -0.1889 -0.4376
    7DOPE  H15R  845   3.331   3.942  15.026  0.8303 -0.5150  1.2016
    7DOPE  H15S  846   3.389   4.087  15.101  1.2532 -1.6320 -0.4364
    7DOPE  C216  847   3.268   4.131  14.935  0.0451 -0.1587 -0.5097
    7DOPE  H16R  848   3.246   4.235  14.967  0.0034 -0.5402  0.7193
    7DOPE  H16S  849   3.175   4.086  14.894 -0.6208  1.1435 -0.5104
    7DOPE  C217  850   3.380   4.151  14.825  0.4809 -0.2216 -0.5245
    7DOPE  H17R  851   3.455   4.222  14.865  0.8084  1.6341 -4.0757
    7DOPE  H17S  852   3.322   4.203  14.746  0.4351  1.3336  0.4841
    7DOPE  C218  853   3.444   4.018  14.766  0.3740 -0.1895 -0.7893
    7DOPE  H18R  854   3.509   3.959  14.834  0.2318 -0.4279 -0.8610
    7DOPE  H18S  855   3.507   4.046  14.678  1.6874 -0.5691 -0.0034
    7DOPE  H18T  856   3.359   3.959  14.727 -1.5958  1.4189  0.8112
    7DOPE   C33  857   3.878   3.878  16.191  0.2916  0.2235 -0.4166
    7DOPE   H3X  858   3.975   3.839  16.231  1.0921 -0.4933 -2.8925
    7DOPE   H3Y  859   3.880   3.982  16.229  2.2457 -0.7457  2.4724
    7DOPE   C34  860   3.875   3.884  16.037 -0.0772  0.0530  0.1768
    7DOPE   H4X  861   3.774   3.900  15.993 -0.6109 -1.8195  0.6181
    7DOPE   H4Y  862   3.943   3.967  16.010 -0.3042  0.0613 -0.3864
    7DOPE   C35  863   3.922   3.754  15.975 -0.0787 -0.1956 -0.2026
    7DOPE   H5X  864   3.847   3.677  16.003 -1.7857  1.0488 -1.1573
    7DOPE   H5Y  865   4.023   3.720  16.006  0.6718 -0.1901 -2.4689
    7DOPE   C36  866   3.911   3.775  15.818 -0.6332  1.3117  0.0628
    7DOPE   H6X  867   3.964   3.868  15.786  1.3378  0.7250  1.4243
    7DOPE   H6Y  868   3.805   3.769  15.788 -0.3660 -1.6698 -0.5878
    7DOPE   C37  869   3.973   3.646  15.765 -0.2635  0.5202  0.2714
    7DOPE   H7X  870   4.078   3.618  15.787 -0.0370  1.0999 -0.0349
    7DOPE   H7Y  871   3.896   3.570  15.790 -0.6625 -0.1698 -2.6657
    7DOPE   C38  872   3.968   3.638  15.605 -0.3498  0.6930  0.0033
    7DOPE   H8X  873   3.871   3.647  15.553  0.5691  0.4174 -1.8317
    7DOPE   H8Y  874   3.995   3.533  15.580 -2.9245 -0.7196  2.4873
    7DOPE   C39  875   4.048   3.754  15.540  0.2912  0.0199  0.0823
    7DOPE   H9X  876   4.156   3.737  15.530 -0.1656 -1.8911 -2.6341
    7DOPE  C310  877   3.998   3.875  15.491 -0.5408 -0.2296 -0.1968
    7DOPE  H10X  878   4.072   3.926  15.428  0.1904 -1.5710 -0.4737
    7DOPE  C311  879   3.861   3.926  15.489  0.6266 -0.4681  0.6351
    7DOPE  H11X  880   3.781   3.859  15.528  3.1461 -2.6381  2.4197
    7DOPE  H11Y  881   3.862   4.017  15.554 -0.3345 -1.6171  2.3517
    7DOPE  C312  882   3.800   3.946  15.346  0.3784 -0.4432  0.1528
    7DOPE  H12X  883   3.885   3.994  15.293 -0.2812  0.7109  0.1030
    7DOPE  H12Y  884   3.724   4.027  15.355  0.0319 -0.7634  0.1485
    7DOPE  C313  885   3.737   3.824  15.273  0.2927 -0.2682  0.1818
    7DOPE  H13X  886   3.773   3.827  15.168  0.0640  0.8300  0.1226
    7DOPE  H13Y  887   3.784   3.732  15.313  0.6233 -0.3577 -0.4013
    7DOPE  C314  888   3.586   3.833  15.278  0.4116 -0.0514  0.1795
    7DOPE  H14X  889   3.546   3.932  15.247 -3.1253 -1.4478 -0.2478
    7DOPE  H14Y  890   3.558   3.826  15.386  1.1151  0.3736  0.3982
    7DOPE  C315  891   3.504   3.720  15.214 -0.1109  0.1987  0.1576
    7DOPE  H15X  892   3.398   3.748  15.232  0.3886  2.7598 -0.4832
    7DOPE  H15Y  893   3.518   3.625  15.269 -0.1363  0.6112  0.8944
    7DOPE  C316  894   3.542   3.710  15.064  0.8273 -0.3205  0.3306
    7DOPE  H16X  895   3.641   3.664  15.039 -0.4401 -1.9030 -2.3366
    7DOPE  H16Y  896   3.553   3.819  15.047 -0.1618 -0.3371 -0.4873
    7DOPE  C317  897   3.430   3.638  14.979 -0.0631 -0.1981 -0.3840
    7DOPE  H17X  898   3.394   3.543  15.024  0.4287  0.3787  1.2870
    7DOPE  H17Y  899   3.344   3.705  15.001 -0.1229 -0.4677  0.2370
    7DOPE  C318  900   3.452   3.637  14.826  0.5101 -0.2370  0.1904
    7DOPE  H18X  901   3.546   3.592  14.787 -0.1359 -0.3425 -1.3180
    7DOPE  H18Y  902   3.374   3.582  14.769  0.8261 -1.9499  1.3262
    7DOPE  H18Z  903   3.451   3.742  14.790 -0.4072  0.0082  0.8966
    8DOPE     N  904   3.318   4.894  16.391  0.5158  0.5766 -0.4295
    8DOPE   HN1  905   3.367   4.984  16.407  0.2874  0.4586  1.0568
    8DOPE   HN2  906   3.272   4.893  16.298  1.0258 -0.7069 -0.6960
    8DOPE   HN3  907   3.254   4.879  16.472  0.7188  3.1701  0.2851
    8DOPE   C12  908   3.418   4.782  16.394 -0.3219  0.6509 -0.4402
    8DOPE  H12A  909   3.512   4.824  16.353  0.0567  2.2868  1.9254
    8DOPE  H12B  910   3.374   4.696  16.339  1.1303 -0.2103 -0.3023
    8DOPE   C11  911   3.435   4.729  16.546 -0.3344 -0.5851  0.5651
    8DOPE  H11A  912   3.473   4.813  16.608  0.7037  0.8544 -1.8450
    8DOPE  H11B  913   3.509   4.646  16.546 -1.1803 -1.3653 -0.8051
    8DOPE     P  914   3.281   4.599  16.715  0.3518 -0.0277  0.2546
    8DOPE   O13  915   3.208   4.678  16.817  0.2706  0.0727  0.2858
    8DOPE   O14  916   3.412   4.540  16.752  0.1945  0.0057  0.3387
    8DOPE   O11  917   3.183   4.484  16.668  0.2810  0.1109 -0.5284
    8DOPE   O12  918   3.299   4.697  16.589 -0.7237 -0.6930  0.6840
    8DOPE    C1  919   3.075   4.493  16.581 -0.2200 -0.0785 -0.4393
    8DOPE    HA  920   3.025   4.591  16.595 -1.3331 -0.5855 -0.7173
    8DOPE    HB  921   3.000   4.413  16.597  1.2097 -1.3659  0.0172
    8DOPE    C2  922   3.114   4.477  16.436 -0.1062 -0.0354 -0.3336
    8DOPE    HS  923   3.166   4.571  16.406 -1.1262  0.3080 -1.1150
    8DOPE   O21  924   3.010   4.442  16.349 -0.2418  0.2194  0.2484
    8DOPE   C21  925   3.015   4.494  16.226 -0.3814  0.6533 -0.2133
    8DOPE   O22  926   3.078   4.590  16.187 -0.2009 -0.1494 -0.9037
    8DOPE   C22  927   2.922   4.399  16.141 -0.0490  0.3419 -0.4194
    8DOPE   H2R  928   2.819   4.438  16.157 -1.0202 -2.3641  0.4342
    8DOPE   H2S  929   2.924   4.297  16.183 -2.3322 -0.4127 -1.9567
    8DOPE    C3  930   3.227   4.371  16.426 -0.7166 -0.1919 -0.8376
    8DOPE    HX  931   3.192   4.283  16.483  0.4278  0.6647  1.2819
    8DOPE    HY  932   3.321   4.409  16.471 -0.0185 -0.1652 -2.2496
    8DOPE   O31  933   3.263   4.346  16.290 -0.8675  0.4861 -0.0401
    8DOPE   C31  934   3.384   4.293  16.258 -0.6546 -0.6041  0.3905
    8DOPE   O32  935   3.478   4.282  16.334 -0.2151 -0.0924 -0.1238
    8DOPE   C32  936   3.390   4.259  16.107  1.1203 -0.1225 -0.0795
    8DOPE   H2X  937   3.360   4.152  16.103 -2.3556  0.7369 -0.1658
    8DOPE   H2Y  938   3.319   4.324  16.050  2.3591  2.0679  0.7445
    8DOPE   C23  939   2.979   4.396  15.993  0.1342 -0.2918 -0.0237
    8DOPE   H3R  940   3.078   4.346  15.997 -0.7683 -2.0695  1.0229
    8DOPE   H3S  941   3.007   4.498  15.959  1.5955 -1.3233 -2.1355
    8DOPE   C24  942   2.880   4.324  15.903 -0.0817 -0.1090 -0.5898
    8DOPE   H4R  943   2.787   4.376  15.931  0.9036 -0.0371  2.9568
    8DOPE   H4S  944   2.878   4.214  15.920 -1.5605 -0.5370 -2.9943
    8DOPE   C25  945   2.943   4.327  15.764  1.0388 -0.0347 -0.0177
    8DOPE   H5R  946   3.041   4.276  15.767  1.4932  0.8588  1.1428
    8DOPE   H5S  947   2.969   4.431  15.733 -0.9734 -0.0227 -1.9735
    8DOPE   C26  948   2.858   4.264  15.651  0.2879 -0.3335  0.0312
    8DOPE   H6R  949   2.758   4.312  15.659  0.5369  0.3349 -0.8030
    8DOPE   H6S  950   2.844   4.154  15.656  1.7630 -0.5976 -0.9942
    8DOPE   C27  951   2.913   4.300  15.508  0.4664  0.3968  0.6231
    8DOPE   H7R  952   3.019   4.267  15.496  0.3284  0.6435 -1.8513
    8DOPE   H7S  953   2.927   4.409  15.498  1.1677  0.2014 -0.6932
    8DOPE   C28  954   2.827   4.241  15.395 -0.2026 -0.0214  1.2780
    8DOPE   H8R  955   2.773   4.146  15.420  0.0485 -1.1852 -2.0315
    8DOPE   H8S  956   2.899   4.212  15.316 -0.7494  1.1819  0.3144
    8DOPE   C29  957   2.732   4.353  15.355  0.3611  0.0240  0.3519
    8DOPE   H9R  958   2.673   4.405  15.432 -3.2547 -0.0887 -2.1003
    8DOPE  C210  959   2.727   4.401  15.226 -0.2796  1.1399  0.4027
    8DOPE  H10R  960   2.678   4.498  15.211 -0.6255  1.0625  0.9927
    8DOPE  C211  961   2.787   4.332  15.100  0.6905 -0.7130 -0.0648
    8DOPE  H11R  962   2.724   4.325  15.009  1.9613  1.0832 -1.1728
    8DOPE  H11S  963   2.815   4.228  15.126 -0.1215 -0.4795  1.8901
    8DOPE  C212  964   2.909   4.421  15.067 -0.6391 -1.0076  0.6660
    8DOPE  H12R  965   2.978   4.406  15.153  0.8900 -0.5305 -0.4388
    8DOPE  H12S  966   2.877   4.527  15.050  0.2517 -1.1339 -2.3594
    8DOPE  C213  967   2.989   4.391  14.943 -0.1889 -0.0009  0.0142
    8DOPE  H13R  968   3.035   4.290  14.944 -0.4467 -0.1192  0.9929
    8DOPE  H13S  969   3.074   4.461  14.929 -0.3639  0.3381  0.6186
    8DOPE  C214  970   2.915   4.383  14.808 -0.4731  0.7432 -0.0008
    8DOPE  H14R  971   2.817   4.331  14.815 -0.2203  0.3721  0.9423
    8DOPE  H14S  972   2.983   4.331  14.737 -0.3953 -2.9545  2.5108
    8DOPE  C215  973   2.890   4.523  14.755  0.6853  0.2584  0.3347
    8DOPE  H15R  974   2.987   4.576  14.747  1.6909 -1.5991 -0.2730
    8DOPE  H15S  975   2.824   4.572  14.830  0.1563  1.6658 -1.0011
    8DOPE  C216  976   2.819   4.524  14.619  0.2561  0.6244 -0.4988
    8DOPE  H16R  977   2.750   4.607  14.598  0.0747  0.1753 -1.7609
    8DOPE  H16S  978   2.763   4.428  14.620 -0.7084  1.1534 -1.4494
    8DOPE  C217  979   2.928   4.511  14.500  0.0308 -0.0875  0.4993
    8DOPE  H17R  980   2.994   4.429  14.535  0.8827  0.3969  0.0387
    8DOPE  H17S  981   2.997   4.598  14.506  0.6691 -0.6374  1.3805
    8DOPE  C218  982   2.860   4.473  14.371 -0.0439  0.1561  0.5094
    8DOPE  H18R  983   2.939   4.443  14.299 -1.1730  0.3083 -0.8313
    8DOPE  H18S  984   2.798   4.561  14.343 -0.4305  0.1112  1.2214
    8DOPE  H18T  985   2.787   4.392  14.389  0.1395 -0.3206 -0.7873
    8DOPE   C33  986   3.526   4.277  16.043 -0.1392  0.3276  0.2154
    8DOPE   H3X  987   3.607   4.254  16.115  1.2216 -0.9205 -1.6367
    8DOPE   H3Y  988   3.544   4.386  16.030  2.0587  0.0802  0.6969
    8DOPE   C34  989   3.563   4.204  15.914 -0.1204  0.0273  0.1822
    8DOPE   H4X  990   3.667   4.224  15.881 -0.5479  0.9926 -0.6065
    8DOPE   H4Y  991   3.553   4.093  15.918  0.5166  0.0061  2.1788
    8DOPE   C35  992   3.474   4.254  15.798  0.1011 -0.5848  0.3349
    8DOPE   H5X  993   3.470   4.363  15.779 -3.0889 -0.9198 -1.6913
    8DOPE   H5Y  994   3.375   4.219  15.835  1.0075 -1.6919  1.8407
    8DOPE   C36  995   3.496   4.196  15.663  0.1305 -0.3128 -0.4422
    8DOPE   H6X  996   3.502   4.085  15.667 -0.0866 -0.3252 -0.4088
    8DOPE   H6Y  997   3.603   4.222  15.651  0.0360  1.3240  1.6856
    8DOPE   C37  998   3.400   4.229  15.547  0.5155 -0.1587  0.6056
    8DOPE   H7X  999   3.317   4.156  15.556 -1.0864  1.4684 -0.3861
    8DOPE   H7Y 1000   3.366   4.333  15.560  1.5862  0.1988  0.6508
    8DOPE   C38 1001   3.460   4.220  15.405  0.3801  0.0805 -0.6643
    8DOPE   H8X 1002   3.368   4.234  15.345  0.9854  1.1137 -1.3837
    8DOPE   H8Y 1003   3.498   4.117  15.389 -0.0873 -0.6828  2.4109
    8DOPE   C39 1004   3.558   4.331  15.381 -0.8926  0.4426 -0.1494
    8DOPE   H9X 1005   3.570   4.406  15.461  1.2349 -1.3406  1.3484
    8DOPE  C310 1006   3.628   4.344  15.266  0.4921  0.2814  0.0336
    8DOPE  H10X 1007   3.702   4.425  15.265  1.2227 -0.0820  4.3475
    8DOPE  C311 1008   3.627   4.257  15.141 -0.3216 -0.1317 -0.5173
    8DOPE  H11X 1009   3.592   4.154  15.166 -0.3457 -0.1099 -0.4606
    8DOPE  H11Y 1010   3.566   4.299  15.058 -0.8962  1.8717  0.8473
    8DOPE  C312 1011   3.766   4.228  15.087 -0.3743 -0.1340 -0.5896
    8DOPE  H12X 1012   3.818   4.173  15.168 -2.1920  0.1566  0.8445
    8DOPE  H12Y 1013   3.817   4.324  15.064 -0.2816 -0.7716 -3.4314
    8DOPE  C313 1014   3.748   4.135  14.962  0.2662 -0.1435 -0.1102
    8DOPE  H13X 1015   3.701   4.043  15.003  0.7082 -0.1674  0.3512
    8DOPE  H13Y 1016   3.674   4.175  14.890 -0.0259 -1.8458 -0.8120
    8DOPE  C314 1017   3.872   4.106  14.888  0.8391  0.1727  0.7726
    8DOPE  H14X 1018   3.932   4.031  14.944 -0.1061 -0.2287  1.2840
    8DOPE  H14Y 1019   3.927   4.202  14.880  0.5973  0.1619 -1.9415
    8DOPE  C315 1020   3.868   4.052  14.744 -1.1280 -0.2304 -0.2281
    8DOPE  H15X 1021   3.834   3.946  14.751 -0.4367 -0.4384  0.0819
    8DOPE  H15Y 1022   3.968   4.053  14.697 -1.6295  1.8145 -1.3939
    8DOPE  C316 1023   3.782   4.140  14.648 -0.2519  0.3567 -0.8022
    8DOPE  H16X 1024   3.816   4.246  14.654  1.8601 -0.2893  4.4024
    8DOPE  H16Y 1025   3.682   4.154  14.692 -0.0648  0.6666 -0.4681
    8DOPE  C317 1026   3.783   4.094  14.497 -0.2794  0.4491 -0.0327
    8DOPE  H17X 1027   3.710   4.166  14.453 -0.3416 -0.1201 -0.8682
    8DOPE  H17Y 1028   3.882   4.108  14.448 -0.0247  1.4781  0.7447
    8DOPE  C318 1029   3.721   3.960  14.461  0.5410 -0.3380 -0.6128
    8DOPE  H18X 1030   3.752   3.879  14.530  2.5603  0.6693 -0.2603
    8DOPE  H18Y 1031   3.746   3.936  14.356  0.6857  2.0106 -1.1728
    8DOPE  H18Z 1032   3.610   3.962  14.457  0.5402  1.7669 -0.9167
    9DOPE     N 1033   0.933   3.553  16.279 -0.0414 -0.1553 -0.0700
    9DOPE   HN1 1034   0.919   3.468  16.337 -1.3594  0.5888  0.7717
    9DOPE   HN2 1035   0.879   3.634  16.316 -0.9232  0.9662 -3.4318
    9DOPE   HN3 1036   0.915   3.541  16.178 -0.0563  0.3145 -0.1275
    9DOPE   C12 1037   1.079   3.581  16.308  0.1153  0.7418  0.8746
    9DOPE  H12A 1038   1.079   3.622  16.411  1.5635  1.5076  0.5968
    9DOPE  H12B 1039   1.102   3.677  16.257 -1.9450  1.6521  1.5479
    9DOPE   C11 1040   1.171   3.450  16.289  0.3025  0.6294 -0.0182
    9DOPE  H11A 1041   1.274   3.481  16.314  0.2827  0.2525  0.5636
    9DOPE  H11B 1042   1.145   3.426  16.184 -2.0079  0.0675  0.6116
    9DOPE     P 1043   1.217   3.225  16.419  0.2529  0.0760  0.3674
    9DOPE   O13 1044   1.141   3.133  16.505  0.6552  0.4684 -0.0887
    9DOPE   O14 1045   1.341   3.281  16.472 -0.3969  0.0441  0.2823
    9DOPE   O11 1046   1.239   3.151  16.277 -0.8263 -0.0884  0.1311
    9DOPE   O12 1047   1.119   3.339  16.370 -0.9932  0.6870  0.2407
    9DOPE    C1 1048   1.131   3.111  16.186  0.4151  0.5109  0.6234
    9DOPE    HA 1049   1.145   3.139  16.079 -0.1801  0.0701  0.4300
    9DOPE    HB 1050   1.035   3.157  16.214  0.7458  0.4731  1.8629
    9DOPE    C2 1051   1.098   2.959  16.167 -0.3165  0.3272 -0.3910
    9DOPE    HS 1052   1.091   2.911  16.267  0.1380 -0.2553 -0.6301
    9DOPE   O21 1053   1.206   2.902  16.089  0.3725 -0.4637 -0.4278
    9DOPE   C21 1054   1.201   2.776  16.066 -0.8008  0.1731 -0.5968
    9DOPE   O22 1055   1.133   2.690  16.122 -0.0795 -0.0620 -0.6703
    9DOPE   C22 1056   1.299   2.752  15.950  0.2471 -0.2668  0.2610
    9DOPE   H2R 1057   1.357   2.668  15.995 -0.1172  0.1588  1.5891
    9DOPE   H2S 1058   1.375   2.831  15.933  0.9076 -0.7282  0.9608
    9DOPE    C3 1059   0.959   2.943  16.096 -0.2267 -1.3222 -0.1044
    9DOPE    HX 1060   0.895   2.993  16.171  1.2255 -0.2533  0.4780
    9DOPE    HY 1061   0.926   2.837  16.101 -4.3129 -0.1493  2.6330
    9DOPE   O31 1062   0.955   3.012  15.967 -0.4691 -0.1944 -0.2387
    9DOPE   C31 1063   0.840   3.025  15.910 -0.0888 -0.6762 -0.3596
    9DOPE   O32 1064   0.731   2.994  15.954  0.2498 -0.1112  0.7111
    9DOPE   C32 1065   0.870   3.095  15.779 -0.1573  0.7478  0.5128
    9DOPE   H2X 1066   0.898   3.200  15.800 -0.0046  0.6593  0.7594
    9DOPE   H2Y 1067   0.956   3.041  15.733 -0.3932 -0.0783  1.0069
    9DOPE   C23 1068   1.233   2.698  15.830 -0.6293  0.2884  0.1215
    9DOPE   H3R 1069   1.216   2.786  15.766  0.4781  1.1939  1.0318
    9DOPE   H3S 1070   1.145   2.637  15.863 -0.6812  1.1835  1.7607
    9DOPE   C24 1071   1.329   2.602  15.755 -0.6236 -0.5223  0.1012
    9DOPE   H4R 1072   1.352   2.516  15.822 -2.4755 -1.5819 -0.5393
    9DOPE   H4S 1073   1.425   2.651  15.729 -1.6729  0.8079 -1.4625
    9DOPE   C25 1074   1.279   2.550  15.627  0.3042 -0.4418 -0.3063
    9DOPE   H5R 1075   1.181   2.500  15.643 -0.8160  2.3421  2.3345
    9DOPE   H5S 1076   1.357   2.481  15.588  1.1005  1.1050 -1.5709
    9DOPE   C26 1077   1.257   2.656  15.517  0.6704  0.1555 -0.0495
    9DOPE   H6R 1078   1.355   2.702  15.491  0.8111  0.9818  1.7878
    9DOPE   H6S 1079   1.203   2.750  15.542 -0.4115 -0.5756  0.4058
    9DOPE   C27 1080   1.202   2.590  15.381 -0.1871 -0.7200  0.0795
    9DOPE   H7R 1081   1.113   2.534  15.418 -0.5468  0.2933  0.8281
    9DOPE   H7S 1082   1.275   2.523  15.332  0.0203 -0.7649  0.4457
    9DOPE   C28 1083   1.164   2.707  15.281 -0.0426  0.1907  0.7381
    9DOPE   H8R 1084   1.078   2.768  15.318  1.1282  0.9113  2.4081
    9DOPE   H8S 1085   1.125   2.661  15.188  0.0476 -0.2261  0.9060
    9DOPE   C29 1086   1.277   2.801  15.245 -0.1169 -0.3691 -0.0983
    9DOPE   H9R 1087   1.324   2.846  15.334  0.6322 -0.1163 -0.6074
    9DOPE  C210 1088   1.338   2.812  15.126  0.0324  0.3345 -0.6314
    9DOPE  H10R 1089   1.425   2.877  15.109  0.6427 -0.9458 -2.6852
    9DOPE  C211 1090   1.297   2.743  14.998 -0.5385 -0.1506  0.0485
    9DOPE  H11R 1091   1.199   2.691  14.998  0.4256 -2.0738  0.0589
    9DOPE  H11S 1092   1.366   2.657  14.983 -1.6014 -0.6056 -3.1666
    9DOPE  C212 1093   1.295   2.844  14.880  0.0668 -0.7309 -0.1914
    9DOPE  H12R 1094   1.388   2.905  14.878  0.8250 -1.8672 -0.4759
    9DOPE  H12S 1095   1.214   2.920  14.883 -0.4967 -1.3512  1.1264
    9DOPE  C213 1096   1.293   2.776  14.744 -1.3288 -0.4202 -0.2681
    9DOPE  H13R 1097   1.400   2.750  14.727 -1.6960 -1.1598 -1.6307
    9DOPE  H13S 1098   1.278   2.858  14.671  0.1597 -0.4245 -0.6107
    9DOPE  C214 1099   1.182   2.666  14.720 -0.0884 -0.4267 -0.1097
    9DOPE  H14R 1100   1.085   2.705  14.757 -0.8892  0.4134 -2.8626
    9DOPE  H14S 1101   1.219   2.573  14.769  1.8137  0.6330  0.5653
    9DOPE  C215 1102   1.172   2.622  14.571 -0.6459 -0.9364  0.0895
    9DOPE  H15R 1103   1.150   2.714  14.512  3.6667  2.0973  2.6301
    9DOPE  H15S 1104   1.087   2.552  14.560 -0.3082 -1.1924 -1.0678
    9DOPE  C216 1105   1.301   2.555  14.529 -0.4105 -0.4460 -0.1314
    9DOPE  H16R 1106   1.342   2.495  14.613 -2.2864 -0.6056  0.7212
    9DOPE  H16S 1107   1.375   2.634  14.508 -0.7876  0.5370  1.9692
    9DOPE  C217 1108   1.292   2.465  14.401 -0.0567  0.7748 -0.5239
    9DOPE  H17R 1109   1.199   2.406  14.416 -0.3944  1.8354  2.0458
    9DOPE  H17S 1110   1.379   2.396  14.385 -0.5788 -0.0109 -0.0686
    9DOPE  C218 1111   1.280   2.550  14.274  0.7804  0.2749  0.5664
    9DOPE  H18R 1112   1.373   2.606  14.254  0.4762  0.4191 -0.5285
    9DOPE  H18S 1113   1.196   2.622  14.267  1.2643  0.7388 -0.7450
    9DOPE  H18T 1114   1.277   2.483  14.185 -1.1827  2.1063 -0.8577
    9DOPE   C33 1115   0.752   3.090  15.682 -0.5700  0.4553 -0.0156
    9DOPE   H3X 1116   0.672   3.155  15.722 -0.9948 -0.3113  0.4119
    9DOPE   H3Y 1117   0.715   2.985  15.684 -0.2627  0.2846 -1.5225
    9DOPE   C34 1118   0.797   3.118  15.541  0.2688 -0.4143  0.3440
    9DOPE   H4X 1119   0.860   3.209  15.547 -1.9399  1.1926  0.5729
    9DOPE   H4Y 1120   0.849   3.029  15.498 -1.6417 -0.3371 -2.3910
    9DOPE   C35 1121   0.680   3.162  15.451  0.1533  0.4324  0.0617
    9DOPE   H5X 1122   0.626   3.248  15.494  0.2504 -0.2900  1.7190
    9DOPE   H5Y 1123   0.609   3.077  15.449 -0.2579  0.7944 -1.8895
    9DOPE   C36 1124   0.733   3.207  15.312 -0.2115  0.0868 -0.7246
    9DOPE   H6X 1125   0.802   3.130  15.271 -0.0458 -0.0545 -0.1888
    9DOPE   H6Y 1126   0.786   3.305  15.320 -0.3532  0.0498  0.8536
    9DOPE   C37 1127   0.617   3.216  15.211  0.4139 -0.4073  0.4053
    9DOPE   H7X 1128   0.553   3.126  15.223 -0.9271  0.5725  0.7690
    9DOPE   H7Y 1129   0.555   3.302  15.242  2.3532  2.2789 -2.4504
    9DOPE   C38 1130   0.670   3.223  15.062 -0.2202 -0.0756 -0.7271
    9DOPE   H8X 1131   0.579   3.216  14.998 -0.8835  1.6182 -0.0382
    9DOPE   H8Y 1132   0.736   3.136  15.040 -0.8923 -0.4034 -1.5361
    9DOPE   C39 1133   0.739   3.350  15.026  0.0263 -0.1308 -0.0009
    9DOPE   H9X 1134   0.836   3.370  15.075  0.9679 -0.5253 -1.6488
    9DOPE  C310 1135   0.703   3.447  14.944  0.3734 -0.1855 -0.2844
    9DOPE  H10X 1136   0.768   3.533  14.927  0.3621 -0.6369 -3.0579
    9DOPE  C311 1137   0.574   3.455  14.868  0.6575 -0.1125 -0.0016
    9DOPE  H11X 1138   0.502   3.394  14.926  0.8310  0.9034  1.3015
    9DOPE  H11Y 1139   0.538   3.560  14.865 -0.3530 -0.4562 -0.8359
    9DOPE  C312 1140   0.590   3.409  14.725  0.1324 -0.4265  0.0179
    9DOPE  H12X 1141   0.489   3.403  14.677  0.5200 -4.7984 -0.5961
    9DOPE  H12Y 1142   0.632   3.307  14.733  2.3166  0.5659  2.6407
    9DOPE  C313 1143   0.684   3.499  14.633  0.1894 -0.1753 -0.8451
    9DOPE  H13X 1144   0.789   3.510  14.667  0.3210 -2.2114 -0.4517
    9DOPE  H13Y 1145   0.682   3.444  14.536  0.4138 -3.1503  0.7347
    9DOPE  C314 1146   0.640   3.641  14.609  1.0646 -0.8856  0.5354
    9DOPE  H14X 1147   0.667   3.695  14.702  0.1137  0.3895  0.1004
    9DOPE  H14Y 1148   0.531   3.657  14.594  0.9288 -1.5120  0.8501
    9DOPE  C315 1149   0.717   3.709  14.500 -0.2178  0.5127  0.5055
    9DOPE  H15X 1150   0.814   3.656  14.496 -0.1034  0.7125  0.6519
    9DOPE  H15Y 1151   0.743   3.816  14.515 -0.4784  0.4395  1.5090
    9DOPE  C316 1152   0.643   3.701  14.360 -0.2585  0.6968 -0.3830
    9DOPE  H16X 1153   0.567   3.782  14.359 -1.7915 -0.6657  0.9262
    9DOPE  H16Y 1154   0.601   3.600  14.347 -2.0124  1.1542  1.3133
    9DOPE  C317 1155   0.741   3.736  14.251 -0.2184  0.1027 -0.6213
    9DOPE  H17X 1156   0.780   3.839  14.263  2.4851 -0.7259 -1.6608
    9DOPE  H17Y 1157   0.829   3.669  14.254 -0.0739  0.3177  1.2580
    9DOPE  C318 1158   0.672   3.719  14.117 -0.5267  0.2334 -0.2850
    9DOPE  H18X 1159   0.736   3.736  14.029 -1.4110 -0.8557 -1.1732
    9DOPE  H18Y 1160   0.644   3.611  14.114  2.0641 -0.5182  0.3976
    9DOPE  H18Z 1161   0.586   3.788  14.128 -0.5785 -0.1035  2.0699
   10DOPE     N 1162   1.588   4.906  16.720 -0.0487 -0.7739 -0.3517
   10DOPE   HN1 1163   1.538   4.994  16.743 -0.1093 -0.8538 -0.1715
   10DOPE   HN2 1164   1.650   4.874  16.798  0.8304  1.8624  0.1589
   10DOPE   HN3 1165   1.657   4.926  16.645  0.4799  0.0286  0.3315
   10DOPE   C12 1166   1.498   4.808  16.661  0.6386  0.3695 -0.4317
   10DOPE  H12A 1167   1.455   4.843  16.564 -0.3690  0.8289  0.1713
   10DOPE  H12B 1168   1.411   4.787  16.726 -0.3564 -1.6223 -2.2693
   10DOPE   C11 1169   1.567   4.670  16.641  0.1061 -0.2150 -0.0564
   10DOPE  H11A 1170   1.503   4.597  16.586  2.3357 -1.4333 -1.2138
   10DOPE  H11B 1171   1.566   4.618  16.739  2.2212  0.6185  0.4663
   10DOPE     P 1172   1.715   4.725  16.440  0.2253 -0.2880  0.1758
   10DOPE   O13 1173   1.836   4.674  16.374  0.6630 -0.1494  0.5699
   10DOPE   O14 1174   1.707   4.870  16.469 -0.8862 -0.1012  0.0001
   10DOPE   O11 1175   1.583   4.689  16.358  0.7255  0.3297 -0.0722
   10DOPE   O12 1176   1.693   4.651  16.581 -0.6941 -1.3953  0.1159
   10DOPE    C1 1177   1.558   4.559  16.322  0.6075  0.5603  0.5899
   10DOPE    HA 1178   1.542   4.483  16.401 -0.7885 -1.3054 -1.3608
   10DOPE    HB 1179   1.645   4.511  16.271 -1.8485 -1.8253 -1.6675
   10DOPE    C2 1180   1.437   4.556  16.224  0.2530 -0.1863 -0.0917
   10DOPE    HS 1181   1.418   4.452  16.190  0.7401 -0.9389  1.8179
   10DOPE   O21 1182   1.461   4.647  16.115 -0.0383 -0.1595 -0.1312
   10DOPE   C21 1183   1.570   4.621  16.044 -0.6721  0.1951  0.2404
   10DOPE   O22 1184   1.640   4.522  16.046  0.5036  0.2056  0.5986
   10DOPE   C22 1185   1.580   4.750  15.953 -0.1879  0.2105 -0.1149
   10DOPE   H2R 1186   1.689   4.774  15.951 -0.4108  1.5859  1.8244
   10DOPE   H2S 1187   1.517   4.825  16.004 -0.7440  0.8732 -1.7174
   10DOPE    C3 1188   1.311   4.603  16.303 -1.0559  0.0734  0.4691
   10DOPE    HX 1189   1.317   4.707  16.340  1.2743  0.4576 -0.8088
   10DOPE    HY 1190   1.307   4.539  16.394  0.0626  0.5967  0.8987
   10DOPE   O31 1191   1.199   4.574  16.223 -0.6830 -0.1047  0.3935
   10DOPE   C31 1192   1.099   4.667  16.214  0.9862  0.4091  0.1356
   10DOPE   O32 1193   1.092   4.771  16.271  0.1791 -0.5071 -0.3370
   10DOPE   C32 1194   1.009   4.630  16.103  0.4186  1.0977  0.6660
   10DOPE   H2X 1195   0.962   4.531  16.119 -2.5251  2.2314 -0.1083
   10DOPE   H2Y 1196   0.929   4.705  16.079 -1.8612 -1.5202 -0.5150
   10DOPE   C23 1197   1.517   4.737  15.820 -0.0527  0.8588 -0.5998
   10DOPE   H3R 1198   1.406   4.734  15.829 -0.0861  0.1713 -1.1514
   10DOPE   H3S 1199   1.536   4.636  15.778  0.3490  0.2885  0.8825
   10DOPE   C24 1200   1.552   4.845  15.715 -0.7077  0.5046  0.3913
   10DOPE   H4R 1201   1.662   4.858  15.728 -0.5635  0.5445 -0.6989
   10DOPE   H4S 1202   1.507   4.940  15.749  0.4461  0.7189  1.4128
   10DOPE   C25 1203   1.528   4.807  15.573  0.4786  0.3262  0.8545
   10DOPE   H5R 1204   1.425   4.771  15.551  0.5036  0.7106  0.0752
   10DOPE   H5S 1205   1.585   4.716  15.544  0.4117  0.3954  0.5043
   10DOPE   C26 1206   1.579   4.914  15.472  0.6707 -0.3408 -0.1197
   10DOPE   H6R 1207   1.664   4.973  15.513  1.0338 -1.0748  0.2013
   10DOPE   H6S 1208   1.504   4.996  15.467  0.2523 -0.6359  1.0662
   10DOPE   C27 1209   1.597   4.860  15.331 -0.4593 -0.3146  0.1038
   10DOPE   H7R 1210   1.494   4.831  15.302 -0.6975  1.7370 -1.2877
   10DOPE   H7S 1211   1.664   4.771  15.323  2.0436  1.5351 -0.8597
   10DOPE   C28 1212   1.641   4.966  15.223 -0.0678  0.3524  0.2546
   10DOPE   H8R 1213   1.726   5.030  15.257  0.2664 -0.0874  0.2571
   10DOPE   H8S 1214   1.551   5.031  15.228 -0.7244 -0.4896 -0.4034
   10DOPE   C29 1215   1.659   4.914  15.083 -0.0687 -0.1398  0.2185
   10DOPE   H9R 1216   1.605   4.821  15.057  0.3307  0.0940 -1.5880
   10DOPE  C210 1217   1.747   4.959  14.993 -0.1494 -0.5027 -0.0923
   10DOPE  H10R 1218   1.742   4.914  14.893  2.2795 -1.5397  0.1697
   10DOPE  C211 1219   1.841   5.082  15.011 -0.5458 -0.0649  0.4247
   10DOPE  H11R 1220   1.934   5.034  15.046 -0.3429 -0.8766 -1.1328
   10DOPE  H11S 1221   1.807   5.159  15.083 -0.2216  1.3422 -0.8529
   10DOPE  C212 1222   1.865   5.157  14.878 -0.4523 -0.1464 -0.1157
   10DOPE  H12R 1223   1.770   5.184  14.827 -0.1159 -0.9580 -1.2068
   10DOPE  H12S 1224   1.921   5.084  14.815 -1.0265  0.2280 -1.0764
   10DOPE  C213 1225   1.947   5.291  14.900 -0.4890  0.0391  0.6185
   10DOPE  H13R 1226   2.025   5.285  14.980 -2.2395  1.9960  2.6129
   10DOPE  H13S 1227   1.868   5.364  14.929 -0.0695  1.4941 -1.6455
   10DOPE  C214 1228   2.002   5.331  14.759  0.0731  0.4073 -0.1434
   10DOPE  H14R 1229   1.918   5.357  14.691  0.5635  2.2620 -0.0754
   10DOPE  H14S 1230   2.057   5.248  14.709 -0.6650 -0.3022  0.1830
   10DOPE  C215 1231   2.105   5.441  14.766 -0.0035 -0.3445 -0.0638
   10DOPE  H15R 1232   2.197   5.397  14.812 -0.8226  0.3049  2.3499
   10DOPE  H15S 1233   2.067   5.516  14.839  2.3008  0.0841  0.8089
   10DOPE  C216 1234   2.127   5.499  14.631  0.3800 -0.1884  0.5945
   10DOPE  H16R 1235   2.036   5.560  14.613 -0.0298 -0.8230  0.4800
   10DOPE  H16S 1236   2.128   5.429  14.545  1.4699  0.4049  0.1031
   10DOPE  C217 1237   2.254   5.575  14.613  0.5663 -0.1201  0.7503
   10DOPE  H17R 1238   2.275   5.605  14.508  1.7166  1.8164  1.4635
   10DOPE  H17S 1239   2.332   5.510  14.657 -0.6790 -2.5799 -0.5092
   10DOPE  C218 1240   2.250   5.704  14.682 -0.0039 -0.0131  0.4252
   10DOPE  H18R 1241   2.159   5.763  14.662  0.9563  0.8018 -1.8667
   10DOPE  H18S 1242   2.340   5.762  14.651  0.5626 -0.5185  1.0872
   10DOPE  H18T 1243   2.268   5.690  14.791  1.5012 -0.3397  0.1643
   10DOPE   C33 1244   1.078   4.595  15.963  0.6172  0.1220  0.1547
   10DOPE   H3X 1245   1.117   4.492  15.978  1.4339  0.3897 -0.1068
   10DOPE   H3Y 1246   1.162   4.666  15.951 -0.8338  1.8644 -0.2115
   10DOPE   C34 1247   0.982   4.602  15.843 -0.2455  0.4903  0.2963
   10DOPE   H4X 1248   0.905   4.523  15.855 -2.9903  2.6086 -2.0466
   10DOPE   H4Y 1249   0.954   4.709  15.838  1.4671  0.9620  0.2238
   10DOPE   C35 1250   1.069   4.593  15.715  1.0914 -0.2146 -0.1418
   10DOPE   H5X 1251   1.122   4.496  15.719 -0.4480 -1.0922 -0.2601
   10DOPE   H5Y 1252   1.153   4.666  15.716  1.8062 -1.0177 -0.2357
   10DOPE   C36 1253   0.998   4.609  15.584  0.2066 -0.7386  0.3466
   10DOPE   H6X 1254   0.956   4.711  15.570 -1.9705 -1.6248  0.0686
   10DOPE   H6Y 1255   0.913   4.539  15.595  0.4362 -0.7638  2.3268
   10DOPE   C37 1256   1.069   4.553  15.459  0.1483  0.1822  0.0206
   10DOPE   H7X 1257   1.110   4.452  15.480 -0.0614  0.4290  1.8483
   10DOPE   H7Y 1258   0.995   4.558  15.376  2.1406  0.4979 -1.8057
   10DOPE   C38 1259   1.188   4.642  15.415  0.5647 -0.8602 -0.3580
   10DOPE   H8X 1260   1.248   4.605  15.329  0.2472 -0.2456 -0.8482
   10DOPE   H8Y 1261   1.261   4.637  15.500  0.2858 -2.4408 -0.1814
   10DOPE   C39 1262   1.147   4.777  15.381  0.4154  0.2270  0.2591
   10DOPE   H9X 1263   1.133   4.848  15.464 -0.4702  2.2311 -1.5396
   10DOPE  C310 1264   1.124   4.819  15.250 -0.3829 -0.0806  0.5602
   10DOPE  H10X 1265   1.087   4.922  15.246  0.8555  0.5263  2.7451
   10DOPE  C311 1266   1.146   4.732  15.128  0.1418 -0.1643 -0.1030
   10DOPE  H11X 1267   1.231   4.661  15.134  0.1568 -0.4279 -2.3433
   10DOPE  H11Y 1268   1.061   4.666  15.104  0.9533 -1.0201 -0.7057
   10DOPE  C312 1269   1.179   4.815  15.009  0.1766 -0.0080  0.3038
   10DOPE  H12X 1270   1.277   4.867  15.008  0.3623 -0.2996  1.7215
   10DOPE  H12Y 1271   1.101   4.894  15.000 -1.1781 -1.3500 -0.0897
   10DOPE  C313 1272   1.175   4.724  14.883 -0.2139  0.7548  0.1632
   10DOPE  H13X 1273   1.245   4.640  14.903  0.7513  1.5686  0.3195
   10DOPE  H13Y 1274   1.076   4.675  14.885 -0.0556  0.4373  2.0946
   10DOPE  C314 1275   1.189   4.796  14.753  0.8003 -0.6143  0.4093
   10DOPE  H14X 1276   1.295   4.830  14.755 -0.0729  2.6340  3.3777
   10DOPE  H14Y 1277   1.118   4.882  14.755  0.8333 -0.5567 -0.4241
   10DOPE  C315 1278   1.146   4.711  14.633  0.3786  0.1365  0.5087
   10DOPE  H15X 1279   1.061   4.648  14.666  0.9071 -0.4602  0.7437
   10DOPE  H15Y 1280   1.221   4.634  14.604  1.1241  1.4025 -1.0822
   10DOPE  C316 1281   1.103   4.797  14.508 -0.6082  0.2316  0.6994
   10DOPE  H16X 1282   1.181   4.870  14.476 -0.9152  0.3916  0.3146
   10DOPE  H16Y 1283   1.016   4.858  14.540 -0.3233 -0.3641  2.7649
   10DOPE  C317 1284   1.074   4.715  14.385 -0.3385 -0.2802  0.5298
   10DOPE  H17X 1285   1.165   4.654  14.368  0.9235  2.0922 -2.1719
   10DOPE  H17Y 1286   0.996   4.642  14.414  1.4820 -2.0402  1.2317
   10DOPE  C318 1287   1.050   4.803  14.263  0.3078 -0.1350 -0.3291
   10DOPE  H18X 1288   0.976   4.882  14.291 -0.6926 -1.5138  1.0844
   10DOPE  H18Y 1289   1.135   4.857  14.216  1.6213 -1.9658 -0.1473
   10DOPE  H18Z 1290   1.006   4.746  14.178  1.1070  1.0205 -1.5665
   11DOPE     N 1291   0.488   3.038  16.213 -0.0572  0.3149  0.3760
   11DOPE   HN1 1292   0.448   3.015  16.120 -1.3461  2.2501  0.3913
   11DOPE   HN2 1293   0.407   3.081  16.263 -1.0616 -2.3423  1.2233
   11DOPE   HN3 1294   0.562   3.110  16.204 -2.3190  2.5990 -1.7932
   11DOPE   C12 1295   0.539   2.908  16.278 -0.4168 -1.2134 -0.0402
   11DOPE  H12A 1296   0.629   2.933  16.340 -0.1436  0.4960 -1.0415
   11DOPE  H12B 1297   0.558   2.842  16.191 -3.0046  0.0339 -1.6769
   11DOPE   C11 1298   0.429   2.848  16.362 -0.1174 -1.0552  0.2750
   11DOPE  H11A 1299   0.402   2.919  16.443  0.4332 -0.5612  0.0357
   11DOPE  H11B 1300   0.469   2.759  16.415  2.9165  1.5561  2.8049
   11DOPE     P 1301   0.189   2.747  16.361  0.1670  0.1428 -0.3590
   11DOPE   O13 1302   0.056   2.791  16.307  0.0452  0.2847  0.2435
   11DOPE   O14 1303   0.200   2.747  16.510 -0.4190 -0.1244 -0.1450
   11DOPE   O11 1304   0.199   2.598  16.312 -0.3889 -0.1372 -0.1156
   11DOPE   O12 1305   0.305   2.825  16.293 -0.3017  0.0531 -0.0599
   11DOPE    C1 1306   0.276   2.562  16.198 -0.1126  0.2581 -0.5347
   11DOPE    HA 1307   0.277   2.451  16.194  0.4979  0.2351  0.1332
   11DOPE    HB 1308   0.380   2.602  16.204 -0.3126  0.7823 -0.4510
   11DOPE    C2 1309   0.223   2.609  16.060 -0.0910  0.5221 -0.2819
   11DOPE    HS 1310   0.253   2.716  16.059 -0.7037  0.7060  0.2632
   11DOPE   O21 1311   0.085   2.594  16.040  0.4382 -0.2544  0.2016
   11DOPE   C21 1312   0.033   2.679  15.958 -0.1746 -0.5663 -0.3480
   11DOPE   O22 1313   0.083   2.780  15.917 -0.2148  0.1604  0.7459
   11DOPE   C22 1314  -0.116   2.658  15.929  0.2044  0.4134  0.5208
   11DOPE   H2R 1315  -0.151   2.748  15.875  1.3907  1.4609  1.4163
   11DOPE   H2S 1316  -0.164   2.653  16.030  0.6437 -1.9285  0.6665
   11DOPE    C3 1317   0.297   2.523  15.951  0.1995  0.4255 -0.1896
   11DOPE    HX 1318   0.264   2.420  15.977  0.3173  0.4359 -0.0012
   11DOPE    HY 1319   0.406   2.543  15.962 -0.1973  1.8007  2.1664
   11DOPE   O31 1320   0.238   2.556  15.817  0.6170  0.0437 -0.3726
   11DOPE   C31 1321   0.291   2.660  15.749  0.1186 -0.2499  0.0778
   11DOPE   O32 1322   0.380   2.737  15.793 -0.4283 -0.4452  0.2827
   11DOPE   C32 1323   0.217   2.671  15.616 -0.3794  0.7634 -0.3175
   11DOPE   H2X 1324   0.217   2.579  15.554  1.1158  0.2173  0.4395
   11DOPE   H2Y 1325   0.120   2.717  15.643  0.0238  1.9895 -0.8839
   11DOPE   C23 1326  -0.134   2.535  15.841  0.1448  0.1945  0.0520
   11DOPE   H3R 1327  -0.245   2.539  15.837  0.1583  2.4306  0.1998
   11DOPE   H3S 1328  -0.117   2.438  15.892 -0.1541  0.4324  0.6123
   11DOPE   C24 1329  -0.087   2.563  15.695  0.5428 -0.4625  0.0056
   11DOPE   H4R 1330   0.022   2.547  15.695  0.3613 -1.9067  1.0305
   11DOPE   H4S 1331  -0.103   2.669  15.666  2.4233  0.3662  1.7852
   11DOPE   C25 1332  -0.146   2.477  15.588 -0.9049  0.3961 -0.0284
   11DOPE   H5R 1333  -0.248   2.505  15.556 -0.5289  0.2678 -1.3781
   11DOPE   H5S 1334  -0.153   2.371  15.621 -1.3954  0.0899 -1.0730
   11DOPE   C26 1335  -0.054   2.475  15.462  0.4671  0.2603  0.3099
   11DOPE   H6R 1336   0.050   2.445  15.487  0.7496  0.4256 -0.6390
   11DOPE   H6S 1337  -0.048   2.572  15.409  3.0106 -1.6400 -3.3014
   11DOPE   C27 1338  -0.106   2.369  15.359 -0.0741 -0.2771  0.0891
   11DOPE   H7R 1339  -0.211   2.391  15.332  0.6847  1.7585 -1.4994
   11DOPE   H7S 1340  -0.111   2.273  15.415 -1.0724  1.4857  3.2920
   11DOPE   C28 1341  -0.022   2.364  15.237  0.8790 -0.1489 -0.1315
   11DOPE   H8R 1342  -0.089   2.310  15.167 -0.6707  0.2112  1.0041
   11DOPE   H8S 1343   0.064   2.296  15.251  1.3055 -0.0753 -2.0807
   11DOPE   C29 1344   0.037   2.488  15.172  0.0764 -0.0252  0.1883
   11DOPE   H9R 1345   0.092   2.545  15.249  2.0916 -2.7035  0.8917
   11DOPE  C210 1346   0.031   2.528  15.044  0.4607 -0.4183 -0.8369
   11DOPE  H10R 1347   0.071   2.626  15.013 -0.7308 -0.5174 -2.8955
   11DOPE  C211 1348  -0.027   2.456  14.925  0.4989 -0.1671 -1.1708
   11DOPE  H11R 1349  -0.039   2.347  14.945 -1.3448  0.4965  2.0638
   11DOPE  H11S 1350   0.034   2.457  14.832 -1.6337 -1.2626 -2.6669
   11DOPE  C212 1351  -0.174   2.497  14.894 -0.3262  0.1125 -0.7364
   11DOPE  H12R 1352  -0.171   2.602  14.858  2.3896  0.5267  0.4205
   11DOPE  H12S 1353  -0.222   2.491  14.994  0.0026 -0.8662 -0.6280
   11DOPE  C213 1354  -0.256   2.412  14.796 -0.0564  0.0944  0.6361
   11DOPE  H13R 1355  -0.310   2.332  14.852 -0.8682 -0.8837 -1.4318
   11DOPE  H13S 1356  -0.186   2.371  14.721 -0.8435 -0.9387  0.4325
   11DOPE  C214 1357  -0.358   2.487  14.718  0.1659 -0.6813 -0.3623
   11DOPE  H14R 1358  -0.302   2.559  14.655 -0.8667  1.4447  1.0114
   11DOPE  H14S 1359  -0.418   2.544  14.792 -0.1804 -0.9057 -0.4648
   11DOPE  C215 1360  -0.452   2.402  14.633  0.0801 -0.1390  0.0219
   11DOPE  H15R 1361  -0.506   2.323  14.689 -1.0195  0.9398  0.5211
   11DOPE  H15S 1362  -0.395   2.366  14.545 -0.0176 -2.1042  0.7099
   11DOPE  C216 1363  -0.563   2.481  14.562 -0.3717  0.5702 -0.3947
   11DOPE  H16R 1364  -0.518   2.548  14.487  2.0871 -1.6550 -1.0597
   11DOPE  H16S 1365  -0.615   2.537  14.643  1.0303  0.8179  0.3532
   11DOPE  C217 1366  -0.661   2.380  14.495 -0.2071  0.0161  0.4357
   11DOPE  H17R 1367  -0.740   2.445  14.452 -0.7080 -0.2752  0.9127
   11DOPE  H17S 1368  -0.701   2.297  14.557 -0.2873  1.0320  1.7913
   11DOPE  C218 1369  -0.604   2.336  14.358  0.0609 -0.3313  0.1172
   11DOPE  H18R 1370  -0.600   2.421  14.287 -0.9368  1.3211  1.9307
   11DOPE  H18S 1371  -0.662   2.252  14.315  1.1138 -1.0813  0.1294
   11DOPE  H18T 1372  -0.497   2.310  14.375  0.0619  0.8747  2.3906
   11DOPE   C33 1373   0.284   2.783  15.534  0.5383  0.0772  0.2087
   11DOPE   H3X 1374   0.390   2.752  15.520  0.3667  0.1247 -1.3516
   11DOPE   H3Y 1375   0.270   2.880  15.586 -2.1393 -0.3550  0.4368
   11DOPE   C34 1376   0.225   2.795  15.393  0.2487  0.9638 -0.5773
   11DOPE   H4X 1377   0.205   2.696  15.348 -0.2498  1.5645 -1.7204
   11DOPE   H4Y 1378   0.124   2.839  15.409 -0.3402 -0.8490  1.0975
   11DOPE   C35 1379   0.298   2.886  15.294  0.0833  0.3871  0.3411
   11DOPE   H5X 1380   0.404   2.864  15.271 -0.3546 -1.0446 -0.4554
   11DOPE   H5Y 1381   0.291   2.991  15.330 -0.3889  1.1148 -1.6972
   11DOPE   C36 1382   0.234   2.884  15.151  0.4890 -0.1300 -0.5062
   11DOPE   H6X 1383   0.145   2.950  15.147  0.1355 -0.4642  0.9666
   11DOPE   H6Y 1384   0.211   2.779  15.122  0.0528 -0.0131 -0.5788
   11DOPE   C37 1385   0.338   2.921  15.046  0.1015 -0.0016  0.2673
   11DOPE   H7X 1386   0.370   3.025  15.069 -0.0901  0.5550 -1.7502
   11DOPE   H7Y 1387   0.433   2.864  15.042  0.1690  0.1559 -0.6752
   11DOPE   C38 1388   0.285   2.910  14.902 -0.0008  0.4835 -0.1802
   11DOPE   H8X 1389   0.353   2.964  14.834 -1.2212 -0.4396 -2.2301
   11DOPE   H8Y 1390   0.205   2.986  14.890  0.9987  1.4814 -0.6238
   11DOPE   C39 1391   0.276   2.777  14.841  0.3551  0.0557 -0.3526
   11DOPE   H9X 1392   0.364   2.710  14.848 -0.4257 -1.0359 -0.7136
   11DOPE  C310 1393   0.172   2.736  14.770  0.0480  1.3395  0.7489
   11DOPE  H10X 1394   0.179   2.636  14.726 -1.1516  2.0143 -1.1082
   11DOPE  C311 1395   0.041   2.807  14.743 -0.3620  0.2750 -0.0105
   11DOPE  H11X 1396  -0.031   2.798  14.828  0.6349 -2.7804  0.6453
   11DOPE  H11Y 1397   0.052   2.917  14.737  1.4466  0.0986 -0.7165
   11DOPE  C312 1398  -0.029   2.759  14.613 -0.7254 -0.4164 -0.3495
   11DOPE  H12X 1399  -0.059   2.653  14.623 -0.0608 -0.6200 -0.4160
   11DOPE  H12Y 1400   0.054   2.766  14.539  0.5864  1.3438  1.1768
   11DOPE  C313 1401  -0.151   2.832  14.563 -0.3446 -0.7412  0.5574
   11DOPE  H13X 1402  -0.208   2.756  14.506  0.4632 -0.3788 -0.7865
   11DOPE  H13Y 1403  -0.219   2.872  14.641 -1.9214 -0.5607 -0.8601
   11DOPE  C314 1404  -0.117   2.941  14.460 -0.1489 -0.8813  0.6484
   11DOPE  H14X 1405  -0.088   2.903  14.360 -0.7014 -1.2416  0.6231
   11DOPE  H14Y 1406  -0.021   2.986  14.494 -1.3106 -0.0733  3.1276
   11DOPE  C315 1407  -0.218   3.064  14.453  0.4802  0.9158  1.0754
   11DOPE  H15X 1408  -0.158   3.154  14.430  1.6981 -0.4836 -1.8034
   11DOPE  H15Y 1409  -0.276   3.082  14.546 -0.4141  3.3005  0.1244
   11DOPE  C316 1410  -0.324   3.047  14.341  0.6779  0.3821  0.9717
   11DOPE  H16X 1411  -0.275   3.040  14.242 -0.5682  0.9255  0.2882
   11DOPE  H16Y 1412  -0.387   3.138  14.337  0.0275  0.0262  2.4549
   11DOPE  C317 1413  -0.409   2.921  14.362  0.0835  0.2856  0.5768
   11DOPE  H17X 1414  -0.350   2.832  14.331  0.0897  0.1057  1.0826
   11DOPE  H17Y 1415  -0.430   2.908  14.471 -4.3435  2.2832  0.1700
   11DOPE  C318 1416  -0.552   2.909  14.300  0.6480  0.3422  0.2924
   11DOPE  H18X 1417  -0.624   2.974  14.354  1.0670  0.7009  0.4295
   11DOPE  H18Y 1418  -0.570   2.937  14.194 -1.1159 -1.2828  0.1212
   11DOPE  H18Z 1419  -0.580   2.803  14.316  2.4464 -0.2941 -0.4788
   12DOPE     N 1420   1.903   4.456  16.594 -0.7241  0.4735 -0.2095
   12DOPE   HN1 1421   1.869   4.358  16.598 -3.9330  1.4337 -1.2706
   12DOPE   HN2 1422   1.818   4.516  16.601 -1.5087 -0.3098 -2.1853
   12DOPE   HN3 1423   1.930   4.469  16.495 -2.9927  0.2434 -0.9266
   12DOPE   C12 1424   2.009   4.478  16.703  0.1966 -0.3860  0.5554
   12DOPE  H12A 1425   2.108   4.444  16.664  0.2413 -1.4616  1.5530
   12DOPE  H12B 1426   1.981   4.428  16.798  1.3660 -1.9264  0.1231
   12DOPE   C11 1427   2.024   4.629  16.735  0.2738  0.4675  0.0592
   12DOPE  H11A 1428   2.050   4.693  16.648 -0.9430  0.5442 -0.2583
   12DOPE  H11B 1429   2.092   4.628  16.824 -1.6201 -3.1586  1.6724
   12DOPE     P 1430   1.876   4.815  16.858 -0.0561  0.2020  0.1956
   12DOPE   O13 1431   1.995   4.825  16.949 -0.1847 -0.4191 -0.4080
   12DOPE   O14 1432   1.746   4.829  16.920 -0.0317 -0.0993  0.1906
   12DOPE   O11 1433   1.876   4.910  16.736  0.5731  0.5408  0.5463
   12DOPE   O12 1434   1.896   4.673  16.793  1.1356  0.3267  0.3931
   12DOPE    C1 1435   1.994   4.962  16.677 -0.0111 -0.1054  0.7454
   12DOPE    HA 1436   1.971   4.982  16.570  1.1147  1.1473  0.7074
   12DOPE    HB 1437   2.078   4.890  16.682  0.3169  0.3246  1.5102
   12DOPE    C2 1438   2.017   5.112  16.725  0.5471 -0.0808  0.9142
   12DOPE    HS 1439   2.033   5.112  16.835  1.2973  0.7225  0.8177
   12DOPE   O21 1440   1.898   5.192  16.678 -0.0270  0.0442  0.4189
   12DOPE   C21 1441   1.905   5.307  16.744 -0.1718  0.3156  0.1470
   12DOPE   O22 1442   1.992   5.345  16.815 -0.3606 -0.0524 -0.3639
   12DOPE   C22 1443   1.777   5.388  16.706  0.1448  1.3818 -0.0366
   12DOPE   H2R 1444   1.705   5.326  16.764  0.1431  0.5989 -0.8448
   12DOPE   H2S 1445   1.752   5.391  16.598  0.0607  1.7701 -0.0070
   12DOPE    C3 1446   2.150   5.171  16.667 -0.6311  0.6432 -0.2699
   12DOPE    HX 1447   2.223   5.089  16.687 -0.1327  0.4041 -2.7079
   12DOPE    HY 1448   2.192   5.260  16.717 -1.7762 -0.2212  2.4198
   12DOPE   O31 1449   2.146   5.180  16.523  0.5080 -0.1546  0.7205
   12DOPE   C31 1450   2.123   5.302  16.467 -0.1460 -0.1321  0.3908
   12DOPE   O32 1451   2.131   5.402  16.530 -0.5045 -0.1367 -0.6887
   12DOPE   C32 1452   2.119   5.284  16.316  0.1577  0.0422 -0.0130
   12DOPE   H2X 1453   2.207   5.225  16.285  0.2555  1.3162 -2.3999
   12DOPE   H2Y 1454   2.026   5.227  16.295 -0.7821  1.4458  0.1467
   12DOPE   C23 1455   1.782   5.527  16.768  0.4853  0.1226  0.6151
   12DOPE   H3R 1456   1.809   5.528  16.876  1.2181  0.5020  0.4365
   12DOPE   H3S 1457   1.681   5.573  16.766  1.0362  1.3877  0.7505
   12DOPE   C24 1458   1.870   5.629  16.700  0.7284  0.4304  0.1529
   12DOPE   H4R 1459   1.976   5.610  16.726  0.9082 -2.3994 -2.0533
   12DOPE   H4S 1460   1.833   5.728  16.733  0.6482  0.2104  0.7292
   12DOPE   C25 1461   1.862   5.625  16.547  0.3209  0.5095 -0.4678
   12DOPE   H5R 1462   1.754   5.636  16.520 -0.2787  0.6900  1.8082
   12DOPE   H5S 1463   1.905   5.531  16.507 -0.4396 -0.2085  0.3693
   12DOPE   C26 1464   1.927   5.745  16.470  0.5467 -0.1664 -0.0430
   12DOPE   H6R 1465   2.036   5.741  16.487  0.4459 -1.0839  0.4683
   12DOPE   H6S 1466   1.894   5.839  16.519  1.4810 -0.7156  1.7259
   12DOPE   C27 1467   1.902   5.749  16.317 -0.3821 -0.3892 -0.3331
   12DOPE   H7R 1468   1.797   5.781  16.299  0.4937  1.4278 -2.8666
   12DOPE   H7S 1469   1.933   5.654  16.269 -1.5339 -1.3282  0.7077
   12DOPE   C28 1470   1.991   5.859  16.248 -0.5760 -0.0828 -0.2997
   12DOPE   H8R 1471   1.983   5.945  16.318 -1.6356 -2.2466  2.4478
   12DOPE   H8S 1472   1.935   5.888  16.157 -1.6526 -1.2242 -0.0241
   12DOPE   C29 1473   2.130   5.823  16.218 -0.4535 -0.6570  0.0230
   12DOPE   H9R 1474   2.186   5.799  16.309 -1.8207  0.3426  1.1761
   12DOPE  C210 1475   2.178   5.808  16.092 -0.1168 -0.5799 -1.5655
   12DOPE  H10R 1476   2.284   5.784  16.075  0.2226  0.3759 -0.8765
   12DOPE  C211 1477   2.100   5.824  15.964  0.0954 -0.0162 -0.0878
   12DOPE  H11R 1478   2.037   5.914  15.980  0.3079  0.4856 -1.8304
   12DOPE  H11S 1479   2.038   5.732  15.952 -0.9070  0.7263 -0.7928
   12DOPE  C212 1480   2.177   5.843  15.826 -0.8486 -1.0165  0.1317
   12DOPE  H12R 1481   2.214   5.746  15.787  0.8626 -0.5550  0.5487
   12DOPE  H12S 1482   2.262   5.913  15.822 -0.4027 -1.6044 -0.9413
   12DOPE  C213 1483   2.067   5.880  15.728 -0.3667 -0.3948 -0.6537
   12DOPE  H13R 1484   2.026   5.980  15.755  1.7641  0.4427 -0.2370
   12DOPE  H13S 1485   1.993   5.803  15.756  0.2949 -0.6181  0.5697
   12DOPE  C214 1486   2.116   5.871  15.583  0.2343  0.0337 -0.8381
   12DOPE  H14R 1487   2.023   5.873  15.523 -0.5710  0.3181  0.3882
   12DOPE  H14S 1488   2.177   5.780  15.565  0.8568  0.0148  1.1832
   12DOPE  C215 1489   2.203   5.991  15.541 -0.3909  0.0095  0.8668
   12DOPE  H15R 1490   2.307   5.974  15.577  0.8010  1.0976 -1.7478
   12DOPE  H15S 1491   2.166   6.081  15.594  0.2335 -0.3443  1.9351
   12DOPE  C216 1492   2.199   6.023  15.392 -0.2172 -0.6738  0.5925
   12DOPE  H16R 1493   2.132   6.106  15.363  0.5020  0.1652  1.2460
   12DOPE  H16S 1494   2.160   5.931  15.344 -0.5472 -0.4214  0.3789
   12DOPE  C217 1495   2.330   6.045  15.329 -0.2295 -0.7989  0.2159
   12DOPE  H17R 1496   2.397   5.960  15.352  1.1892 -0.1529 -1.3573
   12DOPE  H17S 1497   2.385   6.127  15.380  1.7209 -2.1200  0.3444
   12DOPE  C218 1498   2.328   6.074  15.185 -0.7504  0.5653  0.9780
   12DOPE  H18R 1499   2.317   5.972  15.144 -0.5814  0.4407  1.2492
   12DOPE  H18S 1500   2.422   6.119  15.146 -0.8733  0.9422  1.1028
   12DOPE  H18T 1501   2.255   6.152  15.154  1.2256  1.3423 -2.1363
   12DOPE   C33 1502   2.114   5.409  16.231  0.7272  0.1614 -0.0996
   12DOPE   H3X 1503   2.202   5.474  16.251  0.2117  2.0422 -3.1998
   12DOPE   H3Y 1504   2.021   5.467  16.246  0.7690  0.2106 -0.0277
   12DOPE   C34 1505   2.119   5.358  16.079 -0.6511 -0.3195 -0.3190
   12DOPE   H4X 1506   2.223   5.323  16.061 -1.3330 -2.4943 -0.3461
   12DOPE   H4Y 1507   2.042   5.279  16.074 -1.0901  0.1221 -0.6043
   12DOPE   C35 1508   2.094   5.461  15.962 -0.4711  0.4536  0.5695
   12DOPE   H5X 1509   2.159   5.551  15.970 -1.5929  1.3811 -0.3612
   12DOPE   H5Y 1510   1.994   5.502  15.989 -0.1383 -0.0693  2.7901
   12DOPE   C36 1511   2.093   5.394  15.823  0.7761 -0.2209 -0.7123
   12DOPE   H6X 1512   2.006   5.325  15.811  0.3347 -0.2348  2.0009
   12DOPE   H6Y 1513   2.186   5.335  15.809  0.9494  0.2004 -1.3694
   12DOPE   C37 1514   2.092   5.491  15.699  0.4109  0.3823 -0.3640
   12DOPE   H7X 1515   2.004   5.558  15.704 -0.2249 -0.4435 -0.3591
   12DOPE   H7Y 1516   2.189   5.543  15.716 -0.0127  1.3841 -0.9152
   12DOPE   C38 1517   2.100   5.413  15.564  0.2498 -0.4388 -0.0758
   12DOPE   H8X 1518   2.015   5.342  15.556  0.1117 -0.6265  2.4794
   12DOPE   H8Y 1519   2.190   5.349  15.549  1.1304  1.0604 -1.6580
   12DOPE   C39 1520   2.091   5.518  15.452 -0.2659  0.0721  0.7659
   12DOPE   H9X 1521   2.014   5.595  15.466 -0.4285  0.0319  0.1372
   12DOPE  C310 1522   2.177   5.539  15.354 -0.0251  0.0023 -0.1034
   12DOPE  H10X 1523   2.143   5.610  15.276 -0.1803 -0.0736 -0.1056
   12DOPE  C311 1524   2.307   5.471  15.320  0.6902 -0.2602 -0.0125
   12DOPE  H11X 1525   2.331   5.400  15.401 -0.2445  1.1838  1.5957
   12DOPE  H11Y 1526   2.305   5.421  15.221 -0.3468  0.8919 -0.6035
   12DOPE  C312 1527   2.422   5.568  15.324 -0.5337  0.3551  0.6481
   12DOPE  H12X 1528   2.410   5.652  15.252  0.5640 -0.5507 -0.6537
   12DOPE  H12Y 1529   2.517   5.516  15.299 -0.3743  0.7388  0.4547
   12DOPE  C313 1530   2.458   5.634  15.465 -0.2309  0.7193  0.2748
   12DOPE  H13X 1531   2.544   5.702  15.449  0.8069 -0.3352  1.2868
   12DOPE  H13Y 1532   2.366   5.680  15.509  0.0467  1.8131 -0.2397
   12DOPE  C314 1533   2.518   5.534  15.569 -0.2177 -0.0673  0.1470
   12DOPE  H14X 1534   2.614   5.494  15.531  0.5396 -0.6101  2.4374
   12DOPE  H14Y 1535   2.443   5.453  15.577  0.6558 -1.0005 -0.7414
   12DOPE  C315 1536   2.537   5.594  15.712 -0.4050  0.5002  0.5432
   12DOPE  H15X 1537   2.471   5.683  15.708 -0.1723  0.6600 -2.4225
   12DOPE  H15Y 1538   2.641   5.630  15.729  0.4140 -1.6026  0.3000
   12DOPE  C316 1539   2.497   5.493  15.829 -0.1317  0.2492  0.6304
   12DOPE  H16X 1540   2.562   5.403  15.831 -0.7492 -0.2814 -1.1131
   12DOPE  H16Y 1541   2.405   5.433  15.816 -0.0363  0.0439  0.8877
   12DOPE  C317 1542   2.507   5.564  15.963 -0.6807 -0.7821 -0.3744
   12DOPE  H17X 1543   2.613   5.595  15.971 -0.8426 -0.1931 -0.4715
   12DOPE  H17Y 1544   2.452   5.661  15.964  1.4376  0.4798 -0.8580
   12DOPE  C318 1545   2.472   5.477  16.082 -0.8318 -0.4204  0.3850
   12DOPE  H18X 1546   2.525   5.379  16.074 -0.1508  0.0437 -0.9861
   12DOPE  H18Y 1547   2.508   5.522  16.178  1.7556 -0.7112 -0.3687
   12DOPE  H18Z 1548   2.363   5.461  16.097 -1.5022  3.1548  0.2218
   13DOPE     N 1549   1.441   1.073  17.154  0.4757  0.6294  0.1153
   13DOPE   HN1 1550   1.528   1.131  17.149 -0.2531  1.7067 -0.7411
   13DOPE   HN2 1551   1.376   1.105  17.228 -0.7419  0.3518 -0.7935
   13DOPE   HN3 1552   1.470   0.975  17.170  0.5215  0.5221 -0.5700
   13DOPE   C12 1553   1.393   1.087  17.013 -0.8022 -0.4368 -0.6906
   13DOPE  H12A 1554   1.318   1.169  17.018 -0.2522 -0.0235  1.7407
   13DOPE  H12B 1555   1.341   0.991  16.996  1.6082 -1.7636 -1.0024
   13DOPE   C11 1556   1.514   1.110  16.919  0.4823  0.2769 -0.8255
   13DOPE  H11A 1557   1.497   1.105  16.809 -0.7728  0.3932 -0.6482
   13DOPE  H11B 1558   1.568   1.015  16.936  2.0531  1.4941  1.5874
   13DOPE     P 1559   1.558   1.361  16.895  0.1751 -0.2474 -0.1267
   13DOPE   O13 1560   1.617   1.470  16.973  0.0401  0.0630 -0.4131
   13DOPE   O14 1561   1.410   1.374  16.880  0.0847 -0.2450  0.1888
   13DOPE   O11 1562   1.608   1.365  16.743 -0.1654  0.2775  0.0154
   13DOPE   O12 1563   1.592   1.220  16.957  0.1293 -0.2286 -0.0923
   13DOPE    C1 1564   1.728   1.309  16.697  0.0206 -0.0738  0.3940
   13DOPE    HA 1565   1.752   1.225  16.766  2.4062  0.4556  0.2778
   13DOPE    HB 1566   1.812   1.381  16.700  0.4534 -0.5129 -0.6835
   13DOPE    C2 1567   1.728   1.257  16.548  0.4359  0.0659 -0.0215
   13DOPE    HS 1568   1.697   1.339  16.480  0.7708 -0.2261 -0.5374
   13DOPE   O21 1569   1.635   1.137  16.555 -0.0062 -0.2385 -0.0399
   13DOPE   C21 1570   1.544   1.139  16.467  0.2191  0.8029 -0.0545
   13DOPE   O22 1571   1.528   1.222  16.379 -0.3678 -0.3974  0.0831
   13DOPE   C22 1572   1.465   1.008  16.474  0.7074 -0.0508  0.3444
   13DOPE   H2R 1573   1.454   0.974  16.580 -1.1336 -0.6959 -0.0048
   13DOPE   H2S 1574   1.520   0.930  16.418 -0.6841 -0.5501 -0.3734
   13DOPE    C3 1575   1.865   1.212  16.502 -0.1836  0.0798  0.3628
   13DOPE    HX 1576   1.906   1.130  16.564 -0.2826  0.5322  1.0305
   13DOPE    HY 1577   1.930   1.302  16.504 -0.3413  0.2057  0.0732
   13DOPE   O31 1578   1.853   1.151  16.370  0.6766 -0.1451  0.1852
   13DOPE   C31 1579   1.837   1.234  16.261  0.2656 -0.2265 -0.1830
   13DOPE   O32 1580   1.845   1.355  16.262  0.1186  0.3993  0.4306
   13DOPE   C32 1581   1.778   1.147  16.148 -0.1982  0.0244  0.6815
   13DOPE   H2X 1582   1.811   1.041  16.158  1.6137  0.2234 -2.0192
   13DOPE   H2Y 1583   1.668   1.156  16.156 -0.2912  0.0864 -0.4373
   13DOPE   C23 1584   1.320   1.024  16.411  0.2481  0.3561 -0.0003
   13DOPE   H3R 1585   1.278   1.126  16.421 -1.2005 -0.2620  0.4337
   13DOPE   H3S 1586   1.266   0.959  16.484  1.3147 -0.2898  0.2395
   13DOPE   C24 1587   1.300   0.970  16.270  0.1398 -0.9973 -0.1482
   13DOPE   H4R 1588   1.320   0.861  16.274 -1.7735 -1.4507 -1.3754
   13DOPE   H4S 1589   1.369   1.010  16.193 -1.4898  0.8393 -0.7326
   13DOPE   C25 1590   1.150   0.984  16.224 -0.3335  0.1150  0.4738
   13DOPE   H5R 1591   1.133   1.094  16.216  0.1180  0.0598 -2.0369
   13DOPE   H5S 1592   1.080   0.935  16.294 -0.2303 -1.1031 -0.2495
   13DOPE   C26 1593   1.130   0.924  16.084 -0.7453 -0.3120 -0.2870
   13DOPE   H6R 1594   1.146   0.814  16.084  1.2577 -0.0760 -1.6629
   13DOPE   H6S 1595   1.208   0.957  16.012 -1.5084 -0.8205 -1.3787
   13DOPE   C27 1596   0.994   0.972  16.037 -0.2913 -0.1037  0.2174
   13DOPE   H7R 1597   0.969   1.076  16.068  1.6485  0.5500 -0.2566
   13DOPE   H7S 1598   0.918   0.901  16.077 -1.2484  0.9515  0.3122
   13DOPE   C28 1599   0.972   0.978  15.887  0.2628 -0.1965  0.7159
   13DOPE   H8R 1600   0.871   1.025  15.887  0.9779  1.4376  1.3880
   13DOPE   H8S 1601   0.971   0.873  15.852 -0.7563  0.5287 -1.6128
   13DOPE   C29 1602   1.066   1.060  15.803 -0.2280  0.9549  0.5102
   13DOPE   H9R 1603   1.090   1.155  15.852  2.2083  0.5991  0.1104
   13DOPE  C210 1604   1.123   1.037  15.681  0.6033  0.1176  0.1895
   13DOPE  H10R 1605   1.174   1.122  15.633 -0.5258  0.3417 -0.6613
   13DOPE  C211 1606   1.096   0.912  15.595  0.5781  0.3959  0.1309
   13DOPE  H11R 1607   1.007   0.858  15.634  1.2242 -0.6196  0.2595
   13DOPE  H11S 1608   1.183   0.843  15.603  1.3462  1.4459  1.0131
   13DOPE  C212 1609   1.075   0.953  15.444  0.0707  0.0467  0.0129
   13DOPE  H12R 1610   1.056   0.860  15.387  0.7160  0.6495 -1.2299
   13DOPE  H12S 1611   1.167   0.998  15.401  1.5244 -1.3973  1.4867
   13DOPE  C213 1612   0.954   1.041  15.414  0.0062 -0.3683  0.7517
   13DOPE  H13R 1613   0.973   1.136  15.468  1.6887 -0.2701  0.0323
   13DOPE  H13S 1614   0.862   0.993  15.455 -0.3950 -0.1816  0.0902
   13DOPE  C214 1615   0.940   1.066  15.264  0.0684  0.8575 -0.7838
   13DOPE  H14R 1616   0.956   0.979  15.197  1.4539  0.8280 -0.4472
   13DOPE  H14S 1617   1.019   1.135  15.228  1.2472 -1.1766 -2.3218
   13DOPE  C215 1618   0.808   1.129  15.229 -0.5967 -0.3698 -0.4078
   13DOPE  H15R 1619   0.786   1.210  15.301  1.0260  0.2453 -0.5609
   13DOPE  H15S 1620   0.723   1.061  15.248 -0.2184 -0.3343  1.5820
   13DOPE  C216 1621   0.787   1.154  15.079 -0.0492  0.6537  0.5573
   13DOPE  H16R 1622   0.692   1.209  15.063  0.5911  1.4392 -0.6503
   13DOPE  H16S 1623   0.772   1.051  15.041 -0.5862  0.2358  1.8388
   13DOPE  C217 1624   0.892   1.238  15.018 -0.2576 -0.3462  0.3436
   13DOPE  H17R 1625   0.991   1.187  15.028  0.6538  1.2516 -0.1024
   13DOPE  H17S 1626   0.906   1.337  15.067 -1.4653  1.0392 -1.9352
   13DOPE  C218 1627   0.878   1.284  14.865  0.1250 -0.0145 -0.2704
   13DOPE  H18R 1628   0.940   1.371  14.835 -0.1821  0.1588 -0.4057
   13DOPE  H18S 1629   0.772   1.314  14.851 -0.0862 -1.0297 -1.0068
   13DOPE  H18T 1630   0.891   1.198  14.796  0.0525  0.2760 -0.6456
   13DOPE   C33 1631   1.809   1.191  16.008 -0.1905  0.5852 -0.2237
   13DOPE   H3X 1632   1.819   1.300  15.989 -1.8729  0.7323 -0.4324
   13DOPE   H3Y 1633   1.729   1.144  15.947  1.2761  0.3684 -2.0793
   13DOPE   C34 1634   1.928   1.111  15.955  0.1609  0.1146  0.1571
   13DOPE   H4X 1635   2.008   1.128  16.030  0.4305 -0.2585 -0.0447
   13DOPE   H4Y 1636   1.901   1.004  15.959  0.4053  0.0709  0.7734
   13DOPE   C35 1637   1.978   1.157  15.818 -0.5024 -0.5430 -0.3356
   13DOPE   H5X 1638   2.059   1.088  15.788 -0.8681 -1.9098  1.6601
   13DOPE   H5Y 1639   2.018   1.261  15.820 -1.0234 -0.3349 -0.4457
   13DOPE   C36 1640   1.875   1.146  15.711 -0.3985  0.5501 -0.2520
   13DOPE   H6X 1641   1.788   1.209  15.739  0.2206  0.6666  1.5065
   13DOPE   H6Y 1642   1.853   1.040  15.684  0.3467  0.5815 -1.0625
   13DOPE   C37 1643   1.938   1.193  15.582 -0.0757  0.4521  0.0175
   13DOPE   H7X 1644   1.937   1.304  15.596  1.2917  0.7470 -1.7669
   13DOPE   H7Y 1645   2.037   1.145  15.564 -0.6648 -1.5429  1.7795
   13DOPE   C38 1646   1.850   1.153  15.459  0.2392  0.0843 -0.4482
   13DOPE   H8X 1647   1.752   1.194  15.491  1.0720  3.0196 -1.2609
   13DOPE   H8Y 1648   1.834   1.044  15.453 -1.5512  0.3820 -1.9929
   13DOPE   C39 1649   1.902   1.212  15.326  0.2787 -0.0329  0.2411
   13DOPE   H9X 1650   1.942   1.315  15.328 -2.3679  1.1310 -1.4728
   13DOPE  C310 1651   1.906   1.141  15.208  0.2040 -0.8568  0.7588
   13DOPE  H10X 1652   1.934   1.204  15.123 -0.7989  0.1210  1.1319
   13DOPE  C311 1653   1.861   0.999  15.183  0.0434 -0.1227 -0.9484
   13DOPE  H11X 1654   1.925   0.961  15.101  0.8409  0.0962 -0.4302
   13DOPE  H11Y 1655   1.865   0.938  15.275  0.4226  0.0842 -0.8264
   13DOPE  C312 1656   1.718   0.985  15.121  0.0563 -0.1177  0.2747
   13DOPE  H12X 1657   1.722   1.025  15.017  0.4001  0.7092  0.6044
   13DOPE  H12Y 1658   1.648   1.050  15.176  0.1176 -0.2359  0.4930
   13DOPE  C313 1659   1.663   0.835  15.120  0.6156  0.1917  0.4057
   13DOPE  H13X 1660   1.729   0.765  15.063 -1.6242 -1.8982  0.2197
   13DOPE  H13Y 1661   1.663   0.792  15.222 -0.3320 -2.7476 -0.7371
   13DOPE  C314 1662   1.521   0.829  15.070  0.2769  0.2592 -0.0451
   13DOPE  H14X 1663   1.521   0.880  14.971  0.7195 -1.3008 -0.8705
   13DOPE  H14Y 1664   1.450   0.888  15.133 -0.0804 -1.6372  1.4126
   13DOPE  C315 1665   1.471   0.683  15.052  0.6773  0.4420 -0.0707
   13DOPE  H15X 1666   1.360   0.676  15.039  0.1945  2.9164  1.9634
   13DOPE  H15Y 1667   1.490   0.621  15.142  1.8956  1.7445  0.5985
   13DOPE  C316 1668   1.524   0.607  14.928 -0.4650  0.0278  0.9919
   13DOPE  H16X 1669   1.503   0.499  14.946 -1.5584 -0.0980 -0.8361
   13DOPE  H16Y 1670   1.629   0.628  14.899 -0.8314 -0.9986 -1.2988
   13DOPE  C317 1671   1.452   0.649  14.796  0.2469  0.4335 -0.5463
   13DOPE  H17X 1672   1.344   0.670  14.809  0.6495  1.3692  1.5913
   13DOPE  H17Y 1673   1.489   0.752  14.781 -2.7537  1.6644 -0.1537
   13DOPE  C318 1674   1.486   0.562  14.673 -0.2769 -0.4530  0.4209
   13DOPE  H18X 1675   1.456   0.455  14.679 -0.4492 -0.5204 -1.1944
   13DOPE  H18Y 1676   1.418   0.604  14.596 -3.1751 -2.5494  1.6457
   13DOPE  H18Z 1677   1.592   0.565  14.641 -0.9023 -0.0580 -1.7681
   14DOPE     N 1678   5.595   3.635  16.741 -0.5283 -0.0382 -0.4184
   14DOPE   HN1 1679   5.672   3.687  16.693 -0.6509 -0.6065 -1.2475
   14DOPE   HN2 1680   5.630   3.544  16.778 -0.5174  1.4413  3.7361
   14DOPE   HN3 1681   5.521   3.626  16.668 -0.8846 -0.1637 -0.0433
   14DOPE   C12 1682   5.558   3.719  16.863  0.4521 -0.2048 -0.2958
   14DOPE  H12A 1683   5.652   3.753  16.912  0.9063 -1.7443 -0.0428
   14DOPE  H12B 1684   5.504   3.653  16.933  3.0499 -0.4232  1.6516
   14DOPE   C11 1685   5.454   3.828  16.818 -0.0480  0.0045  0.1739
   14DOPE  H11A 1686   5.512   3.904  16.761 -0.3065  0.1185  0.0643
   14DOPE  H11B 1687   5.418   3.884  16.907  0.0672  3.5230 -1.7891
   14DOPE     P 1688   5.210   3.741  16.809  0.2060  0.4724  0.3926
   14DOPE   O13 1689   5.148   3.869  16.858 -0.0270  0.1204  0.5513
   14DOPE   O14 1690   5.232   3.638  16.911 -0.4364  0.4214 -0.2687
   14DOPE   O11 1691   5.122   3.675  16.698  0.0708 -0.2167 -0.3649
   14DOPE   O12 1692   5.350   3.776  16.744 -0.2828  0.4084  0.4409
   14DOPE    C1 1693   5.160   3.568  16.614 -0.3312  0.8035 -0.1587
   14DOPE    HA 1694   5.069   3.506  16.598 -0.0276  0.1701  0.5101
   14DOPE    HB 1695   5.229   3.497  16.664 -2.4133  0.9439  3.2019
   14DOPE    C2 1696   5.197   3.619  16.474  0.2927  0.3868  0.6905
   14DOPE    HS 1697   5.295   3.669  16.479 -0.0560  1.0772  0.7464
   14DOPE   O21 1698   5.080   3.698  16.434  0.1584 -0.3846  0.3793
   14DOPE   C21 1699   5.112   3.808  16.361  0.3089  0.0134  0.0527
   14DOPE   O22 1700   5.222   3.847  16.325 -0.5900 -0.2374  0.6189
   14DOPE   C22 1701   4.979   3.896  16.341 -0.2446  0.0283  0.1278
   14DOPE   H2R 1702   4.978   3.961  16.430  4.3154  0.6822 -0.0526
   14DOPE   H2S 1703   4.883   3.840  16.341 -0.0023 -0.5370 -2.5127
   14DOPE    C3 1704   5.217   3.508  16.368 -0.2524  0.0425  0.5468
   14DOPE    HX 1705   5.116   3.471  16.344 -0.2937 -1.5643  2.8304
   14DOPE    HY 1706   5.274   3.441  16.436 -0.4992  2.1655  3.0023
   14DOPE   O31 1707   5.311   3.555  16.265  0.0709  0.3658  0.5050
   14DOPE   C31 1708   5.249   3.571  16.141 -0.2492 -0.0040 -0.4277
   14DOPE   O32 1709   5.149   3.516  16.116  0.1199  0.0566 -0.3156
   14DOPE   C32 1710   5.332   3.656  16.051 -0.7684 -0.0509  0.3518
   14DOPE   H2X 1711   5.340   3.749  16.110 -0.1797  1.2431 -1.6664
   14DOPE   H2Y 1712   5.434   3.614  16.047  0.0495  1.9140 -2.6634
   14DOPE   C23 1713   4.990   3.987  16.217 -0.3727 -0.0221  0.3052
   14DOPE   H3R 1714   5.084   4.045  16.203  0.8229 -0.8803  3.7690
   14DOPE   H3S 1715   4.911   4.062  16.237  0.3734  0.7616  0.3892
   14DOPE   C24 1716   4.953   3.913  16.088 -0.1256 -0.8761  0.0121
   14DOPE   H4R 1717   4.856   3.860  16.085 -0.0519 -1.0898 -4.0062
   14DOPE   H4S 1718   5.025   3.828  16.092  0.5127 -0.3023  1.2845
   14DOPE   C25 1719   4.961   3.999  15.964 -0.3936  0.6536  0.3422
   14DOPE   H5R 1720   5.048   4.068  15.964  0.6893 -0.6676  0.6735
   14DOPE   H5S 1721   4.877   4.066  15.993  1.0659  1.8791  1.9018
   14DOPE   C26 1722   4.962   3.934  15.824 -0.1891 -0.1738 -0.3168
   14DOPE   H6R 1723   4.866   3.882  15.803 -2.1855  2.6855  1.0429
   14DOPE   H6S 1724   5.043   3.858  15.829 -0.2056 -0.5941 -3.6339
   14DOPE   C27 1725   4.972   4.036  15.713 -0.7435 -0.0913 -0.2952
   14DOPE   H7R 1726   5.063   4.096  15.732 -0.4920 -0.6344  0.2668
   14DOPE   H7S 1727   4.895   4.112  15.737 -0.9301  0.0782 -1.3767
   14DOPE   C28 1728   4.947   3.966  15.585 -0.0380 -0.3319  0.1771
   14DOPE   H8R 1729   4.842   3.935  15.564  0.5975 -2.0292 -0.6446
   14DOPE   H8S 1730   5.003   3.870  15.586 -1.3167 -1.1035  1.2971
   14DOPE   C29 1731   4.995   4.056  15.476  0.2321 -0.0584  0.3242
   14DOPE   H9R 1732   5.100   4.089  15.481 -0.4022  1.9481  1.1942
   14DOPE  C210 1733   4.941   4.072  15.347 -0.4237 -0.0308 -0.1873
   14DOPE  H10R 1734   5.007   4.129  15.279  0.1874 -0.1594  0.2890
   14DOPE  C211 1735   4.832   4.001  15.274 -0.6565 -0.7977  0.0188
   14DOPE  H11R 1736   4.798   4.075  15.199  0.8578 -0.4836 -0.3999
   14DOPE  H11S 1737   4.746   3.985  15.342 -1.2327 -0.9175 -0.7226
   14DOPE  C212 1738   4.884   3.876  15.206 -0.5606  1.0160 -0.3042
   14DOPE  H12R 1739   4.797   3.813  15.180  0.0890  0.2140 -0.5650
   14DOPE  H12S 1740   4.952   3.821  15.274 -1.0000 -0.7505 -1.2417
   14DOPE  C213 1741   4.970   3.900  15.080  0.1701  0.0170  0.1231
   14DOPE  H13R 1742   5.036   3.813  15.060 -1.4504 -1.0589 -0.8261
   14DOPE  H13S 1743   5.030   3.993  15.084 -0.4437  0.4779 -0.9091
   14DOPE  C214 1744   4.886   3.912  14.956 -0.4732 -0.2598  0.5068
   14DOPE  H14R 1745   4.860   4.018  14.938  0.0550 -0.4187 -1.3337
   14DOPE  H14S 1746   4.783   3.872  14.971 -0.5283 -0.1827  0.3362
   14DOPE  C215 1747   4.927   3.830  14.836 -0.1277  0.6176 -0.3432
   14DOPE  H15R 1748   4.954   3.725  14.857  1.0368  1.1225  0.8204
   14DOPE  H15S 1749   5.016   3.878  14.789 -1.9498  0.0146 -4.9948
   14DOPE  C216 1750   4.815   3.846  14.731  0.1902 -0.0434  0.1959
   14DOPE  H16R 1751   4.809   3.953  14.699  2.1387  0.1198  0.2747
   14DOPE  H16S 1752   4.710   3.830  14.762 -0.5310  3.8030  0.2270
   14DOPE  C217 1753   4.852   3.758  14.606 -0.1389  0.6942  0.3909
   14DOPE  H17R 1754   4.865   3.655  14.646 -0.9597  0.8721  1.1491
   14DOPE  H17S 1755   4.954   3.790  14.579  0.7168 -2.4498 -0.6214
   14DOPE  C218 1756   4.760   3.773  14.482 -0.1103  0.7629  0.2698
   14DOPE  H18R 1757   4.653   3.750  14.499 -0.6215 -0.5592 -3.6673
   14DOPE  H18S 1758   4.788   3.699  14.404 -2.4894  2.1495 -2.0429
   14DOPE  H18T 1759   4.764   3.876  14.441  1.1472  2.2720  3.8080
   14DOPE   C33 1760   5.278   3.674  15.910 -0.1630  0.4296  0.0065
   14DOPE   H3X 1761   5.173   3.709  15.912 -0.3007  0.1308 -1.3955
   14DOPE   H3Y 1762   5.278   3.578  15.855 -2.0274  1.6077 -2.1773
   14DOPE   C34 1763   5.357   3.763  15.820  0.3211 -0.2205 -0.5387
   14DOPE   H4X 1764   5.348   3.861  15.872  2.0969 -0.9874  1.3763
   14DOPE   H4Y 1765   5.464   3.735  15.833 -0.0493 -0.5353  2.6417
   14DOPE   C35 1766   5.311   3.771  15.674 -0.5994  0.8777 -0.2531
   14DOPE   H5X 1767   5.204   3.796  15.686 -0.8255  0.1279 -0.6907
   14DOPE   H5Y 1768   5.316   3.678  15.614 -1.5633  2.3855 -2.7999
   14DOPE   C36 1769   5.387   3.881  15.603  0.0189 -0.2371  0.3776
   14DOPE   H6X 1770   5.496   3.869  15.617  0.0712  0.1173  0.2657
   14DOPE   H6Y 1771   5.355   3.973  15.657  0.0516 -0.0167  0.0262
   14DOPE   C37 1772   5.378   3.880  15.448  0.0194  0.9431 -0.4185
   14DOPE   H7X 1773   5.433   3.789  15.415 -0.2669 -0.2560  2.1591
   14DOPE   H7Y 1774   5.272   3.866  15.421  0.3411 -0.0050 -1.2260
   14DOPE   C38 1775   5.440   4.008  15.396 -0.1612 -0.2826  0.1469
   14DOPE   H8X 1776   5.544   4.008  15.435 -0.6686  0.0976  1.5725
   14DOPE   H8Y 1777   5.395   4.098  15.444  0.5548 -0.5798  1.4276
   14DOPE   C39 1778   5.435   4.016  15.251  0.2469  0.1974  0.6767
   14DOPE   H9X 1779   5.335   4.027  15.207  0.2192  1.0843  0.9418
   14DOPE  C310 1780   5.539   4.042  15.167  0.2989 -0.1821 -0.1364
   14DOPE  H10X 1781   5.520   4.052  15.059  2.1949 -1.0644 -0.5960
   14DOPE  C311 1782   5.686   4.040  15.210 -0.4506 -0.5634  1.2909
   14DOPE  H11X 1783   5.747   4.103  15.142  0.4799 -2.1675  0.5722
   14DOPE  H11Y 1784   5.697   4.092  15.308  0.7510  0.3851  0.6835
   14DOPE  C312 1785   5.737   3.902  15.220  0.5384 -0.6349  0.0523
   14DOPE  H12X 1786   5.675   3.833  15.282  0.2450 -1.4024 -1.0737
   14DOPE  H12Y 1787   5.836   3.897  15.270  0.4757 -0.5254  0.1892
   14DOPE  C313 1788   5.750   3.823  15.091 -0.1743  0.2527 -0.1603
   14DOPE  H13X 1789   5.696   3.727  15.103  1.7001 -0.9710 -1.1350
   14DOPE  H13Y 1790   5.706   3.874  15.003  1.9850  0.5281 -1.1514
   14DOPE  C314 1791   5.896   3.805  15.060  0.3517  0.4722  0.1300
   14DOPE  H14X 1792   5.935   3.731  15.134  0.9627  1.2453  0.6009
   14DOPE  H14Y 1793   5.946   3.904  15.067  1.6850 -0.2092  0.6180
   14DOPE  C315 1794   5.927   3.736  14.932  0.2742  0.0102  0.1277
   14DOPE  H15X 1795   5.873   3.792  14.852  1.6035 -0.5997 -1.2625
   14DOPE  H15Y 1796   5.885   3.634  14.937 -0.1459  0.2436  1.6312
   14DOPE  C316 1797   6.071   3.726  14.904  0.1639 -0.2134  0.4327
   14DOPE  H16X 1798   6.109   3.644  14.969 -0.6601 -1.2200 -0.3375
   14DOPE  H16Y 1799   6.132   3.816  14.930 -0.2078  0.7680 -1.8335
   14DOPE  C317 1800   6.104   3.706  14.757  0.0689  0.1904 -0.2838
   14DOPE  H17X 1801   6.214   3.698  14.746  0.1488 -1.3909  1.3021
   14DOPE  H17Y 1802   6.057   3.608  14.732  1.9224 -1.5728  2.5666
   14DOPE  C318 1803   6.051   3.817  14.650  0.1251 -0.2511  0.3445
   14DOPE  H18X 1804   6.112   3.910  14.653 -1.1086  0.5807  0.3446
   14DOPE  H18Y 1805   6.082   3.772  14.554 -0.5350  1.0039 -0.4851
   14DOPE  H18Z 1806   5.941   3.830  14.651  0.1750  0.1999  1.1192
   15DOPE     N 1807   0.553   2.281  17.006 -0.3604  0.2513 -0.0482
   15DOPE   HN1 1808   0.476   2.350  17.019 -0.7797  0.2401 -2.1717
   15DOPE   HN2 1809   0.516   2.192  17.045 -0.9051 -0.3275 -1.8100
   15DOPE   HN3 1810   0.647   2.309  17.042  0.5437 -1.3047 -1.1035
   15DOPE   C12 1811   0.573   2.261  16.858 -0.6064  0.4597  0.0609
   15DOPE  H12A 1812   0.621   2.347  16.806 -1.6091  0.7016 -0.4815
   15DOPE  H12B 1813   0.474   2.253  16.808  0.1341  1.6775 -1.7231
   15DOPE   C11 1814   0.667   2.136  16.844 -0.0614 -0.1041 -0.0116
   15DOPE  H11A 1815   0.758   2.160  16.903 -1.3337  2.3756  1.1056
   15DOPE  H11B 1816   0.705   2.108  16.744 -0.0629 -0.6189  0.1271
   15DOPE     P 1817   0.498   1.928  16.862 -0.0374 -0.2364  0.3461
   15DOPE   O13 1818   0.369   1.989  16.853  0.1265  0.3161 -0.2943
   15DOPE   O14 1819   0.507   1.793  16.930 -0.0580  0.0790  0.0081
   15DOPE   O11 1820   0.558   1.900  16.715  0.1319 -0.0309  0.8216
   15DOPE   O12 1821   0.604   2.027  16.917  0.2439  0.2829  0.0977
   15DOPE    C1 1822   0.688   1.840  16.697  1.1548  0.2583 -0.2655
   15DOPE    HA 1823   0.741   1.802  16.787  0.6557  1.2340  0.4530
   15DOPE    HB 1824   0.744   1.919  16.642  1.5705 -0.6935 -1.2460
   15DOPE    C2 1825   0.673   1.710  16.608 -0.1183 -0.0187  0.8146
   15DOPE    HS 1826   0.779   1.688  16.586  0.0922  1.3538  0.3448
   15DOPE   O21 1827   0.589   1.736  16.483  0.4412  0.5027 -0.3462
   15DOPE   C21 1828   0.648   1.815  16.403  0.2612 -0.3758 -0.2800
   15DOPE   O22 1829   0.765   1.851  16.406 -0.1889  0.1121 -0.2419
   15DOPE   C22 1830   0.551   1.852  16.288  0.0981 -0.3940 -0.5726
   15DOPE   H2R 1831   0.584   1.952  16.252  0.9367 -0.1308  0.8606
   15DOPE   H2S 1832   0.447   1.866  16.325  0.1957 -1.2238  0.0551
   15DOPE    C3 1833   0.613   1.594  16.691 -0.0161 -0.1947  0.2066
   15DOPE    HX 1834   0.530   1.631  16.755  1.2196 -0.3474  1.9588
   15DOPE    HY 1835   0.698   1.564  16.756  1.5080 -1.3369 -2.1689
   15DOPE   O31 1836   0.573   1.479  16.615  0.3295 -0.0968 -0.2320
   15DOPE   C31 1837   0.478   1.399  16.673 -0.3561  0.2313 -0.6049
   15DOPE   O32 1838   0.422   1.416  16.775  0.8646  0.3635  0.3300
   15DOPE   C32 1839   0.480   1.270  16.591  0.1124 -0.3280  0.4178
   15DOPE   H2X 1840   0.565   1.269  16.519  0.2527 -1.5649  0.5821
   15DOPE   H2Y 1841   0.507   1.182  16.652 -0.2894 -1.3824 -0.8851
   15DOPE   C23 1842   0.536   1.753  16.173  0.4656 -0.2136 -0.7229
   15DOPE   H3R 1843   0.473   1.785  16.087 -0.3213 -1.2444 -0.5376
   15DOPE   H3S 1844   0.492   1.660  16.214  0.8830 -0.0203  0.2006
   15DOPE   C24 1845   0.678   1.712  16.113  0.8822 -0.5712  0.2398
   15DOPE   H4R 1846   0.745   1.679  16.195 -1.3680 -1.0490  1.9603
   15DOPE   H4S 1847   0.722   1.803  16.065  0.4201 -0.0720  0.7474
   15DOPE   C25 1848   0.659   1.586  16.013 -0.1728 -0.9578 -0.0359
   15DOPE   H5R 1849   0.598   1.614  15.924 -0.4195 -1.7298 -0.1124
   15DOPE   H5S 1850   0.614   1.504  16.073  0.0860 -1.0195  0.0753
   15DOPE   C26 1851   0.795   1.535  15.961 -0.2920  0.1609  0.2644
   15DOPE   H6R 1852   0.777   1.439  15.908  1.3939  0.9322 -1.8690
   15DOPE   H6S 1853   0.859   1.512  16.049 -0.3400 -1.8365 -0.1675
   15DOPE   C27 1854   0.877   1.630  15.861  0.1530 -0.9294  0.2083
   15DOPE   H7R 1855   0.914   1.716  15.920 -0.4552 -1.4645  1.3842
   15DOPE   H7S 1856   0.820   1.667  15.773 -0.2769 -2.1491 -0.0504
   15DOPE   C28 1857   0.997   1.562  15.803  0.6969  0.1727  0.2672
   15DOPE   H8R 1858   0.957   1.482  15.737 -1.2090  0.6583  0.7721
   15DOPE   H8S 1859   1.045   1.517  15.893 -2.1412 -0.1593  1.7117
   15DOPE   C29 1860   1.103   1.654  15.743 -0.1559 -0.2331  0.2375
   15DOPE   H9R 1861   1.161   1.711  15.817  0.5119  1.8521 -1.7681
   15DOPE  C210 1862   1.110   1.678  15.613  0.8000  0.3840 -1.0408
   15DOPE  H10R 1863   1.172   1.763  15.581 -0.2496  1.2194 -0.9338
   15DOPE  C211 1864   1.033   1.607  15.502  0.5333  0.2211  0.0868
   15DOPE  H11R 1865   1.003   1.502  15.519  0.0845 -0.0899 -2.2660
   15DOPE  H11S 1866   1.102   1.592  15.417  1.0539 -1.6203  0.7975
   15DOPE  C212 1867   0.925   1.696  15.431 -0.4406 -0.6133 -0.5316
   15DOPE  H12R 1868   0.964   1.798  15.410  0.1612 -0.6313  0.4236
   15DOPE  H12S 1869   0.843   1.719  15.503  0.1324 -0.0047 -0.0486
   15DOPE  C213 1870   0.874   1.625  15.307  0.7458 -0.1609 -0.2405
   15DOPE  H13R 1871   0.840   1.523  15.337  0.0120  0.0353 -0.3839
   15DOPE  H13S 1872   0.958   1.611  15.237  1.3277  0.1419  0.3822
   15DOPE  C214 1873   0.750   1.679  15.227  0.1350 -0.5878  0.4996
   15DOPE  H14R 1874   0.774   1.772  15.171 -2.2835  0.4614  1.0906
   15DOPE  H14S 1875   0.671   1.699  15.302  1.0218 -0.2805  1.3676
   15DOPE  C215 1876   0.683   1.580  15.131 -0.0035  0.0447  0.6206
   15DOPE  H15R 1877   0.675   1.476  15.168  0.7789 -0.1196  0.3496
   15DOPE  H15S 1878   0.755   1.562  15.048  1.0230 -1.0522  1.7038
   15DOPE  C216 1879   0.552   1.627  15.078  0.7917  0.5756  0.6169
   15DOPE  H16R 1880   0.571   1.730  15.039  2.0331  0.6542  1.3814
   15DOPE  H16S 1881   0.471   1.634  15.153 -0.2151 -0.6247 -0.3237
   15DOPE  C217 1882   0.496   1.528  14.969 -0.3050 -0.2771  0.2794
   15DOPE  H17R 1883   0.447   1.442  15.020  0.0893 -1.8620 -1.8663
   15DOPE  H17S 1884   0.575   1.481  14.907 -1.9700 -1.3689 -1.0980
   15DOPE  C218 1885   0.392   1.583  14.868 -0.3224 -0.5823 -0.5532
   15DOPE  H18R 1886   0.436   1.653  14.793 -0.0961 -1.2907 -1.0927
   15DOPE  H18S 1887   0.315   1.633  14.930  0.8258 -0.2171  0.6318
   15DOPE  H18T 1888   0.335   1.502  14.817 -1.8658  0.2705 -0.2489
   15DOPE   C33 1889   0.346   1.264  16.510 -0.5617  0.7680 -0.2759
   15DOPE   H3X 1890   0.258   1.287  16.574 -1.4101 -2.2125 -0.2199
   15DOPE   H3Y 1891   0.323   1.166  16.462  0.8544 -0.5879  1.6435
   15DOPE   C34 1892   0.350   1.363  16.390 -1.5923 -0.6315 -0.1648
   15DOPE   H4X 1893   0.348   1.460  16.444 -3.0195 -1.4550  1.3411
   15DOPE   H4Y 1894   0.449   1.345  16.342 -0.6505 -0.1164  1.4842
   15DOPE   C35 1895   0.230   1.353  16.300  0.2197  0.4156  0.0111
   15DOPE   H5X 1896   0.132   1.352  16.351  0.2926  0.0226  0.1454
   15DOPE   H5Y 1897   0.224   1.253  16.253 -2.0488  1.2439 -1.6691
   15DOPE   C36 1898   0.218   1.450  16.181  0.8471 -0.4386 -0.4800
   15DOPE   H6X 1899   0.145   1.398  16.114  1.3427 -1.2301 -0.4193
   15DOPE   H6Y 1900   0.312   1.459  16.122  0.6480  1.5942 -0.5451
   15DOPE   C37 1901   0.155   1.586  16.225  0.1272  0.2592 -0.8507
   15DOPE   H7X 1902   0.080   1.569  16.306  1.3034 -1.4255 -0.0585
   15DOPE   H7Y 1903   0.237   1.643  16.274 -0.9630  0.0583  1.3725
   15DOPE   C38 1904   0.079   1.659  16.114 -0.3511  0.2384 -0.1469
   15DOPE   H8X 1905   0.016   1.729  16.174  0.2271  0.0868  0.6499
   15DOPE   H8Y 1906   0.009   1.589  16.063  0.0789 -1.7582  1.8656
   15DOPE   C39 1907   0.170   1.741  16.020  0.6603 -0.1355 -1.0256
   15DOPE   H9X 1908   0.220   1.820  16.077  2.2832 -0.6115 -1.7515
   15DOPE  C310 1909   0.188   1.723  15.889 -0.8195 -0.4817 -0.2873
   15DOPE  H10X 1910   0.259   1.791  15.839 -0.1971 -1.2404 -0.4486
   15DOPE  C311 1911   0.125   1.618  15.803  0.6091 -0.1379 -0.3463
   15DOPE  H11X 1912   0.072   1.541  15.863  0.8885  0.2075  0.3541
   15DOPE  H11Y 1913   0.055   1.665  15.731  1.6475 -0.5008 -1.6477
   15DOPE  C312 1914   0.227   1.537  15.713 -0.3459 -0.2547  0.1529
   15DOPE  H12X 1915   0.171   1.450  15.674  1.2335 -1.0992 -0.3165
   15DOPE  H12Y 1916   0.301   1.486  15.779 -0.3607  0.4915  0.7600
   15DOPE  C313 1917   0.283   1.620  15.597  0.7120  0.2046  0.0590
   15DOPE  H13X 1918   0.192   1.648  15.540  0.5726 -0.6266 -0.1382
   15DOPE  H13Y 1919   0.326   1.717  15.630  0.5404  0.2880  0.0402
   15DOPE  C314 1920   0.381   1.553  15.499 -0.3894 -0.3929  0.2299
   15DOPE  H14X 1921   0.366   1.598  15.399  0.6850 -0.7675 -0.1130
   15DOPE  H14Y 1922   0.356   1.445  15.500  2.4841 -1.1323  0.0661
   15DOPE  C315 1923   0.531   1.573  15.529  0.3799  0.0977  0.1525
   15DOPE  H15X 1924   0.546   1.675  15.570  1.7519  1.1851 -2.7625
   15DOPE  H15Y 1925   0.588   1.573  15.433  2.0748 -1.9391  1.0588
   15DOPE  C316 1926   0.589   1.472  15.627  0.0314 -0.3934  0.2977
   15DOPE  H16X 1927   0.507   1.440  15.695 -0.4320 -0.7874 -0.4305
   15DOPE  H16Y 1928   0.657   1.531  15.691  0.1805  0.2281 -0.4199
   15DOPE  C317 1929   0.666   1.349  15.566 -0.1195 -0.1791  0.4792
   15DOPE  H17X 1930   0.596   1.293  15.500 -1.4758  0.7300  1.1086
   15DOPE  H17Y 1931   0.733   1.398  15.492 -1.1183 -0.8254 -0.8995
   15DOPE  C318 1932   0.742   1.270  15.676 -0.1343 -0.1354  0.6460
   15DOPE  H18X 1933   0.672   1.248  15.761 -1.3414  2.1689  0.3411
   15DOPE  H18Y 1934   0.793   1.180  15.637  2.2507  0.2591  2.5902
   15DOPE  H18Z 1935   0.816   1.337  15.725  1.3501  0.0706 -1.7613
   16DOPE     N 1936   0.004   3.586  16.214  1.0517 -0.0269  0.5809
   16DOPE   HN1 1937   0.107   3.587  16.210  1.0646 -1.4794 -0.1673
   16DOPE   HN2 1938  -0.037   3.545  16.127 -1.7459  3.4933 -0.0340
   16DOPE   HN3 1939  -0.031   3.684  16.223 -1.5533 -0.8119  0.0447
   16DOPE   C12 1940  -0.054   3.528  16.341  0.6065  0.0701  0.1347
   16DOPE  H12A 1941  -0.163   3.550  16.346  0.2936 -1.5306  3.6777
   16DOPE  H12B 1942  -0.015   3.575  16.434  1.7958 -1.3788  0.4126
   16DOPE   C11 1943  -0.048   3.379  16.343 -0.3609  0.2575 -0.2108
   16DOPE  H11A 1944  -0.119   3.338  16.268  1.4781 -2.9592 -0.3873
   16DOPE  H11B 1945  -0.085   3.350  16.443 -0.1525  0.4837 -0.0698
   16DOPE     P 1946   0.136   3.180  16.314  0.1375 -0.0235  0.0634
   16DOPE   O13 1947   0.075   3.114  16.430  0.3070  0.2224 -0.0146
   16DOPE   O14 1948   0.287   3.182  16.318  0.6754 -0.5739  0.3231
   16DOPE   O11 1949   0.074   3.128  16.179 -0.4891  0.5932 -0.6116
   16DOPE   O12 1950   0.090   3.334  16.319  0.0919  0.0826  0.4663
   16DOPE    C1 1951   0.168   3.105  16.063  0.5751  0.4627  0.0066
   16DOPE    HA 1952   0.201   2.999  16.057 -2.1420 -0.4437 -0.3540
   16DOPE    HB 1953   0.260   3.165  16.075  1.0606  0.0481 -1.3911
   16DOPE    C2 1954   0.100   3.140  15.930  0.2048  0.3850 -0.7081
   16DOPE    HS 1955   0.090   3.250  15.921 -1.0957  0.2698 -0.8666
   16DOPE   O21 1956  -0.029   3.078  15.927  0.1929 -0.5819  0.3948
   16DOPE   C21 1957  -0.126   3.144  15.866 -0.2757  0.0231 -0.6829
   16DOPE   O22 1958  -0.117   3.259  15.823 -0.1823  0.0110 -0.1444
   16DOPE   C22 1959  -0.253   3.060  15.868  0.6994 -0.3787 -0.3018
   16DOPE   H2R 1960  -0.319   3.111  15.941  0.7752 -0.9901  0.1963
   16DOPE   H2S 1961  -0.237   2.958  15.908  0.0361 -0.4516 -0.2229
   16DOPE    C3 1962   0.187   3.100  15.809  0.5455  0.0053 -0.2690
   16DOPE    HX 1963   0.202   2.991  15.821 -1.0379 -0.4758 -2.1043
   16DOPE    HY 1964   0.290   3.139  15.820 -0.0436  1.3811  0.6961
   16DOPE   O31 1965   0.124   3.123  15.678 -0.6245 -0.0514  0.1105
   16DOPE   C31 1966   0.167   3.222  15.596  0.3785  0.1346 -0.8731
   16DOPE   O32 1967   0.240   3.314  15.623  0.4079 -0.6123 -0.0672
   16DOPE   C32 1968   0.102   3.203  15.453 -0.1866 -0.5494  0.4613
   16DOPE   H2X 1969   0.119   3.095  15.433 -0.9543 -0.9978  2.0474
   16DOPE   H2Y 1970  -0.008   3.207  15.466 -0.5941 -1.3209 -2.1655
   16DOPE   C23 1971  -0.312   3.034  15.727  0.5492  0.0511  0.0906
   16DOPE   H3R 1972  -0.351   3.117  15.663 -0.0191  1.1051  1.7564
   16DOPE   H3S 1973  -0.405   2.974  15.733 -0.0544  0.8254 -0.9775
   16DOPE   C24 1974  -0.225   2.952  15.638  0.4198  0.2294  0.3067
   16DOPE   H4R 1975  -0.204   2.854  15.687 -0.2167  0.8432  1.8413
   16DOPE   H4S 1976  -0.131   3.009  15.618 -0.4258  0.9361 -1.9009
   16DOPE   C25 1977  -0.278   2.903  15.503  0.5156 -0.0792 -0.6093
   16DOPE   H5R 1978  -0.336   2.985  15.455  0.6297 -0.3587 -1.2232
   16DOPE   H5S 1979  -0.352   2.823  15.528 -1.3390  2.0930  1.4468
   16DOPE   C26 1980  -0.163   2.869  15.406  0.1644 -0.1180 -0.3457
   16DOPE   H6R 1981  -0.124   2.773  15.444  0.1624 -0.1240 -0.3584
   16DOPE   H6S 1982  -0.076   2.934  15.427  0.2223  0.2156 -1.5419
   16DOPE   C27 1983  -0.203   2.851  15.258  0.1841 -0.1141 -0.2699
   16DOPE   H7R 1984  -0.298   2.798  15.236  0.9018 -0.9229 -1.5581
   16DOPE   H7S 1985  -0.120   2.795  15.210 -0.8396 -0.9577 -1.0995
   16DOPE   C28 1986  -0.207   2.984  15.187  0.9326  0.3427  0.1895
   16DOPE   H8R 1987  -0.124   3.046  15.227 -0.1170  0.3378  2.5348
   16DOPE   H8S 1988  -0.301   3.036  15.215  1.3485  1.7627 -0.9240
   16DOPE   C29 1989  -0.210   2.945  15.037  0.4981  0.0109 -0.4322
   16DOPE   H9R 1990  -0.125   2.882  15.006  1.3642  1.0049 -0.1427
   16DOPE  C210 1991  -0.319   2.978  14.953 -0.3822  0.2112 -0.1762
   16DOPE  H10R 1992  -0.318   2.947  14.847 -0.2859 -0.7353  0.0997
   16DOPE  C211 1993  -0.448   3.051  14.989  0.1205 -0.2482  0.1055
   16DOPE  H11R 1994  -0.487   3.020  15.089  1.0748 -0.8617  0.2955
   16DOPE  H11S 1995  -0.535   3.022  14.926  0.6998  0.6573 -1.1484
   16DOPE  C212 1996  -0.422   3.206  14.982  0.5202  0.1935  0.0758
   16DOPE  H12R 1997  -0.376   3.227  14.883 -0.3825  0.1623 -0.3592
   16DOPE  H12S 1998  -0.357   3.242  15.065 -0.9988  1.1403  0.9058
   16DOPE  C213 1999  -0.546   3.290  14.978  0.1188  0.3646  0.5543
   16DOPE  H13R 2000  -0.530   3.400  14.975 -2.0788  0.7015 -0.8004
   16DOPE  H13S 2001  -0.617   3.263  15.059 -1.6712 -1.7298 -1.5861
   16DOPE  C214 2002  -0.643   3.268  14.859 -0.3985  0.4108  0.0777
   16DOPE  H14R 2003  -0.729   3.338  14.866 -1.4571 -0.9733  2.1426
   16DOPE  H14S 2004  -0.697   3.173  14.883 -0.7825  0.1537 -1.7229
   16DOPE  C215 2005  -0.579   3.265  14.720 -0.4868 -0.2027  0.4718
   16DOPE  H15R 2006  -0.493   3.196  14.716 -0.5051 -0.4001  2.6022
   16DOPE  H15S 2007  -0.543   3.366  14.688 -1.4351  0.2920  0.9271
   16DOPE  C216 2008  -0.684   3.219  14.619 -0.0682 -0.4680  0.2645
   16DOPE  H16R 2009  -0.719   3.120  14.656 -0.3085  0.0025  1.3271
   16DOPE  H16S 2010  -0.629   3.201  14.524 -1.0137  2.9620 -1.0904
   16DOPE  C217 2011  -0.803   3.302  14.598 -0.0495  0.1250 -0.4361
   16DOPE  H17R 2012  -0.766   3.399  14.559  0.4934  0.6735  1.3126
   16DOPE  H17S 2013  -0.861   3.320  14.691 -0.3707 -0.0897 -0.5970
   16DOPE  C218 2014  -0.898   3.239  14.488 -0.1097 -0.2223 -0.2446
   16DOPE  H18R 2015  -0.915   3.132  14.512  1.5252 -0.4177  0.2090
   16DOPE  H18S 2016  -0.849   3.243  14.389  1.6567 -1.5907  0.5071
   16DOPE  H18T 2017  -0.992   3.296  14.500  0.8646  1.1587  1.5260
   16DOPE   C33 2018   0.185   3.289  15.351 -0.6350  0.6929  0.0550
   16DOPE   H3X 2019   0.287   3.248  15.366 -1.3891 -0.6553  1.7350
   16DOPE   H3Y 2020   0.190   3.397  15.376  1.5362  0.3307  1.4731
   16DOPE   C34 2021   0.119   3.271  15.211 -1.0320 -0.0256 -0.1710
   16DOPE   H4X 2022   0.102   3.164  15.184 -0.8626 -0.2244  0.4972
   16DOPE   H4Y 2023   0.025   3.330  15.213  0.5688  2.6516  0.3216
   16DOPE   C35 2024   0.197   3.327  15.086 -0.2177  0.8426 -0.1173
   16DOPE   H5X 2025   0.292   3.273  15.065  0.0762  1.5475 -0.6126
   16DOPE   H5Y 2026   0.228   3.432  15.106 -2.2235  1.8485 -1.9169
   16DOPE   C36 2027   0.098   3.317  14.970  0.1851 -0.0860  0.6552
   16DOPE   H6X 2028   0.006   3.374  14.996  0.0472 -0.0569  0.1261
   16DOPE   H6Y 2029   0.070   3.210  14.963  1.9491 -0.6195  1.3023
   16DOPE   C37 2030   0.148   3.355  14.824  0.1853  0.3498  0.1923
   16DOPE   H7X 2031   0.172   3.463  14.830 -0.9992  0.7320 -1.3935
   16DOPE   H7Y 2032   0.240   3.297  14.799 -0.0582  0.3339 -0.6840
   16DOPE   C38 2033   0.049   3.326  14.710  0.7079  0.1994  0.3442
   16DOPE   H8X 2034  -0.045   3.381  14.733  1.6638  1.4494  1.4829
   16DOPE   H8Y 2035   0.028   3.217  14.715 -1.3837  0.4314 -1.8147
   16DOPE   C39 2036   0.123   3.366  14.588  0.1736  1.1585 -0.0059
   16DOPE   H9X 2037   0.125   3.472  14.559 -1.2815  0.9200 -1.0663
   16DOPE  C310 2038   0.206   3.287  14.514 -0.4787 -0.5745  0.1765
   16DOPE  H10X 2039   0.261   3.331  14.428  0.2079 -0.5768  0.6073
   16DOPE  C311 2040   0.232   3.140  14.539  0.7689 -0.2697 -0.8736
   16DOPE  H11X 2041   0.173   3.091  14.619  0.9511 -1.4167 -1.4278
   16DOPE  H11Y 2042   0.206   3.094  14.441  2.9762  1.5625 -2.4521
   16DOPE  C312 2043   0.374   3.102  14.588 -0.1528 -0.0064  0.1258
   16DOPE  H12X 2044   0.384   2.991  14.590  0.1185  0.0226  1.1204
   16DOPE  H12Y 2045   0.390   3.132  14.694 -2.0992  1.5382  0.0467
   16DOPE  C313 2046   0.485   3.156  14.490 -0.1013  0.1978  0.3306
   16DOPE  H13X 2047   0.486   3.266  14.481  1.5175  0.2011  0.2808
   16DOPE  H13Y 2048   0.577   3.119  14.539 -1.2985 -0.5577  2.1288
   16DOPE  C314 2049   0.475   3.086  14.349  0.6089  0.2331  0.4727
   16DOPE  H14X 2050   0.373   3.110  14.313 -0.1147 -0.8815  1.6804
   16DOPE  H14Y 2051   0.472   2.976  14.362  0.4233  0.1726 -0.0485
   16DOPE  C315 2052   0.589   3.123  14.249 -0.1093 -0.6069 -0.3358
   16DOPE  H15X 2053   0.687   3.111  14.300  0.3769 -0.3539 -1.2050
   16DOPE  H15Y 2054   0.572   3.226  14.212  0.4062  0.3909  2.0089
   16DOPE  C316 2055   0.594   3.034  14.132 -0.4189  0.0285  0.3027
   16DOPE  H16X 2056   0.495   3.036  14.082  0.0536  2.2702 -0.6662
   16DOPE  H16Y 2057   0.619   2.929  14.159  1.5752 -0.1971 -2.0821
   16DOPE  C317 2058   0.690   3.089  14.027 -0.0524  0.0687  0.5347
   16DOPE  H17X 2059   0.660   3.195  14.016 -1.1600 -0.2864  0.0445
   16DOPE  H17Y 2060   0.791   3.088  14.074  0.3389 -1.2726 -0.2783
   16DOPE  C318 2061   0.704   3.010  13.892  0.5423 -0.1952 -0.2742
   16DOPE  H18X 2062   0.638   3.040  13.808  0.9318  0.5147 -0.3332
   16DOPE  H18Y 2063   0.810   3.020  13.861  0.2800 -0.5483 -1.3181
   16DOPE  H18Z 2064   0.687   2.901  13.906  1.5561 -0.6415 -2.1754
   17DOPE     N 2065   0.800   5.476  16.896 -0.1114 -0.7200  0.1664
   17DOPE   HN1 2066   0.704   5.489  16.935 -0.4458  0.3739 -0.9731
   17DOPE   HN2 2067   0.789   5.478  16.793  1.1592 -0.7562  0.0233
   17DOPE   HN3 2068   0.853   5.390  16.920  1.5697  0.1744 -0.2446
   17DOPE   C12 2069   0.896   5.578  16.943  0.8324 -0.2112 -0.2018
   17DOPE  H12A 2070   0.894   5.575  17.054  0.1676 -0.0357 -0.2077
   17DOPE  H12B 2071   0.857   5.675  16.904 -1.0691 -1.8820 -2.8491
   17DOPE   C11 2072   1.031   5.559  16.880  0.2945 -0.7345  1.0820
   17DOPE  H11A 2073   1.098   5.645  16.901  1.9290 -1.8544  0.6407
   17DOPE  H11B 2074   1.015   5.557  16.770 -1.0203  1.3711  1.1872
   17DOPE     P 2075   1.213   5.377  16.891  0.2744 -0.2474  0.2698
   17DOPE   O13 2076   1.231   5.243  16.943 -0.6270 -0.5779 -0.0105
   17DOPE   O14 2077   1.307   5.476  16.944 -0.8159  0.0950 -0.1471
   17DOPE   O11 2078   1.211   5.379  16.738  0.2154  0.1488  1.0283
   17DOPE   O12 2079   1.073   5.433  16.932 -0.0233 -0.4326  0.2282
   17DOPE    C1 2080   1.110   5.303  16.661 -0.4863  0.2359  0.0880
   17DOPE    HA 2081   1.009   5.345  16.678 -0.6745 -0.7610  1.6034
   17DOPE    HB 2082   1.105   5.194  16.681 -2.4785  0.1457 -0.6804
   17DOPE    C2 2083   1.133   5.327  16.508 -0.8669  0.2382 -0.0764
   17DOPE    HS 2084   1.067   5.256  16.454  0.2930 -0.6680 -0.3466
   17DOPE   O21 2085   1.268   5.310  16.459 -0.5235 -0.2960  0.3123
   17DOPE   C21 2086   1.306   5.180  16.459  0.0254 -0.5775  0.1045
   17DOPE   O22 2087   1.246   5.086  16.511 -1.1108  0.1647 -0.2421
   17DOPE   C22 2088   1.417   5.164  16.374  0.4641 -0.0625  0.5400
   17DOPE   H2R 2089   1.513   5.126  16.416  2.1025  2.2312 -0.8915
   17DOPE   H2S 2090   1.442   5.268  16.345 -2.4310  1.1205  1.8689
   17DOPE    C3 2091   1.093   5.474  16.480 -0.0106  0.2918  0.1209
   17DOPE    HX 2092   1.166   5.546  16.522  1.0566 -0.3641 -0.5652
   17DOPE    HY 2093   1.002   5.514  16.531  0.6026  1.4499  0.3343
   17DOPE   O31 2094   1.083   5.487  16.336 -0.4303  0.3888  0.2021
   17DOPE   C31 2095   1.178   5.560  16.273 -0.0388  0.6486  0.4906
   17DOPE   O32 2096   1.263   5.621  16.334 -0.2044  0.0339  0.0861
   17DOPE   C32 2097   1.144   5.575  16.124  0.4803  0.2650  0.1255
   17DOPE   H2X 2098   1.177   5.485  16.068  0.3033 -1.2812  2.4119
   17DOPE   H2Y 2099   1.034   5.589  16.123  0.5680  1.2627  1.6828
   17DOPE   C23 2100   1.393   5.061  16.255  0.7057  0.5500 -0.3527
   17DOPE   H3R 2101   1.373   4.962  16.301 -0.7098  0.7433 -0.5247
   17DOPE   H3S 2102   1.488   5.057  16.197  1.5698  2.7239  0.8026
   17DOPE   C24 2103   1.278   5.091  16.153 -0.1826  0.2408  0.6426
   17DOPE   H4R 2104   1.286   5.200  16.133 -0.5953 -0.1104 -1.6229
   17DOPE   H4S 2105   1.177   5.066  16.192  0.2799 -1.1557  1.0205
   17DOPE   C25 2106   1.293   5.023  16.014 -0.5034  0.3690  0.0430
   17DOPE   H5R 2107   1.280   4.914  16.027 -0.2914  0.3286 -0.0836
   17DOPE   H5S 2108   1.394   5.041  15.972 -0.8512  0.2434 -0.8627
   17DOPE   C26 2109   1.190   5.081  15.923  0.0915 -0.7665 -0.3865
   17DOPE   H6R 2110   1.196   5.189  15.945 -0.9340 -0.7756  0.0110
   17DOPE   H6S 2111   1.089   5.043  15.950 -1.1712  1.8135 -1.2300
   17DOPE   C27 2112   1.225   5.051  15.776 -0.8596 -0.5153 -0.1240
   17DOPE   H7R 2113   1.216   4.945  15.742  3.0342 -1.2896  0.6935
   17DOPE   H7S 2114   1.331   5.080  15.760 -0.2700 -0.5940  2.9242
   17DOPE   C28 2115   1.144   5.129  15.669  0.0262 -0.3203 -0.0215
   17DOPE   H8R 2116   1.038   5.133  15.702 -0.5386 -0.3716 -1.7639
   17DOPE   H8S 2117   1.136   5.072  15.574  4.1545 -2.5667  0.7197
   17DOPE   C29 2118   1.186   5.277  15.647  0.2767  0.8091  0.3129
   17DOPE   H9R 2119   1.134   5.342  15.720 -2.2658 -0.8209  0.0769
   17DOPE  C210 2120   1.249   5.331  15.539  0.0475  0.5888  0.4003
   17DOPE  H10R 2121   1.255   5.440  15.535  1.2572  0.5354  0.4141
   17DOPE  C211 2122   1.307   5.254  15.420 -0.0080 -0.3073  0.1541
   17DOPE  H11R 2123   1.311   5.144  15.430 -1.6121 -0.5234 -1.1168
   17DOPE  H11S 2124   1.406   5.298  15.394  0.5315 -1.8358 -0.4972
   17DOPE  C212 2125   1.221   5.282  15.298  0.4632 -0.2987 -0.6624
   17DOPE  H12R 2126   1.215   5.392  15.280 -2.1043 -0.2966 -0.2677
   17DOPE  H12S 2127   1.112   5.264  15.311  0.4374  0.5075  0.3979
   17DOPE  C213 2128   1.263   5.203  15.173  1.0228  0.0479 -0.3473
   17DOPE  H13R 2129   1.233   5.097  15.187 -3.6854  1.2140 -0.2154
   17DOPE  H13S 2130   1.374   5.208  15.160  1.5794  0.2671  3.3344
   17DOPE  C214 2131   1.193   5.256  15.046  0.2869 -0.6732 -0.1664
   17DOPE  H14R 2132   1.201   5.366  15.033 -2.1693 -0.3217  0.7659
   17DOPE  H14S 2133   1.085   5.229  15.051  0.7913 -2.8161  0.1509
   17DOPE  C215 2134   1.259   5.204  14.922 -1.0974  0.4000 -0.1946
   17DOPE  H15R 2135   1.216   5.103  14.906 -2.7722  0.8999  0.8991
   17DOPE  H15S 2136   1.362   5.190  14.959 -1.9098  0.7395  2.4225
   17DOPE  C216 2137   1.257   5.297  14.800  0.0110  0.3032  0.0366
   17DOPE  H16R 2138   1.343   5.367  14.796  1.1420 -1.0913 -1.6183
   17DOPE  H16S 2139   1.176   5.373  14.792 -0.1604 -0.0174 -1.7420
   17DOPE  C217 2140   1.264   5.213  14.670  0.5478 -0.2129  0.5999
   17DOPE  H17R 2141   1.266   5.276  14.578 -1.1417  0.6518  1.1165
   17DOPE  H17S 2142   1.174   5.148  14.670  0.0091  0.4146 -1.8773
   17DOPE  C218 2143   1.393   5.136  14.666  0.2656 -0.4157 -0.0945
   17DOPE  H18R 2144   1.377   5.082  14.571 -1.0455 -0.7836  0.3164
   17DOPE  H18S 2145   1.414   5.062  14.746  2.5165 -0.3076 -0.5027
   17DOPE  H18T 2146   1.474   5.211  14.655  1.7996 -2.1955 -1.7564
   17DOPE   C33 2147   1.213   5.689  16.053  0.5382  0.0369 -0.6946
   17DOPE   H3X 2148   1.324   5.681  16.049  0.5142  0.0643 -1.6789
   17DOPE   H3Y 2149   1.188   5.792  16.087 -0.5511  0.0941 -1.6081
   17DOPE   C34 2150   1.167   5.695  15.906  0.0403 -0.0442  0.3687
   17DOPE   H4X 2151   1.207   5.605  15.856 -3.1311 -1.9655  0.9717
   17DOPE   H4Y 2152   1.057   5.693  15.889  0.1163 -1.2648 -0.0789
   17DOPE   C35 2153   1.233   5.807  15.829 -0.7352  0.8999 -0.3435
   17DOPE   H5X 2154   1.343   5.790  15.818 -0.9294 -1.2542  0.5460
   17DOPE   H5Y 2155   1.222   5.900  15.888  0.2182 -0.6436  2.4847
   17DOPE   C36 2156   1.177   5.827  15.690  0.2967 -0.0245 -0.4638
   17DOPE   H6X 2157   1.067   5.840  15.690  0.2443 -0.3676  0.3428
   17DOPE   H6Y 2158   1.200   5.743  15.621  0.3140  0.2687 -0.8163
   17DOPE   C37 2159   1.238   5.946  15.621 -0.2167  1.0192 -0.4182
   17DOPE   H7X 2160   1.201   6.043  15.660  1.0855  1.4359 -0.1715
   17DOPE   H7Y 2161   1.348   5.935  15.615  0.0584  0.1815  3.7514
   17DOPE   C38 2162   1.194   5.960  15.469 -0.1995 -0.2711  0.0427
   17DOPE   H8X 2163   1.234   6.060  15.442 -0.3013  0.1956  1.5197
   17DOPE   H8Y 2164   1.084   5.961  15.478 -0.1347  1.0069  0.9096
   17DOPE   C39 2165   1.256   5.853  15.385  0.0522 -0.2799  1.1832
   17DOPE   H9X 2166   1.252   5.749  15.418 -0.3329 -0.8332 -0.4815
   17DOPE  C310 2167   1.320   5.872  15.261  0.3961  0.0516  0.7414
   17DOPE  H10X 2168   1.367   5.783  15.217  0.7582  0.3826  0.4529
   17DOPE  C311 2169   1.343   6.001  15.185 -0.0895 -0.1612 -0.2507
   17DOPE  H11X 2170   1.309   6.092  15.238 -3.4722 -0.2914 -1.9651
   17DOPE  H11Y 2171   1.449   6.018  15.156  1.1193 -3.8902  1.4284
   17DOPE  C312 2172   1.255   5.995  15.059 -0.3104  0.2555 -0.1368
   17DOPE  H12X 2173   1.151   6.013  15.094  0.2415  0.1523  1.6362
   17DOPE  H12Y 2174   1.265   5.891  15.022  1.6439  0.0193  0.9336
   17DOPE  C313 2175   1.300   6.092  14.945  0.5657  0.2153 -0.4502
   17DOPE  H13X 2176   1.409   6.072  14.943  0.2932 -1.3827 -0.5046
   17DOPE  H13Y 2177   1.243   6.061  14.855 -3.0348  0.9643  1.3487
   17DOPE  C314 2178   1.284   6.244  14.974  0.2641  0.5392 -0.2369
   17DOPE  H14X 2179   1.334   6.266  15.070 -1.4271 -2.1109  1.3673
   17DOPE  H14Y 2180   1.178   6.270  14.996  0.4610  0.1051  1.3232
   17DOPE  C315 2181   1.338   6.328  14.863 -0.3128 -0.3352  0.2590
   17DOPE  H15X 2182   1.435   6.292  14.821  0.1554  1.3455 -0.1763
   17DOPE  H15Y 2183   1.361   6.427  14.907 -2.7416  0.0736  0.7579
   17DOPE  C316 2184   1.238   6.369  14.756  0.0114  0.3925  0.0185
   17DOPE  H16X 2185   1.138   6.391  14.799 -0.2621  0.8908 -0.8439
   17DOPE  H16Y 2186   1.218   6.274  14.701  0.2716 -0.3084  1.0885
   17DOPE  C317 2187   1.280   6.487  14.661  0.0532  0.0060  0.3254
   17DOPE  H17X 2188   1.281   6.583  14.715  0.1463 -1.4137  3.0168
   17DOPE  H17Y 2189   1.386   6.467  14.633  0.0159  0.3330 -0.0665
   17DOPE  C318 2190   1.197   6.480  14.528 -0.6669  0.5093 -0.1743
   17DOPE  H18X 2191   1.230   6.573  14.477  0.9676  0.2837  0.4201
   17DOPE  H18Y 2192   1.213   6.385  14.473 -0.4755  0.4519 -0.0192
   17DOPE  H18Z 2193   1.087   6.489  14.541 -0.6767  0.5446 -0.2828
   18DOPE     N 2194   6.595   2.977  16.395  0.3519  0.4348 -0.3849
   18DOPE   HN1 2195   6.566   2.925  16.480  0.7055  2.5746  1.1307
   18DOPE   HN2 2196   6.618   2.919  16.312  1.7398  2.1486 -1.2704
   18DOPE   HN3 2197   6.690   3.015  16.416  0.2435 -0.1985  1.4907
   18DOPE   C12 2198   6.483   3.070  16.355 -0.3874 -0.2258  0.5778
   18DOPE  H12A 2199   6.508   3.108  16.254  2.6657 -1.0682  0.9219
   18DOPE  H12B 2200   6.460   3.147  16.432  0.8035  0.4941  0.2297
   18DOPE   C11 2201   6.354   2.985  16.358 -0.0763  0.1831 -0.7864
   18DOPE  H11A 2202   6.371   2.908  16.279  0.2311 -0.5150 -0.0474
   18DOPE  H11B 2203   6.270   3.055  16.340 -1.2164  0.2038  3.5632
   18DOPE     P 2204   6.222   2.927  16.571  0.1873  0.0737 -0.1522
   18DOPE   O13 2205   6.207   3.067  16.620  0.9352  0.4312  0.4898
   18DOPE   O14 2206   6.225   2.822  16.676 -0.0235 -0.5069 -0.0041
   18DOPE   O11 2207   6.106   2.893  16.469  0.0636 -0.1274  0.0233
   18DOPE   O12 2208   6.351   2.927  16.486  0.2946 -0.0859  0.3769
   18DOPE    C1 2209   6.111   2.764  16.400  0.3839 -0.3688 -0.7751
   18DOPE    HA 2210   6.054   2.690  16.459 -0.2219  0.2159 -0.6133
   18DOPE    HB 2211   6.215   2.727  16.391  0.4397 -0.2562 -0.5736
   18DOPE    C2 2212   6.047   2.763  16.257 -0.1689  0.1451 -0.3688
   18DOPE    HS 2213   6.002   2.661  16.251  0.5781 -0.2600  0.6436
   18DOPE   O21 2214   6.148   2.774  16.157  0.2253  0.1938  0.7629
   18DOPE   C21 2215   6.127   2.704  16.038 -0.0023 -0.1936 -0.3749
   18DOPE   O22 2216   6.043   2.614  16.021 -0.3315  0.3426  0.2576
   18DOPE   C22 2217   6.233   2.739  15.938 -0.8631  0.3451  0.4497
   18DOPE   H2R 2218   6.334   2.735  15.984 -0.6123 -1.1744 -0.1861
   18DOPE   H2S 2219   6.217   2.844  15.904 -0.5163  0.1330 -0.3891
   18DOPE    C3 2220   5.938   2.868  16.239  0.1618 -0.4253  0.4830
   18DOPE    HX 2221   6.003   2.958  16.244 -1.6195  0.9942 -0.7821
   18DOPE    HY 2222   5.875   2.871  16.330  0.8274  0.7021  0.9340
   18DOPE   O31 2223   5.878   2.859  16.111  0.0331  0.1672 -0.2682
   18DOPE   C31 2224   5.799   2.765  16.085 -0.6134 -0.4218 -0.0708
   18DOPE   O32 2225   5.754   2.682  16.166  0.0847  0.3481  0.1195
   18DOPE   C32 2226   5.752   2.775  15.941 -0.3571  0.0012 -0.1673
   18DOPE   H2X 2227   5.740   2.882  15.913  0.3538  0.3947  0.9489
   18DOPE   H2Y 2228   5.827   2.732  15.871 -0.3526  0.3206 -0.3638
   18DOPE   C23 2229   6.232   2.650  15.812  0.3115 -0.5559  0.7179
   18DOPE   H3R 2230   6.230   2.542  15.835  0.2355 -1.2128 -2.0603
   18DOPE   H3S 2231   6.332   2.659  15.765 -0.7791  0.2703 -1.6034
   18DOPE   C24 2232   6.121   2.696  15.706 -0.1292 -0.2343 -0.4089
   18DOPE   H4R 2233   6.136   2.804  15.683 -0.6491 -0.1577 -0.3980
   18DOPE   H4S 2234   6.017   2.692  15.744 -0.9147 -1.4631 -2.5126
   18DOPE   C25 2235   6.122   2.621  15.578  0.2224  0.3973  0.8504
   18DOPE   H5R 2236   6.056   2.533  15.595 -0.4329  0.8842  0.8460
   18DOPE   H5S 2237   6.228   2.596  15.559  0.2507  1.1921 -0.1012
   18DOPE   C26 2238   6.052   2.688  15.464 -0.2180  0.2377 -0.2974
   18DOPE   H6R 2239   6.075   2.797  15.459 -0.6257  0.3029 -0.9052
   18DOPE   H6S 2240   5.946   2.682  15.495  0.1971 -3.7895  0.9704
   18DOPE   C27 2241   6.081   2.611  15.336 -0.1579  0.7000  0.7203
   18DOPE   H7R 2242   6.053   2.504  15.349  1.5134 -0.2344 -2.1635
   18DOPE   H7S 2243   6.190   2.613  15.313 -0.0468  2.4883  1.3054
   18DOPE   C28 2244   6.006   2.657  15.209  0.3359 -0.0547 -0.4305
   18DOPE   H8R 2245   6.034   2.763  15.193  0.1341  0.2772  1.2099
   18DOPE   H8S 2246   5.898   2.667  15.236  0.8351  1.0550  1.2726
   18DOPE   C29 2247   6.037   2.563  15.099  0.3068 -0.7778 -0.3257
   18DOPE   H9R 2248   6.014   2.459  15.122 -1.1716  0.3189  4.1339
   18DOPE  C210 2249   6.112   2.585  14.991 -0.2387 -0.0701  0.2975
   18DOPE  H10R 2250   6.131   2.495  14.931  0.2132 -0.1680  0.5769
   18DOPE  C211 2251   6.162   2.717  14.939 -0.6409  0.0177  0.0016
   18DOPE  H11R 2252   6.273   2.715  14.935 -0.6162 -0.9049  0.6154
   18DOPE  H11S 2253   6.148   2.792  15.020  0.0382 -0.3698  0.4852
   18DOPE  C212 2254   6.087   2.777  14.817 -0.4023  0.5452 -0.4146
   18DOPE  H12R 2255   6.098   2.697  14.740 -2.3515 -0.0023 -0.1775
   18DOPE  H12S 2256   6.143   2.857  14.766  0.9331 -1.6609 -2.6292
   18DOPE  C213 2257   5.944   2.825  14.843  0.4690 -0.6685  0.4553
   18DOPE  H13R 2258   5.953   2.912  14.912  1.6244 -2.2306  2.3674
   18DOPE  H13S 2259   5.896   2.743  14.900 -2.5228  0.7435  0.1650
   18DOPE  C214 2260   5.870   2.856  14.708  0.6454 -0.3432 -0.1797
   18DOPE  H14R 2261   5.880   2.955  14.658 -0.2448 -0.0208  0.2620
   18DOPE  H14S 2262   5.763   2.870  14.733  0.0012  1.8265 -3.4842
   18DOPE  C215 2263   5.883   2.736  14.608  0.4010  0.0449 -0.5583
   18DOPE  H15R 2264   5.874   2.643  14.669 -2.5996  1.7015  1.8399
   18DOPE  H15S 2265   5.973   2.727  14.544  0.3009 -0.7127 -0.6018
   18DOPE  C216 2266   5.772   2.737  14.498 -0.2968  0.2519  0.1794
   18DOPE  H16R 2267   5.818   2.686  14.410  0.9087  1.1949  0.2479
   18DOPE  H16S 2268   5.749   2.837  14.455  0.6287  0.8886  1.1197
   18DOPE  C217 2269   5.644   2.656  14.526  0.8676  0.5492 -0.2345
   18DOPE  H17R 2270   5.578   2.718  14.592  0.5118 -1.6477  1.6204
   18DOPE  H17S 2271   5.681   2.567  14.582  1.4099  1.2614  0.5772
   18DOPE  C218 2272   5.557   2.619  14.398 -0.0370 -0.4084 -0.0388
   18DOPE  H18R 2273   5.516   2.711  14.352 -1.0277 -1.5298 -1.4815
   18DOPE  H18S 2274   5.475   2.550  14.427 -0.8587  1.3094  1.9541
   18DOPE  H18T 2275   5.623   2.575  14.320  1.0187  1.3933 -0.2236
   18DOPE   C33 2276   5.623   2.707  15.909  0.0092  0.4430  0.5005
   18DOPE   H3X 2277   5.544   2.747  15.977 -1.9412  0.4350 -1.6358
   18DOPE   H3Y 2278   5.625   2.597  15.925 -2.1722  0.1335 -0.8549
   18DOPE   C34 2279   5.579   2.733  15.760  0.7402 -0.4033 -0.3648
   18DOPE   H4X 2280   5.470   2.717  15.756  0.3027  1.6243  1.4632
   18DOPE   H4Y 2281   5.604   2.839  15.740  1.1052 -0.8347 -2.4323
   18DOPE   C35 2282   5.648   2.648  15.655  0.1527  0.2607 -0.5557
   18DOPE   H5X 2283   5.656   2.541  15.682 -0.1257 -0.3648 -2.7005
   18DOPE   H5Y 2284   5.753   2.678  15.638  0.8199 -1.2471  0.6835
   18DOPE   C36 2285   5.564   2.641  15.521 -0.2004 -0.0736 -0.3814
   18DOPE   H6X 2286   5.530   2.747  15.509 -1.0690 -0.2489  0.3958
   18DOPE   H6Y 2287   5.480   2.571  15.545  0.3295 -0.5158  0.2123
   18DOPE   C37 2288   5.645   2.604  15.393 -0.0870 -0.3185 -0.1949
   18DOPE   H7X 2289   5.718   2.685  15.372 -0.6012  0.2455  0.1682
   18DOPE   H7Y 2290   5.706   2.513  15.414 -1.0241 -0.9373 -0.1199
   18DOPE   C38 2291   5.552   2.566  15.275 -0.3255  0.0923 -0.6795
   18DOPE   H8X 2292   5.476   2.492  15.305 -0.2449  0.1468 -0.3227
   18DOPE   H8Y 2293   5.618   2.521  15.199  0.6030  1.1393 -0.5305
   18DOPE   C39 2294   5.477   2.691  15.231 -0.1358 -0.0319  0.0701
   18DOPE   H9X 2295   5.387   2.712  15.291 -0.0414  1.5837 -0.2931
   18DOPE  C310 2296   5.500   2.753  15.121 -0.8997 -0.2921 -0.1471
   18DOPE  H10X 2297   5.433   2.834  15.092 -1.2129 -1.0728 -1.7559
   18DOPE  C311 2298   5.621   2.735  15.021  0.3028  0.1627 -0.1656
   18DOPE  H11X 2299   5.663   2.832  14.986  0.5536  0.3003  0.5043
   18DOPE  H11Y 2300   5.705   2.669  15.051  0.8269  1.7058  1.9898
   18DOPE  C312 2301   5.571   2.666  14.886  0.8443 -1.0381 -0.1654
   18DOPE  H12X 2302   5.644   2.684  14.804  0.2732 -2.1290 -0.9340
   18DOPE  H12Y 2303   5.480   2.726  14.864  2.0230  0.9736  0.1847
   18DOPE  C313 2304   5.542   2.518  14.914  0.7786 -0.1891  0.6083
   18DOPE  H13X 2305   5.636   2.461  14.928  0.4116 -1.0105 -0.1342
   18DOPE  H13Y 2306   5.478   2.510  15.004  1.0742 -0.0612  0.8282
   18DOPE  C314 2307   5.471   2.443  14.800  0.1083  0.3418  0.2157
   18DOPE  H14X 2308   5.436   2.351  14.850 -0.9711  0.3836 -0.4141
   18DOPE  H14Y 2309   5.538   2.418  14.715 -1.0294 -1.4620 -0.2038
   18DOPE  C315 2310   5.346   2.516  14.752  0.2734 -0.0716  0.0355
   18DOPE  H15X 2311   5.377   2.608  14.698  2.3384  0.0140  1.2587
   18DOPE  H15Y 2312   5.281   2.548  14.836  0.9420 -1.2534  1.0463
   18DOPE  C316 2313   5.268   2.416  14.666  0.4379  0.7535 -0.2778
   18DOPE  H16X 2314   5.233   2.337  14.735 -0.1532 -0.4136 -1.8499
   18DOPE  H16Y 2315   5.342   2.358  14.608 -0.3015 -0.2458 -0.2428
   18DOPE  C317 2316   5.160   2.461  14.582  0.8295  0.0157  0.7210
   18DOPE  H17X 2317   5.082   2.511  14.643  0.8102  2.0985 -0.9230
   18DOPE  H17Y 2318   5.204   2.541  14.519  0.6537 -1.7266 -1.7618
   18DOPE  C318 2319   5.109   2.359  14.480 -0.3323  0.2290  0.2734
   18DOPE  H18X 2320   5.174   2.337  14.392  0.2128 -2.1293  1.1874
   18DOPE  H18Y 2321   5.092   2.262  14.532  1.0665 -0.2088 -0.0224
   18DOPE  H18Z 2322   5.012   2.400  14.444  0.4926  1.0780 -1.0835
   19DOPE     N 2323   6.023   3.602  16.847  0.0548  0.0780  0.3166
   19DOPE   HN1 2324   5.939   3.578  16.791  0.9754  0.4519 -1.2874
   19DOPE   HN2 2325   6.014   3.557  16.941 -1.4026 -0.9572 -0.2893
   19DOPE   HN3 2326   6.002   3.702  16.868  0.1752  0.8684 -2.7958
   19DOPE   C12 2327   6.153   3.596  16.773  0.2848  0.4890  0.6901
   19DOPE  H12A 2328   6.164   3.486  16.756 -0.5649  0.5782 -0.6020
   19DOPE  H12B 2329   6.235   3.637  16.834  0.4195  0.5224  0.4884
   19DOPE   C11 2330   6.136   3.676  16.640 -0.7939  0.4263  0.3374
   19DOPE  H11A 2331   6.043   3.653  16.583 -0.6479  0.1838  0.1947
   19DOPE  H11B 2332   6.217   3.643  16.572 -1.6054  0.7546 -0.8218
   19DOPE     P 2333   6.247   3.913  16.628 -0.2609 -0.4074  0.0522
   19DOPE   O13 2334   6.381   3.867  16.677 -0.0615  0.8461 -0.8783
   19DOPE   O14 2335   6.212   4.055  16.653  0.3788  0.3450  0.8784
   19DOPE   O11 2336   6.234   3.883  16.474  0.6401 -0.0379  0.4061
   19DOPE   O12 2337   6.134   3.814  16.674  0.5428 -0.2762  0.0223
   19DOPE    C1 2338   6.126   3.940  16.401  0.2260  0.1380  0.1144
   19DOPE    HA 2339   6.164   4.038  16.365 -0.7940  1.0326  1.3695
   19DOPE    HB 2340   6.035   3.971  16.457 -1.2088 -1.8906 -0.9959
   19DOPE    C2 2341   6.069   3.848  16.285  0.0182 -0.7311 -0.2709
   19DOPE    HS 2342   6.025   3.752  16.319 -0.3552  0.1611  1.9549
   19DOPE   O21 2343   6.170   3.840  16.184  0.1869  0.3562 -0.1790
   19DOPE   C21 2344   6.169   3.728  16.109 -0.1062  0.2680 -0.1553
   19DOPE   O22 2345   6.091   3.637  16.138 -0.5643 -0.2937 -0.5958
   19DOPE   C22 2346   6.267   3.741  15.996  0.4095 -0.0670 -0.7664
   19DOPE   H2R 2347   6.369   3.731  16.038 -0.2452 -1.3923  0.6201
   19DOPE   H2S 2348   6.262   3.841  15.949  0.7661  0.1152 -0.4236
   19DOPE    C3 2349   5.957   3.936  16.229  0.4909  0.7807  0.4867
   19DOPE    HX 2350   5.988   4.036  16.192  0.0939  0.0701 -1.9823
   19DOPE    HY 2351   5.890   3.958  16.314  2.4936 -2.5728  3.2023
   19DOPE   O31 2352   5.884   3.872  16.114 -0.6388  0.0883  0.0430
   19DOPE   C31 2353   5.792   3.783  16.139  0.5468  0.7706 -0.6044
   19DOPE   O32 2354   5.760   3.740  16.255  0.3858 -0.1114 -0.4966
   19DOPE   C32 2355   5.722   3.743  16.009 -0.5889 -0.1242  0.2565
   19DOPE   H2X 2356   5.677   3.644  16.030  1.3554 -1.3862 -1.1901
   19DOPE   H2Y 2357   5.653   3.827  15.985 -0.2512 -0.1224 -0.7369
   19DOPE   C23 2358   6.265   3.619  15.901  0.2121 -0.5318  0.3341
   19DOPE   H3R 2359   6.164   3.597  15.859 -0.2783  0.4884  0.9279
   19DOPE   H3S 2360   6.296   3.530  15.960  3.3748  0.2314  0.0038
   19DOPE   C24 2361   6.365   3.640  15.786  0.0777 -0.5548 -1.0876
   19DOPE   H4R 2362   6.462   3.663  15.835  0.1654 -0.5308 -1.2703
   19DOPE   H4S 2363   6.326   3.728  15.731 -1.3244 -1.3208 -1.3650
   19DOPE   C25 2364   6.387   3.519  15.700  0.3273  0.9126 -0.2803
   19DOPE   H5R 2365   6.426   3.429  15.753 -3.5775 -0.9188 -0.1387
   19DOPE   H5S 2366   6.469   3.543  15.630  1.8220  0.5535  1.2779
   19DOPE   C26 2367   6.254   3.477  15.633  0.1925  0.6533  0.5841
   19DOPE   H6R 2368   6.212   3.566  15.582 -0.6136 -0.1913 -0.2642
   19DOPE   H6S 2369   6.176   3.436  15.700  0.3577 -0.8469 -0.0988
   19DOPE   C27 2370   6.276   3.371  15.525  0.3185 -0.0322  0.7897
   19DOPE   H7R 2371   6.174   3.328  15.515 -0.3453  1.6953 -0.4169
   19DOPE   H7S 2372   6.346   3.290  15.554  1.1432 -0.3687 -1.8661
   19DOPE   C28 2373   6.322   3.445  15.391 -0.3712  0.0143 -0.4769
   19DOPE   H8R 2374   6.359   3.363  15.326 -1.6612  0.2243 -1.5209
   19DOPE   H8S 2375   6.406   3.512  15.415 -0.0339  1.1637 -4.1764
   19DOPE   C29 2376   6.205   3.513  15.325  0.5497 -0.1043 -0.4656
   19DOPE   H9R 2377   6.129   3.451  15.275 -1.2798  1.5238  0.1724
   19DOPE  C210 2378   6.178   3.641  15.313  0.3614 -0.0967 -0.7182
   19DOPE  H10R 2379   6.080   3.675  15.278 -0.5105  0.5129  2.0688
   19DOPE  C211 2380   6.263   3.752  15.365 -0.0991  0.1271 -0.1978
   19DOPE  H11R 2381   6.342   3.803  15.305 -0.3044 -1.1140 -1.5681
   19DOPE  H11S 2382   6.325   3.716  15.449 -0.2777 -0.1853 -0.2009
   19DOPE  C212 2383   6.175   3.869  15.416  0.3341 -0.9482  0.8744
   19DOPE  H12R 2384   6.114   3.837  15.503  0.3080  0.2079  1.3023
   19DOPE  H12S 2385   6.101   3.888  15.335 -0.1891  0.2183  1.5943
   19DOPE  C213 2386   6.251   3.996  15.464  1.5307 -0.1887  0.9541
   19DOPE  H13R 2387   6.311   4.038  15.380 -1.5893  3.0150  0.0847
   19DOPE  H13S 2388   6.309   3.969  15.555 -1.1335  0.0377  2.8123
   19DOPE  C214 2389   6.158   4.110  15.509 -0.2671 -0.3805  0.4141
   19DOPE  H14R 2390   6.066   4.066  15.555  0.5433 -0.2434  2.2644
   19DOPE  H14S 2391   6.117   4.166  15.423 -1.0592 -2.3629 -0.5547
   19DOPE  C215 2392   6.216   4.207  15.607 -0.2850  0.2275 -0.6297
   19DOPE  H15R 2393   6.192   4.314  15.588  0.7487  0.2801 -1.7585
   19DOPE  H15S 2394   6.327   4.204  15.604 -0.3258 -1.3574 -1.2467
   19DOPE  C216 2395   6.177   4.164  15.747  0.3789 -0.1904  0.3714
   19DOPE  H16R 2396   6.196   4.058  15.775 -0.7996 -0.3737  0.5234
   19DOPE  H16S 2397   6.067   4.175  15.742  0.3716 -0.2926  0.3067
   19DOPE  C217 2398   6.236   4.249  15.859  0.7927 -0.8949 -0.6038
   19DOPE  H17R 2399   6.227   4.356  15.831 -1.4898 -1.0665 -0.6690
   19DOPE  H17S 2400   6.345   4.228  15.868  1.3705  2.3043  1.5708
   19DOPE  C218 2401   6.179   4.229  16.004 -0.2490  0.4865  0.1190
   19DOPE  H18R 2402   6.192   4.125  16.039  0.5039 -0.8197 -3.6092
   19DOPE  H18S 2403   6.070   4.253  16.004 -0.1469  0.9963 -0.5607
   19DOPE  H18T 2404   6.236   4.290  16.077  0.0418  0.7417 -0.3203
   19DOPE   C33 2405   5.827   3.726  15.902  0.4808 -0.3774  0.5052
   19DOPE   H3X 2406   5.911   3.660  15.933  1.2219 -0.2807 -1.1622
   19DOPE   H3Y 2407   5.867   3.828  15.880  0.2250 -1.0425 -3.9627
   19DOPE   C34 2408   5.771   3.686  15.768  0.2214 -0.1132  0.0683
   19DOPE   H4X 2409   5.743   3.579  15.783  1.9131 -1.1746 -3.3060
   19DOPE   H4Y 2410   5.686   3.751  15.739  0.1073 -0.8778 -1.4331
   19DOPE   C35 2411   5.866   3.692  15.651 -0.0455 -0.1957 -0.0883
   19DOPE   H5X 2412   5.951   3.621  15.653  2.8099  2.9733  0.8676
   19DOPE   H5Y 2413   5.896   3.798  15.665 -0.1317 -0.2029  0.1559
   19DOPE   C36 2414   5.803   3.680  15.516 -0.1422  0.6140 -0.0119
   19DOPE   H6X 2415   5.885   3.666  15.442 -1.4552  0.6273 -1.5212
   19DOPE   H6Y 2416   5.744   3.771  15.490 -2.9511 -1.2146 -0.3949
   19DOPE   C37 2417   5.708   3.553  15.510  0.3894 -0.5111  0.1674
   19DOPE   H7X 2418   5.761   3.462  15.545 -0.2455 -2.5349 -3.6471
   19DOPE   H7Y 2419   5.619   3.569  15.574  0.8020 -1.1263  0.9022
   19DOPE   C38 2420   5.657   3.545  15.363 -0.1996  0.6918 -0.4171
   19DOPE   H8X 2421   5.745   3.534  15.297  0.4689  0.9363  0.4149
   19DOPE   H8Y 2422   5.599   3.636  15.338  0.3111  1.4200  0.9342
   19DOPE   C39 2423   5.577   3.417  15.364 -0.6432 -0.1135 -0.2240
   19DOPE   H9X 2424   5.636   3.325  15.351 -0.5218 -0.3161  1.4964
   19DOPE  C310 2425   5.445   3.404  15.351 -0.3286 -0.7363 -0.4192
   19DOPE  H10X 2426   5.404   3.302  15.346  0.7847 -1.3722  2.1508
   19DOPE  C311 2427   5.331   3.509  15.345 -0.0189  0.7177 -1.0613
   19DOPE  H11X 2428   5.255   3.482  15.422 -0.1174 -0.9211 -1.7057
   19DOPE  H11Y 2429   5.372   3.607  15.379 -0.7595  0.5690  0.3625
   19DOPE  C312 2430   5.263   3.516  15.211  0.7146  0.1693  0.1370
   19DOPE  H12X 2431   5.181   3.590  15.224  1.7680  1.2632  0.7948
   19DOPE  H12Y 2432   5.215   3.420  15.182  1.8603  0.0554 -1.4766
   19DOPE  C313 2433   5.358   3.562  15.097  0.2785 -0.3517 -0.2919
   19DOPE  H13X 2434   5.424   3.643  15.135  0.5841 -1.8519  2.6457
   19DOPE  H13Y 2435   5.424   3.475  15.075 -1.9059 -2.3355  0.5658
   19DOPE  C314 2436   5.284   3.629  14.980  0.0091 -0.6098 -0.4651
   19DOPE  H14X 2437   5.215   3.710  15.013  1.0321  1.1660 -2.4393
   19DOPE  H14Y 2438   5.221   3.550  14.935  1.4095 -1.6632 -0.6686
   19DOPE  C315 2439   5.375   3.692  14.872  0.8471  0.8014 -0.6140
   19DOPE  H15X 2440   5.430   3.782  14.906 -0.3232  1.0867  0.5860
   19DOPE  H15Y 2441   5.320   3.718  14.779  1.0828  0.3343 -0.8882
   19DOPE  C316 2442   5.482   3.590  14.828 -0.1787 -0.0481  0.6009
   19DOPE  H16X 2443   5.422   3.498  14.810  1.7199 -1.2241  0.0026
   19DOPE  H16Y 2444   5.557   3.565  14.906 -0.3430  1.4274  1.2544
   19DOPE  C317 2445   5.559   3.646  14.711 -0.0366  0.1147  0.5451
   19DOPE  H17X 2446   5.487   3.674  14.631  1.2662  0.8897 -0.3994
   19DOPE  H17Y 2447   5.614   3.737  14.742  1.5326  0.0624 -1.8526
   19DOPE  C318 2448   5.669   3.548  14.666 -0.2988  0.1321  0.4604
   19DOPE  H18X 2449   5.759   3.552  14.731  1.4058  2.5409 -1.8277
   19DOPE  H18Y 2450   5.623   3.448  14.679  0.8866 -0.2883  1.6688
   19DOPE  H18Z 2451   5.708   3.566  14.563  2.5975  0.9468  1.6081
   20DOPE     N 2452   3.582   6.151  17.211 -0.3254 -0.2160  0.3620
   20DOPE   HN1 2453   3.603   6.246  17.247  0.5100  0.0899 -0.8475
   20DOPE   HN2 2454   3.496   6.120  17.260 -1.1534 -1.8355 -1.9467
   20DOPE   HN3 2455   3.645   6.074  17.241 -1.9089 -1.4394  0.6648
   20DOPE   C12 2456   3.567   6.163  17.068  0.3659 -0.1558  0.4812
   20DOPE  H12A 2457   3.666   6.162  17.017  0.3857 -0.5004  0.5226
   20DOPE  H12B 2458   3.514   6.258  17.045  0.9365 -0.3098 -1.7288
   20DOPE   C11 2459   3.478   6.051  17.006  0.0696  0.9488 -0.0040
   20DOPE  H11A 2460   3.470   6.072  16.897  1.8718  1.1196 -0.1426
   20DOPE  H11B 2461   3.383   6.056  17.063 -1.5362 -0.5142 -2.3768
   20DOPE     P 2462   3.671   5.883  16.929 -0.0424 -0.1008  0.5491
   20DOPE   O13 2463   3.723   5.747  16.960 -0.4031 -0.5599 -0.2251
   20DOPE   O14 2464   3.768   5.990  16.911 -0.9419 -0.5934 -0.1772
   20DOPE   O11 2465   3.597   5.879  16.794 -0.3681  0.3960 -0.0048
   20DOPE   O12 2466   3.544   5.925  17.018  0.6133  0.6623 -0.1253
   20DOPE    C1 2467   3.511   5.779  16.738 -0.4738 -0.9028 -0.3161
   20DOPE    HA 2468   3.409   5.796  16.778 -0.0888 -0.3436  0.4730
   20DOPE    HB 2469   3.541   5.676  16.767  2.8694  0.2193  0.6727
   20DOPE    C2 2470   3.522   5.781  16.580  0.2688 -0.3560 -0.0538
   20DOPE    HS 2471   3.624   5.767  16.538  0.1826 -1.6978  0.1440
   20DOPE   O21 2472   3.490   5.921  16.541  0.2303  0.2658 -0.6985
   20DOPE   C21 2473   3.374   5.968  16.569 -0.7933  0.2354  0.9552
   20DOPE   O22 2474   3.272   5.913  16.604  0.3970  0.4757 -0.2626
   20DOPE   C22 2475   3.388   6.116  16.541 -0.1537  0.1736 -0.0672
   20DOPE   H2R 2476   3.493   6.147  16.519  0.0340 -0.2040  0.2822
   20DOPE   H2S 2477   3.366   6.169  16.636  2.2941  1.4160 -0.0858
   20DOPE    C3 2478   3.428   5.668  16.526  0.5281  0.5087 -0.3848
   20DOPE    HX 2479   3.324   5.694  16.554 -1.3239 -2.0799 -3.9065
   20DOPE    HY 2480   3.453   5.576  16.583  3.0772  2.1408  1.3059
   20DOPE   O31 2481   3.436   5.647  16.383 -0.6871 -0.0289  0.0189
   20DOPE   C31 2482   3.548   5.588  16.344 -0.4143 -0.2023  0.0927
   20DOPE   O32 2483   3.646   5.560  16.412  0.0295 -0.0772  0.1746
   20DOPE   C32 2484   3.553   5.579  16.191  0.2333  0.1472  0.1671
   20DOPE   H2X 2485   3.645   5.638  16.168 -0.2356  1.2857  1.0783
   20DOPE   H2Y 2486   3.559   5.470  16.171 -0.8311  0.5231 -2.6403
   20DOPE   C23 2487   3.291   6.166  16.435  0.3168  0.6638 -0.2043
   20DOPE   H3R 2488   3.280   6.277  16.432  0.8549  0.7023 -1.3173
   20DOPE   H3S 2489   3.188   6.135  16.462 -0.2940  2.2334 -0.6349
   20DOPE   C24 2490   3.332   6.106  16.302 -0.1559  0.5837  0.1158
   20DOPE   H4R 2491   3.345   5.997  16.317  1.9308  0.8621  0.5891
   20DOPE   H4S 2492   3.426   6.154  16.266 -1.0777  0.5115 -2.6301
   20DOPE   C25 2493   3.245   6.128  16.187  0.1502  0.6248 -0.5651
   20DOPE   H5R 2494   3.264   6.230  16.147  1.9466  0.9505  0.9576
   20DOPE   H5S 2495   3.141   6.145  16.220  0.5316  1.2697  0.3224
   20DOPE   C26 2496   3.246   6.008  16.093 -0.2601 -0.8638 -0.1716
   20DOPE   H6R 2497   3.203   5.924  16.151 -0.2170 -0.8360 -0.0987
   20DOPE   H6S 2498   3.353   5.984  16.071  0.0507  1.2646 -1.2342
   20DOPE   C27 2499   3.170   6.015  15.954  0.6534 -0.2628 -0.2213
   20DOPE   H7R 2500   3.070   6.048  15.988  0.9587  1.7043 -1.0492
   20DOPE   H7S 2501   3.162   5.919  15.899 -2.4585  0.0470 -0.4598
   20DOPE   C28 2502   3.223   6.123  15.860  0.5513 -0.5691  0.9684
   20DOPE   H8R 2503   3.305   6.076  15.801  0.6651  0.0750  0.6010
   20DOPE   H8S 2504   3.277   6.204  15.915 -1.3901  1.3987  0.1341
   20DOPE   C29 2505   3.127   6.179  15.755  0.0816 -0.3483 -0.0639
   20DOPE   H9R 2506   3.083   6.276  15.786 -1.1560 -1.2232  1.0229
   20DOPE  C210 2507   3.105   6.144  15.629 -0.1901  0.0722  0.8021
   20DOPE  H10R 2508   3.030   6.195  15.567 -0.5202  0.1017  1.2186
   20DOPE  C211 2509   3.158   6.010  15.570  0.3471  0.1581  0.9126
   20DOPE  H11R 2510   3.078   5.935  15.556  0.7070 -0.2706  1.1180
   20DOPE  H11S 2511   3.230   5.957  15.636 -2.7978 -0.5179  4.0876
   20DOPE  C212 2512   3.232   6.041  15.441  0.3604 -0.0379 -0.3760
   20DOPE  H12R 2513   3.271   5.949  15.392  0.4746 -0.5605  0.6690
   20DOPE  H12S 2514   3.321   6.106  15.459  0.8103 -1.0534  1.2836
   20DOPE  C213 2515   3.151   6.113  15.334  0.6989 -0.4794  0.3061
   20DOPE  H13R 2516   3.143   6.221  15.359 -0.8030 -1.0045  2.2737
   20DOPE  H13S 2517   3.047   6.079  15.317 -0.1818  2.0402  0.1712
   20DOPE  C214 2518   3.223   6.110  15.201  0.5586  0.2869 -0.1066
   20DOPE  H14R 2519   3.237   6.005  15.167 -1.0366 -0.3012  0.9420
   20DOPE  H14S 2520   3.320   6.155  15.230  1.3240 -1.7546  0.6790
   20DOPE  C215 2521   3.157   6.195  15.094 -0.1447 -0.0436 -0.2408
   20DOPE  H15R 2522   3.151   6.301  15.126 -3.2768  0.3554 -1.7938
   20DOPE  H15S 2523   3.055   6.155  15.071  0.2963 -0.5248 -1.4879
   20DOPE  C216 2524   3.233   6.189  14.959 -0.7553  0.1106 -0.3848
   20DOPE  H16R 2525   3.225   6.087  14.917  0.0060 -1.0148  2.0313
   20DOPE  H16S 2526   3.341   6.210  14.973  0.3023 -3.1421 -2.6542
   20DOPE  C217 2527   3.167   6.283  14.858  0.0670  0.2784  1.0004
   20DOPE  H17R 2528   3.230   6.285  14.767  0.4176  0.4152  1.2425
   20DOPE  H17S 2529   3.174   6.386  14.900  2.0397  1.1070 -1.1790
   20DOPE  C218 2530   3.027   6.252  14.805  0.9412  0.7951 -0.4062
   20DOPE  H18R 2531   2.955   6.272  14.887  0.5179  0.8006 -0.7755
   20DOPE  H18S 2532   3.015   6.146  14.774  1.8813  0.1175  1.4129
   20DOPE  H18T 2533   2.995   6.317  14.720 -1.7709  0.0172 -0.0735
   20DOPE   C33 2534   3.434   5.643  16.120  0.1826 -0.0061 -0.6230
   20DOPE   H3X 2535   3.414   5.748  16.151  0.0626 -0.4127  0.7432
   20DOPE   H3Y 2536   3.340   5.594  16.152 -0.1555  0.2971 -1.1371
   20DOPE   C34 2537   3.448   5.665  15.969  0.1977 -0.4456 -0.3737
   20DOPE   H4X 2538   3.471   5.569  15.918  1.2126 -0.3418 -0.1417
   20DOPE   H4Y 2539   3.356   5.712  15.929  1.4204  2.6683  0.2114
   20DOPE   C35 2540   3.544   5.772  15.937  0.2198 -0.5887  0.2364
   20DOPE   H5X 2541   3.645   5.731  15.958  0.7837 -0.0630 -1.2769
   20DOPE   H5Y 2542   3.533   5.857  16.007  1.1481  0.7105 -1.1309
   20DOPE   C36 2543   3.546   5.828  15.792  0.0804 -0.0320 -0.3896
   20DOPE   H6X 2544   3.627   5.905  15.787 -0.2686  0.3301 -0.5199
   20DOPE   H6Y 2545   3.449   5.882  15.783  0.3657  1.0719  2.1503
   20DOPE   C37 2546   3.544   5.717  15.681 -0.6075  0.0595 -0.4256
   20DOPE   H7X 2547   3.649   5.690  15.659 -0.7422 -0.8369 -0.0302
   20DOPE   H7Y 2548   3.499   5.623  15.719 -1.5992 -0.8875 -3.5920
   20DOPE   C38 2549   3.487   5.753  15.539 -0.2945  0.1845 -0.1102
   20DOPE   H8X 2550   3.378   5.764  15.553 -0.3704 -0.0783 -0.4631
   20DOPE   H8Y 2551   3.512   5.674  15.464  1.6538  0.5227  0.1368
   20DOPE   C39 2552   3.533   5.893  15.500 -0.6671 -0.0907 -0.4214
   20DOPE   H9X 2553   3.484   5.971  15.559  0.1651 -0.6491  1.0772
   20DOPE  C310 2554   3.616   5.911  15.399 -0.1933 -0.6762 -0.0646
   20DOPE  H10X 2555   3.656   6.011  15.378  1.6760 -1.6158 -1.3471
   20DOPE  C311 2556   3.686   5.810  15.311 -0.7197  0.2823  0.4491
   20DOPE  H11X 2557   3.792   5.837  15.293 -1.0721  0.9723 -0.7433
   20DOPE  H11Y 2558   3.683   5.705  15.347 -1.1284 -0.4078 -1.4533
   20DOPE  C312 2559   3.621   5.806  15.174 -0.7080 -0.3166 -0.0692
   20DOPE  H12X 2560   3.609   5.911  15.138  0.8256 -0.0052  0.2778
   20DOPE  H12Y 2561   3.524   5.752  15.175  0.0947 -1.8304  1.1575
   20DOPE  C313 2562   3.709   5.752  15.059  0.0727  0.4462  0.4487
   20DOPE  H13X 2563   3.809   5.798  15.075 -0.1506  0.0799  3.3832
   20DOPE  H13Y 2564   3.719   5.641  15.054 -1.7941  0.2783 -0.6297
   20DOPE  C314 2565   3.660   5.809  14.919  0.5175 -0.2896 -0.1740
   20DOPE  H14X 2566   3.697   5.913  14.906 -1.7666  0.6542  0.4556
   20DOPE  H14Y 2567   3.549   5.809  14.918  0.5217 -0.1200 -0.8839
   20DOPE  C315 2568   3.691   5.720  14.807  0.9063  0.2385  0.2821
   20DOPE  H15X 2569   3.631   5.626  14.806 -1.0364  1.4149  0.3709
   20DOPE  H15Y 2570   3.799   5.698  14.812  1.0266  0.9608  1.2118
   20DOPE  C316 2571   3.672   5.793  14.676 -0.0963 -0.3345  0.2974
   20DOPE  H16X 2572   3.749   5.871  14.663 -0.7443  0.1432 -0.8363
   20DOPE  H16Y 2573   3.579   5.854  14.681 -1.3832 -2.2821  1.4262
   20DOPE  C317 2574   3.683   5.700  14.557  0.4774  0.0209  0.2927
   20DOPE  H17X 2575   3.786   5.664  14.537  0.0476  0.1240 -2.3612
   20DOPE  H17Y 2576   3.617   5.613  14.576 -2.0189  1.1969 -2.3068
   20DOPE  C318 2577   3.644   5.757  14.416  0.4664 -0.3739  0.7295
   20DOPE  H18X 2578   3.547   5.812  14.410  0.5925 -0.1968  0.3182
   20DOPE  H18Y 2579   3.726   5.820  14.377  0.3312 -1.2064 -0.9510
   20DOPE  H18Z 2580   3.620   5.673  14.349  2.0182 -1.2182  1.1823
   21DOPE     N 2581   1.651   5.971  17.139  0.1685  0.9762  0.6527
   21DOPE   HN1 2582   1.606   5.923  17.058 -2.2979  0.1891  2.3801
   21DOPE   HN2 2583   1.750   5.990  17.110  0.2864  1.4059  1.3362
   21DOPE   HN3 2584   1.652   5.897  17.212  2.1599 -0.2175 -0.4686
   21DOPE   C12 2585   1.583   6.097  17.174  0.2891 -0.0629 -1.1127
   21DOPE  H12A 2586   1.476   6.067  17.174  0.7512 -1.7972 -0.8090
   21DOPE  H12B 2587   1.618   6.160  17.089  1.3169  1.1462  0.1520
   21DOPE   C11 2588   1.633   6.151  17.309 -0.0188  0.3223 -0.2136
   21DOPE  H11A 2589   1.620   6.067  17.380 -0.6840  1.3230  0.8921
   21DOPE  H11B 2590   1.562   6.230  17.343  1.2233  2.3080 -1.9318
   21DOPE     P 2591   1.858   6.258  17.408 -0.3249  0.0356  0.1481
   21DOPE   O13 2592   2.005   6.218  17.400  0.3399  0.1515 -0.2848
   21DOPE   O14 2593   1.784   6.239  17.535 -0.4483 -0.4784  0.4029
   21DOPE   O11 2594   1.850   6.411  17.369  0.8862  0.1982  0.1006
   21DOPE   O12 2595   1.772   6.185  17.302  0.3102  0.3762 -0.2220
   21DOPE    C1 2596   1.762   6.458  17.269 -0.9476  0.2165 -0.3811
   21DOPE    HA 2597   1.774   6.568  17.282  2.2108 -0.3147  2.9513
   21DOPE    HB 2598   1.659   6.420  17.282 -1.0422  0.8072  0.7058
   21DOPE    C2 2599   1.808   6.424  17.119 -0.0455 -0.3323 -0.1805
   21DOPE    HS 2600   1.777   6.319  17.101 -0.7505 -0.1729  0.0614
   21DOPE   O21 2601   1.947   6.448  17.103 -0.0272  1.0931 -0.6176
   21DOPE   C21 2602   2.010   6.367  17.019  1.0440  0.9124  0.4820
   21DOPE   O22 2603   1.963   6.266  16.971  0.1613  0.1742  0.5219
   21DOPE   C22 2604   2.155   6.420  16.992  0.7403 -0.0137 -0.7411
   21DOPE   H2R 2605   2.179   6.381  16.890 -1.9263  0.0643 -1.4762
   21DOPE   H2S 2606   2.220   6.363  17.062 -0.1026 -0.5518 -0.3848
   21DOPE    C3 2607   1.719   6.503  17.019  0.4800  0.0144  0.3364
   21DOPE    HX 2608   1.718   6.613  17.033  5.1650  0.7473 -2.6969
   21DOPE    HY 2609   1.614   6.468  17.034  0.3331 -0.7699 -2.0260
   21DOPE   O31 2610   1.759   6.474  16.883 -0.1163 -0.4342  0.6221
   21DOPE   C31 2611   1.710   6.364  16.823  0.6336  0.0972  0.0805
   21DOPE   O32 2612   1.624   6.293  16.873 -0.1332  0.5417 -0.5754
   21DOPE   C32 2613   1.774   6.340  16.687  0.2309  0.3884 -0.0211
   21DOPE   H2X 2614   1.880   6.309  16.695  0.0994  0.3686  2.8525
   21DOPE   H2Y 2615   1.710   6.266  16.634 -0.4762  0.7536  0.3083
   21DOPE   C23 2616   2.185   6.570  16.985 -0.0402 -0.4479  0.0020
   21DOPE   H3R 2617   2.289   6.593  16.954  0.4230 -1.4390  0.7560
   21DOPE   H3S 2618   2.165   6.610  17.087  1.8249  0.9331 -0.1115
   21DOPE   C24 2619   2.090   6.661  16.908  0.1352  0.5313 -0.4260
   21DOPE   H4R 2620   2.105   6.771  16.916  0.3298  0.5130 -0.5421
   21DOPE   H4S 2621   1.991   6.647  16.957  0.5976 -1.1402  0.0981
   21DOPE   C25 2622   2.068   6.626  16.765  0.4438  0.3586  1.0042
   21DOPE   H5R 2623   1.993   6.696  16.723 -0.0184 -1.1041 -0.7479
   21DOPE   H5S 2624   2.031   6.522  16.752 -2.8245  1.4281  0.7378
   21DOPE   C26 2625   2.197   6.639  16.687 -0.1808 -0.0667  0.0610
   21DOPE   H6R 2626   2.277   6.571  16.723  0.0264  1.2504  2.2424
   21DOPE   H6S 2627   2.233   6.741  16.715 -0.8485 -0.0134  0.7340
   21DOPE   C27 2628   2.174   6.645  16.536  0.5122  0.2523 -0.2383
   21DOPE   H7R 2629   2.104   6.723  16.499  0.5881  0.8306  0.8119
   21DOPE   H7S 2630   2.117   6.550  16.521 -1.3233  1.1744  0.6237
   21DOPE   C28 2631   2.298   6.647  16.446  0.5771 -0.1443  0.0208
   21DOPE   H8R 2632   2.375   6.573  16.477  1.6095  0.6700 -0.5680
   21DOPE   H8S 2633   2.341   6.748  16.459  0.4349 -0.0082 -0.5485
   21DOPE   C29 2634   2.269   6.623  16.305 -0.7238  0.5715  0.7266
   21DOPE   H9R 2635   2.208   6.533  16.285  1.2802 -0.1997 -2.7376
   21DOPE  C210 2636   2.289   6.700  16.196  0.4555  0.1140  0.0701
   21DOPE  H10R 2637   2.272   6.644  16.103  1.7473  0.3680 -0.3411
   21DOPE  C211 2638   2.360   6.832  16.186 -0.0831 -1.1511 -0.1204
   21DOPE  H11R 2639   2.470   6.816  16.193  0.1316  0.1571 -0.1966
   21DOPE  H11S 2640   2.330   6.905  16.264  0.2392  0.1274 -1.1500
   21DOPE  C212 2641   2.314   6.910  16.057  0.1635  0.2972 -0.2527
   21DOPE  H12R 2642   2.376   7.002  16.050  0.0631  0.4395  0.7067
   21DOPE  H12S 2643   2.203   6.919  16.061 -0.2849 -2.3685 -2.8863
   21DOPE  C213 2644   2.328   6.830  15.920 -0.5769 -0.0065 -0.4818
   21DOPE  H13R 2645   2.258   6.744  15.920  2.3075 -2.5772 -2.1938
   21DOPE  H13S 2646   2.433   6.792  15.913 -0.5591  0.0334 -0.4302
   21DOPE  C214 2647   2.297   6.917  15.800  0.4341 -0.7099  0.3272
   21DOPE  H14R 2648   2.379   6.991  15.785  1.2884 -1.5310  0.8478
   21DOPE  H14S 2649   2.196   6.959  15.821 -0.6696 -1.6888 -2.5118
   21DOPE  C215 2650   2.304   6.847  15.660 -0.2470 -0.2697 -0.8530
   21DOPE  H15R 2651   2.238   6.758  15.662  0.4385 -0.7790 -0.9814
   21DOPE  H15S 2652   2.408   6.816  15.641  0.2831  0.2247  1.0068
   21DOPE  C216 2653   2.255   6.941  15.545  0.6138  0.8778 -0.0380
   21DOPE  H16R 2654   2.319   7.030  15.566 -0.6689  1.0458  3.9839
   21DOPE  H16S 2655   2.152   6.980  15.558  0.0840 -0.4387 -0.1759
   21DOPE  C217 2656   2.281   6.873  15.409 -0.0993  0.6744  0.2582
   21DOPE  H17R 2657   2.214   6.790  15.380 -0.8423  0.9799  1.0830
   21DOPE  H17S 2658   2.390   6.849  15.414 -0.5419 -1.1905  3.4160
   21DOPE  C218 2659   2.253   6.974  15.301  0.3025  1.0956 -0.0162
   21DOPE  H18R 2660   2.281   6.936  15.200 -0.4288  1.6495 -0.4384
   21DOPE  H18S 2661   2.310   7.068  15.322  2.2124 -0.3438  1.5947
   21DOPE  H18T 2662   2.145   6.995  15.311 -0.1725 -1.6249  1.4525
   21DOPE   C33 2663   1.766   6.464  16.591  0.0652 -0.1415 -0.3333
   21DOPE   H3X 2664   1.844   6.540  16.613 -1.0979  0.9177  0.2709
   21DOPE   H3Y 2665   1.667   6.513  16.604  1.0399  2.0952 -0.9090
   21DOPE   C34 2666   1.782   6.435  16.442  0.5672  0.1479  0.2428
   21DOPE   H4X 2667   1.874   6.373  16.435 -0.2352 -0.9687 -1.5035
   21DOPE   H4Y 2668   1.704   6.376  16.389  0.3841  1.5775 -1.1506
   21DOPE   C35 2669   1.796   6.565  16.353 -0.7566  0.1496 -0.3580
   21DOPE   H5X 2670   1.877   6.623  16.401  2.3750 -3.0944 -1.2403
   21DOPE   H5Y 2671   1.701   6.621  16.347  0.1118  1.7042  0.0404
   21DOPE   C36 2672   1.861   6.521  16.215 -0.2256 -0.0379 -0.2757
   21DOPE   H6X 2673   1.783   6.463  16.161  0.0889  1.7063 -2.7692
   21DOPE   H6Y 2674   1.953   6.465  16.244 -1.9071 -2.3462  0.8625
   21DOPE   C37 2675   1.894   6.640  16.123 -0.1509 -0.5010 -0.1314
   21DOPE   H7X 2676   1.808   6.709  16.133  0.7356  0.6177 -0.1295
   21DOPE   H7Y 2677   1.985   6.684  16.169 -0.9758 -0.1024  1.1663
   21DOPE   C38 2678   1.924   6.605  15.970 -0.1423  0.6030 -0.2633
   21DOPE   H8X 2679   1.827   6.579  15.923  0.5921  0.8047 -1.9753
   21DOPE   H8Y 2680   1.997   6.521  15.964 -1.6494 -0.7841  0.1988
   21DOPE   C39 2681   1.970   6.729  15.905 -0.1813 -0.0609  0.0536
   21DOPE   H9X 2682   2.005   6.803  15.978  1.8824 -0.2207 -0.7141
   21DOPE  C310 2683   1.928   6.758  15.779 -0.5196  0.1254 -0.1616
   21DOPE  H10X 2684   1.966   6.855  15.743 -0.4213 -0.9768 -3.3286
   21DOPE  C311 2685   1.868   6.660  15.676  0.2109  0.5892 -0.6887
   21DOPE  H11X 2686   1.917   6.561  15.670 -0.3974  0.2547 -0.2578
   21DOPE  H11Y 2687   1.764   6.644  15.711  0.6561 -2.0138 -0.3429
   21DOPE  C312 2688   1.881   6.726  15.541  0.0668  0.2471  0.8943
   21DOPE  H12X 2689   1.990   6.737  15.524  0.4605 -2.6142  1.1573
   21DOPE  H12Y 2690   1.820   6.819  15.532  1.5949  1.4819  2.4954
   21DOPE  C313 2691   1.833   6.640  15.425 -0.0221 -0.1467  0.8292
   21DOPE  H13X 2692   1.899   6.552  15.407  0.1520  0.2210 -0.4459
   21DOPE  H13Y 2693   1.733   6.596  15.444 -0.6636  1.1027  0.4268
   21DOPE  C314 2694   1.837   6.712  15.291 -0.2516 -0.1182  0.0824
   21DOPE  H14X 2695   1.942   6.736  15.261 -0.6995  1.5997 -0.2068
   21DOPE  H14Y 2696   1.783   6.808  15.298  2.1778  1.2012  2.2705
   21DOPE  C315 2697   1.781   6.622  15.175 -0.8892 -0.5860  0.6699
   21DOPE  H15X 2698   1.682   6.582  15.205 -0.1577 -2.0590  1.2505
   21DOPE  H15Y 2699   1.850   6.535  15.167 -1.9466 -1.3096 -1.2620
   21DOPE  C316 2700   1.784   6.679  15.032 -0.1153 -0.5615  0.2546
   21DOPE  H16X 2701   1.861   6.759  15.032 -0.9995  0.3102  0.1554
   21DOPE  H16Y 2702   1.694   6.734  14.997  0.2860  0.4182  0.7205
   21DOPE  C317 2703   1.807   6.576  14.917  0.1125 -0.1743  0.5958
   21DOPE  H17X 2704   1.899   6.518  14.938  1.2132  0.3670 -2.2428
   21DOPE  H17Y 2705   1.730   6.495  14.912  0.8687 -1.0579  2.4383
   21DOPE  C318 2706   1.817   6.641  14.780  0.5724 -0.1034  1.0293
   21DOPE  H18X 2707   1.865   6.741  14.786 -0.0191  0.5029 -2.2896
   21DOPE  H18Y 2708   1.875   6.585  14.704  1.6682  1.8785  0.3310
   21DOPE  H18Z 2709   1.717   6.653  14.733  0.9476  2.3997  0.7755
   22DOPE     N 2710   0.273   4.168  16.145 -0.4433 -0.1729  0.2623
   22DOPE   HN1 2711   0.188   4.228  16.148  0.7284  1.6240 -1.0033
   22DOPE   HN2 2712   0.311   4.172  16.242 -1.2696 -1.4210  0.6625
   22DOPE   HN3 2713   0.341   4.215  16.082  0.2796 -1.6072 -0.0767
   22DOPE   C12 2714   0.245   4.030  16.092  0.0478  0.0720  0.1245
   22DOPE  H12A 2715   0.334   3.965  16.073  0.7307  0.8903  0.4699
   22DOPE  H12B 2716   0.196   4.037  15.992  0.1423 -1.9064 -0.0997
   22DOPE   C11 2717   0.173   3.948  16.195 -0.1816  0.8168 -0.0786
   22DOPE  H11A 2718   0.246   3.920  16.275  0.8872  2.3873 -0.4502
   22DOPE  H11B 2719   0.139   3.852  16.151 -1.0583  0.7241  0.7664
   22DOPE     P 2720  -0.047   3.944  16.334 -0.0570  0.0638 -0.2113
   22DOPE   O13 2721   0.017   3.920  16.467  0.1895 -0.3878 -0.0968
   22DOPE   O14 2722  -0.104   3.830  16.259  0.5586 -0.8620 -0.4893
   22DOPE   O11 2723  -0.165   4.050  16.349  0.2328 -0.4070 -0.2078
   22DOPE   O12 2724   0.060   4.021  16.252 -0.1113 -0.1403 -0.3943
   22DOPE    C1 2725  -0.269   4.075  16.258 -0.1450 -0.1761 -0.5505
   22DOPE    HA 2726  -0.359   4.119  16.307  0.6926 -1.4927  2.4128
   22DOPE    HB 2727  -0.301   3.971  16.235 -0.3058  0.4305 -3.4696
   22DOPE    C2 2728  -0.232   4.167  16.145  0.1828  0.0341 -0.1120
   22DOPE    HS 2729  -0.319   4.172  16.076  0.7602  0.6837 -0.8050
   22DOPE   O21 2730  -0.129   4.111  16.057 -0.0816  0.0412 -0.3044
   22DOPE   C21 2731  -0.165   3.999  15.982  0.0075 -0.2151 -0.6152
   22DOPE   O22 2732  -0.278   3.961  15.966 -0.0967 -0.2780 -0.2960
   22DOPE   C22 2733  -0.039   3.962  15.902  0.3073  0.4960  0.4442
   22DOPE   H2R 2734   0.018   3.881  15.953  1.4187  0.0394 -1.4116
   22DOPE   H2S 2735   0.029   4.050  15.902  1.5468 -0.3560 -1.6436
   22DOPE    C3 2736  -0.200   4.306  16.192 -0.5568  0.2231 -0.8281
   22DOPE    HX 2737  -0.129   4.313  16.278 -2.6368 -3.0072  1.3453
   22DOPE    HY 2738  -0.296   4.346  16.230  0.5985  0.1225  2.5618
   22DOPE   O31 2739  -0.163   4.395  16.087  0.1961 -0.2450 -0.0200
   22DOPE   C31 2740  -0.041   4.374  16.040  0.2972  0.0861 -0.4158
   22DOPE   O32 2741   0.049   4.314  16.095  0.5521  0.5560 -0.4530
   22DOPE   C32 2742  -0.029   4.432  15.899 -0.3037 -0.3240 -0.3548
   22DOPE   H2X 2743  -0.079   4.358  15.832  0.4515 -0.8420 -0.3605
   22DOPE   H2Y 2744  -0.078   4.532  15.903 -0.0900 -0.2638  2.2128
   22DOPE   C23 2745  -0.056   3.926  15.753  0.9711  0.2483  0.2185
   22DOPE   H3R 2746  -0.152   3.870  15.751 -0.0107  1.8393  0.9751
   22DOPE   H3S 2747   0.033   3.870  15.716  0.5060  0.4044 -1.2126
   22DOPE   C24 2748  -0.067   4.038  15.655 -0.2693 -0.1749 -0.1091
   22DOPE   H4R 2749   0.022   4.101  15.672  0.2392 -0.6653 -0.8498
   22DOPE   H4S 2750  -0.161   4.097  15.654  0.3423  0.8381  0.6638
   22DOPE   C25 2751  -0.060   3.994  15.512 -0.0742 -0.1675 -0.8189
   22DOPE   H5R 2752  -0.144   3.926  15.487 -0.3474 -1.5444  3.2185
   22DOPE   H5S 2753   0.032   3.934  15.499 -0.0176 -0.1460 -0.5165
   22DOPE   C26 2754  -0.070   4.103  15.411  0.0399 -0.6679 -0.9041
   22DOPE   H6R 2755  -0.024   4.200  15.438  0.5921 -0.7966 -1.3634
   22DOPE   H6S 2756  -0.176   4.136  15.400  0.2024  0.1757 -0.0500
   22DOPE   C27 2757  -0.020   4.059  15.271 -0.0364  0.6057 -0.9692
   22DOPE   H7R 2758  -0.030   3.949  15.259 -1.1747  0.6009 -0.2185
   22DOPE   H7S 2759   0.089   4.077  15.266  0.0906  0.7029  1.0764
   22DOPE   C28 2760  -0.095   4.134  15.157  0.4141 -0.2634 -0.1326
   22DOPE   H8R 2761  -0.066   4.094  15.057  0.2716 -0.9535  0.1006
   22DOPE   H8S 2762  -0.038   4.230  15.155  2.3526 -1.3590  0.0659
   22DOPE   C29 2763  -0.245   4.136  15.159 -0.0838 -0.2368 -0.6544
   22DOPE   H9R 2764  -0.299   4.161  15.252  2.3636  1.8523  0.3420
   22DOPE  C210 2765  -0.326   4.086  15.060 -0.3441 -0.6406  0.1204
   22DOPE  H10R 2766  -0.435   4.085  15.076 -0.2688  0.5193  0.8108
   22DOPE  C211 2767  -0.275   4.025  14.926  0.6079 -0.3210  0.0540
   22DOPE  H11R 2768  -0.276   3.916  14.947  0.3437 -0.2182  0.5886
   22DOPE  H11S 2769  -0.178   4.059  14.885  0.4312  1.5276  1.0486
   22DOPE  C212 2770  -0.374   4.028  14.805  0.4809  0.4518  0.1905
   22DOPE  H12R 2771  -0.480   4.017  14.836  0.3310 -0.2501 -0.5515
   22DOPE  H12S 2772  -0.364   3.934  14.748  1.3381  0.5333  0.1907
   22DOPE  C213 2773  -0.362   4.150  14.709 -0.4800  0.3190 -0.0411
   22DOPE  H13R 2774  -0.257   4.143  14.673  0.8957  2.3884  3.1291
   22DOPE  H13S 2775  -0.366   4.235  14.780  2.5154  0.2322  0.3679
   22DOPE  C214 2776  -0.456   4.147  14.589 -0.2693  0.7658 -0.6590
   22DOPE  H14R 2777  -0.447   4.241  14.532 -0.6794 -0.6474 -3.1784
   22DOPE  H14S 2778  -0.559   4.140  14.629  0.8766  1.1419  2.7076
   22DOPE  C215 2779  -0.425   4.035  14.493  0.3372 -0.7887  0.2970
   22DOPE  H15R 2780  -0.433   3.932  14.534 -0.7598 -1.5642 -1.7093
   22DOPE  H15S 2781  -0.321   4.048  14.456  0.1098 -0.1948 -0.1521
   22DOPE  C216 2782  -0.528   4.027  14.383  0.1267 -0.0222  0.0168
   22DOPE  H16R 2783  -0.636   4.025  14.412  0.4923  0.1003  1.4302
   22DOPE  H16S 2784  -0.514   3.926  14.340 -0.9006 -0.0601 -0.2683
   22DOPE  C217 2785  -0.509   4.118  14.262 -0.3344  0.5079  0.4132
   22DOPE  H17R 2786  -0.401   4.112  14.234  0.6723  0.7881  3.7917
   22DOPE  H17S 2787  -0.520   4.223  14.294  1.0287  0.5941  0.6650
   22DOPE  C218 2788  -0.601   4.101  14.144 -0.2287  0.3486 -0.3958
   22DOPE  H18R 2789  -0.700   4.067  14.182 -0.2970  0.1557 -0.7399
   22DOPE  H18S 2790  -0.559   4.026  14.073 -0.8101 -1.1018  0.7339
   22DOPE  H18T 2791  -0.609   4.185  14.073  1.6233  0.0592 -1.0013
   22DOPE   C33 2792   0.118   4.430  15.850  0.4758 -0.3447  0.6155
   22DOPE   H3X 2793   0.153   4.325  15.838 -1.8188 -1.0955 -0.0925
   22DOPE   H3Y 2794   0.186   4.479  15.923  1.9838  0.4352 -1.2195
   22DOPE   C34 2795   0.141   4.503  15.716  0.3393 -0.2020 -0.1974
   22DOPE   H4X 2796   0.117   4.609  15.738  2.3078  1.0499 -3.3643
   22DOPE   H4Y 2797   0.250   4.517  15.697  0.2227  2.3287  0.6601
   22DOPE   C35 2798   0.069   4.453  15.591  0.4498  0.3953  0.2143
   22DOPE   H5X 2799  -0.042   4.460  15.599  0.3558 -0.1384 -0.5042
   22DOPE   H5Y 2800   0.088   4.346  15.569  0.5465  0.2764  0.8549
   22DOPE   C36 2801   0.110   4.527  15.466 -0.1947  0.2292 -0.2877
   22DOPE   H6X 2802   0.221   4.528  15.457 -0.3238  0.0337 -2.4575
   22DOPE   H6Y 2803   0.089   4.636  15.473  2.5776  0.8097  0.5727
   22DOPE   C37 2804   0.065   4.467  15.335  0.0577  0.2232  0.0244
   22DOPE   H7X 2805   0.101   4.362  15.329 -0.6277 -0.1813  2.1944
   22DOPE   H7Y 2806  -0.046   4.467  15.326  0.1028 -1.0061 -0.7556
   22DOPE   C38 2807   0.122   4.543  15.215  0.3414 -0.4729 -0.3104
   22DOPE   H8X 2808   0.122   4.650  15.244 -0.3749 -0.0060 -1.9181
   22DOPE   H8Y 2809   0.057   4.537  15.125  1.8330 -0.6877 -1.4116
   22DOPE   C39 2810   0.259   4.496  15.180  0.2423 -1.4505  0.0454
   22DOPE   H9X 2811   0.320   4.452  15.261 -0.0563 -2.2980 -0.1754
   22DOPE  C310 2812   0.305   4.488  15.053  0.2856  0.9830  0.3736
   22DOPE  H10X 2813   0.405   4.445  15.034  0.8441  2.6726 -0.7605
   22DOPE  C311 2814   0.237   4.533  14.927  0.0164  0.1165 -0.0733
   22DOPE  H11X 2815   0.133   4.494  14.934  0.8158 -1.7980  3.6225
   22DOPE  H11Y 2816   0.244   4.644  14.923 -0.3269  0.1588  0.3656
   22DOPE  C312 2817   0.282   4.483  14.791 -0.2619  0.3337 -0.2948
   22DOPE  H12X 2818   0.278   4.373  14.805  1.0160  0.1641 -1.0993
   22DOPE  H12Y 2819   0.389   4.505  14.769  0.0869 -0.8669  0.1329
   22DOPE  C313 2820   0.194   4.501  14.667  0.1876  0.5144 -0.2842
   22DOPE  H13X 2821   0.086   4.479  14.685  0.2918 -0.3225 -0.6361
   22DOPE  H13Y 2822   0.197   4.607  14.633  2.2463 -0.0103 -1.9076
   22DOPE  C314 2823   0.253   4.431  14.546  0.4804 -0.1404 -0.4064
   22DOPE  H14X 2824   0.275   4.327  14.575  1.4320  0.0641 -0.3635
   22DOPE  H14Y 2825   0.346   4.480  14.511  0.1157  0.4138 -0.6307
   22DOPE  C315 2826   0.148   4.426  14.438 -1.0950  0.4623  0.1010
   22DOPE  H15X 2827   0.130   4.529  14.400 -1.7829  0.8396  1.3865
   22DOPE  H15Y 2828   0.057   4.375  14.475 -0.0026 -0.8937  1.0349
   22DOPE  C316 2829   0.200   4.342  14.326  0.3976  0.1788 -0.5752
   22DOPE  H16X 2830   0.239   4.244  14.361 -1.9851 -0.9906 -0.9994
   22DOPE  H16Y 2831   0.288   4.400  14.289  0.3627  0.5806 -0.0410
   22DOPE  C317 2832   0.099   4.318  14.217 -0.2826 -0.6798  0.5335
   22DOPE  H17X 2833   0.049   4.417  14.203  0.2898 -0.0741  2.4224
   22DOPE  H17Y 2834   0.145   4.281  14.123  2.4133  0.1193  1.4438
   22DOPE  C318 2835  -0.008   4.226  14.255  0.3562 -0.2151  0.5244
   22DOPE  H18X 2836  -0.086   4.199  14.180  0.7523 -0.3118  0.1465
   22DOPE  H18Y 2837   0.040   4.130  14.283 -0.1793 -1.4160 -2.2963
   22DOPE  H18Z 2838  -0.056   4.268  14.346 -1.0220 -2.8346  1.1133
   23DOPE     N 2839   2.417   0.161  17.830  0.6868  0.1715 -0.2958
   23DOPE   HN1 2840   2.435   0.141  17.931  1.0211  0.1560 -0.3576
   23DOPE   HN2 2841   2.497   0.222  17.805  0.3603  1.2589  1.1515
   23DOPE   HN3 2842   2.330   0.214  17.810 -0.6755 -2.0725 -0.6789
   23DOPE   C12 2843   2.429   0.040  17.739  0.4596  0.1737 -0.1238
   23DOPE  H12A 2844   2.342  -0.022  17.768 -1.6666  1.3627 -3.4075
   23DOPE  H12B 2845   2.525  -0.009  17.767  0.8904 -0.4097 -2.3556
   23DOPE   C11 2846   2.416   0.084  17.593  0.1111 -0.0575 -0.9748
   23DOPE  H11A 2847   2.330   0.150  17.570 -0.6459 -0.0628  1.5553
   23DOPE  H11B 2848   2.392  -0.002  17.527 -1.2969 -1.4263  1.2094
   23DOPE     P 2849   2.658   0.083  17.475  0.0210  0.1221 -0.1219
   23DOPE   O13 2850   2.759   0.033  17.577  0.2563 -0.0667 -0.7711
   23DOPE   O14 2851   2.702   0.173  17.369  0.1943  0.5688 -0.4129
   23DOPE   O11 2852   2.595  -0.047  17.403 -0.0715  0.3930 -0.7163
   23DOPE   O12 2853   2.532   0.153  17.541 -0.4692  0.3457 -0.5376
   23DOPE    C1 2854   2.673  -0.164  17.372  0.0131 -0.8787 -0.2138
   23DOPE    HA 2855   2.616  -0.257  17.391 -0.6099 -0.8110 -1.6738
   23DOPE    HB 2856   2.776  -0.159  17.415  0.5060 -0.4059 -1.4020
   23DOPE    C2 2857   2.688  -0.171  17.217 -0.3582 -0.7777 -0.5029
   23DOPE    HS 2858   2.741  -0.266  17.194  0.0621 -0.0740 -2.7218
   23DOPE   O21 2859   2.768  -0.058  17.163  0.2293 -0.0540 -0.1844
   23DOPE   C21 2860   2.841  -0.078  17.054  0.0511 -0.2537  0.2796
   23DOPE   O22 2861   2.864  -0.188  17.002  0.3331 -0.7314  0.5750
   23DOPE   C22 2862   2.910   0.050  17.011 -0.5047  0.2630 -0.1278
   23DOPE   H2R 2863   2.960   0.096  17.098 -1.5033  0.9893  0.0728
   23DOPE   H2S 2864   2.823   0.117  16.994  1.0135  2.3400  0.0115
   23DOPE    C3 2865   2.549  -0.180  17.143  0.1496  0.2426  0.1026
   23DOPE    HX 2866   2.506  -0.081  17.168 -0.2491  1.1576 -3.7085
   23DOPE    HY 2867   2.491  -0.260  17.195 -0.5379 -0.1631 -1.2558
   23DOPE   O31 2868   2.553  -0.199  17.001 -0.1766 -0.6746 -0.3922
   23DOPE   C31 2869   2.597  -0.318  16.969 -0.1066 -0.2377  0.0303
   23DOPE   O32 2870   2.604  -0.414  17.037  0.1461 -0.4182 -0.4671
   23DOPE   C32 2871   2.625  -0.319  16.814 -0.3315 -0.0960  0.0831
   23DOPE   H2X 2872   2.539  -0.263  16.771 -0.0483  0.3602  0.0985
   23DOPE   H2Y 2873   2.728  -0.281  16.800 -1.0731  2.1599  0.2805
   23DOPE   C23 2874   3.007   0.044  16.889  0.1893 -0.5229 -0.0468
   23DOPE   H3R 2875   2.946  -0.002  16.808 -1.7254  1.7732 -0.0232
   23DOPE   H3S 2876   3.099  -0.011  16.918  0.4526  0.5322  1.2223
   23DOPE   C24 2877   3.058   0.182  16.845  0.2933  0.4374 -0.3202
   23DOPE   H4R 2878   3.120   0.220  16.929 -0.7555  0.5959  0.3985
   23DOPE   H4S 2879   2.984   0.262  16.821  0.3836  0.2396 -1.3010
   23DOPE   C25 2880   3.153   0.161  16.728  0.3515  0.5871 -0.0330
   23DOPE   H5R 2881   3.100   0.111  16.644 -0.5479  2.0614 -0.3636
   23DOPE   H5S 2882   3.238   0.101  16.769  1.1638  1.3775 -0.5389
   23DOPE   C26 2883   3.223   0.287  16.680  0.1360  0.2303 -0.3882
   23DOPE   H6R 2884   3.230   0.345  16.775  0.9877 -1.5794  0.7035
   23DOPE   H6S 2885   3.152   0.335  16.610 -1.3039  0.4206  1.1474
   23DOPE   C27 2886   3.357   0.261  16.608 -0.3433  0.1249  0.0106
   23DOPE   H7R 2887   3.422   0.191  16.664 -2.8760 -1.6856  0.8310
   23DOPE   H7S 2888   3.414   0.356  16.594  0.2973  0.2429  2.8562
   23DOPE   C28 2889   3.341   0.203  16.464 -0.2761  0.4847 -0.0499
   23DOPE   H8R 2890   3.279   0.279  16.412 -0.3123  0.7349  0.3516
   23DOPE   H8S 2891   3.288   0.108  16.482  0.1268  0.4130  0.7975
   23DOPE   C29 2892   3.465   0.165  16.383  0.1120  0.0974 -0.2275
   23DOPE   H9R 2893   3.534   0.094  16.431  1.3466 -0.2311 -2.3818
   23DOPE  C210 2894   3.490   0.191  16.254 -0.6228 -0.3923 -0.3205
   23DOPE  H10R 2895   3.582   0.147  16.211 -0.5790 -1.0144  0.3980
   23DOPE  C211 2896   3.412   0.265  16.160  0.1375 -0.0887  0.3605
   23DOPE  H11R 2897   3.479   0.339  16.112 -1.2153  0.6864 -0.3621
   23DOPE  H11S 2898   3.330   0.324  16.206 -1.4102 -0.9832 -1.1526
   23DOPE  C212 2899   3.362   0.192  16.040 -0.5311  0.1339  0.8139
   23DOPE  H12R 2900   3.338   0.089  16.076  2.4432 -0.6321  0.8735
   23DOPE  H12S 2901   3.444   0.193  15.964  0.1384 -0.1342  1.5233
   23DOPE  C213 2902   3.230   0.251  15.981 -0.3533  1.3018  1.1631
   23DOPE  H13R 2903   3.219   0.361  15.990 -2.0754  1.0255  3.1416
   23DOPE  H13S 2904   3.160   0.200  16.050  1.0001 -1.1254  0.8545
   23DOPE  C214 2905   3.199   0.214  15.830 -0.5544 -0.5948  0.0099
   23DOPE  H14R 2906   3.095   0.243  15.805  0.8818  3.6153 -2.1101
   23DOPE  H14S 2907   3.216   0.106  15.813 -0.5808 -0.6076  0.0640
   23DOPE  C215 2908   3.294   0.298  15.736  0.2979  0.0058  0.5234
   23DOPE  H15R 2909   3.393   0.298  15.786  0.0352 -2.4163  1.1678
   23DOPE  H15S 2910   3.257   0.402  15.726 -3.4323 -1.3629 -2.1161
   23DOPE  C216 2911   3.303   0.244  15.595 -0.2901 -0.3421 -0.8505
   23DOPE  H16R 2912   3.344   0.141  15.602  1.8479  0.3993 -1.6859
   23DOPE  H16S 2913   3.367   0.309  15.532 -0.6815  0.2895 -0.6051
   23DOPE  C217 2914   3.177   0.252  15.501 -0.4874  0.2989  0.2510
   23DOPE  H17R 2915   3.136   0.354  15.515 -2.9431 -0.8535  2.3398
   23DOPE  H17S 2916   3.106   0.175  15.539 -0.0118 -0.5617 -0.5740
   23DOPE  C218 2917   3.212   0.224  15.361  0.4940  0.2111  0.5269
   23DOPE  H18R 2918   3.262   0.126  15.348  0.6768  0.2161  1.1838
   23DOPE  H18S 2919   3.295   0.287  15.323  1.6820 -2.0836 -0.9264
   23DOPE  H18T 2920   3.121   0.232  15.297  0.6567  1.0595  0.3911
   23DOPE   C33 2921   2.616  -0.457  16.763 -0.2870 -0.3066 -0.3912
   23DOPE   H3X 2922   2.515  -0.498  16.784  0.6523 -1.5211  2.3293
   23DOPE   H3Y 2923   2.685  -0.525  16.817  0.0104  1.0515  1.0548
   23DOPE   C34 2924   2.642  -0.468  16.617 -0.2575  0.5437 -0.0824
   23DOPE   H4X 2925   2.743  -0.425  16.598 -0.4481  1.2270  0.4170
   23DOPE   H4Y 2926   2.640  -0.576  16.594  0.0898  0.6258 -0.5203
   23DOPE   C35 2927   2.551  -0.382  16.515  0.4582 -0.1008  0.4061
   23DOPE   H5X 2928   2.558  -0.273  16.533  0.9325  0.2699 -1.7923
   23DOPE   H5Y 2929   2.446  -0.417  16.528 -0.3581  2.0827  0.0154
   23DOPE   C36 2930   2.583  -0.403  16.367 -0.2175  0.0010 -0.3182
   23DOPE   H6X 2931   2.519  -0.338  16.304 -0.0992 -0.6575 -1.1270
   23DOPE   H6Y 2932   2.567  -0.507  16.332  2.1081 -0.4943 -0.0838
   23DOPE   C37 2933   2.730  -0.371  16.324  0.7557 -0.1081 -0.1819
   23DOPE   H7X 2934   2.762  -0.273  16.367 -3.2909  1.2697  0.1564
   23DOPE   H7Y 2935   2.803  -0.445  16.362 -1.0139 -1.9607 -0.2423
   23DOPE   C38 2936   2.745  -0.350  16.168 -0.5679 -0.1883 -0.0694
   23DOPE   H8X 2937   2.733  -0.440  16.105  2.0594  0.8799 -2.2961
   23DOPE   H8Y 2938   2.852  -0.325  16.154 -0.8835  1.4164  0.0962
   23DOPE   C39 2939   2.671  -0.227  16.122 -0.3269  0.0432 -0.2436
   23DOPE   H9X 2940   2.622  -0.166  16.199  2.0145  0.1492  1.2580
   23DOPE  C310 2941   2.679  -0.175  16.000  0.6815  0.7386 -0.3914
   23DOPE  H10X 2942   2.639  -0.074  15.979 -0.9672  0.0233 -0.8526
   23DOPE  C311 2943   2.747  -0.229  15.877  0.0745 -0.6106  0.7143
   23DOPE  H11X 2944   2.827  -0.158  15.848 -1.7309  2.0760  1.8611
   23DOPE  H11Y 2945   2.800  -0.324  15.899  1.5013 -0.6309 -2.2568
   23DOPE  C312 2946   2.644  -0.237  15.759 -1.0298  0.1887 -0.1761
   23DOPE  H12X 2947   2.589  -0.141  15.746 -1.6908 -0.1578  0.0049
   23DOPE  H12Y 2948   2.591  -0.333  15.773  2.1036 -1.3639  2.2631
   23DOPE  C313 2949   2.725  -0.251  15.631 -0.9842  0.0279 -0.2038
   23DOPE  H13X 2950   2.793  -0.164  15.616 -0.0729 -0.6043  0.2049
   23DOPE  H13Y 2951   2.782  -0.345  15.635 -0.2015  0.5069 -0.0187
   23DOPE  C314 2952   2.638  -0.255  15.511 -0.0657  0.1658 -0.0492
   23DOPE  H14X 2953   2.577  -0.162  15.510  1.0311  0.9113  0.3407
   23DOPE  H14Y 2954   2.571  -0.344  15.515 -0.2142  0.2644 -0.3840
   23DOPE  C315 2955   2.721  -0.260  15.375  0.1539 -0.3163 -0.1260
   23DOPE  H15X 2956   2.801  -0.336  15.372  0.7658  0.3079  0.0148
   23DOPE  H15Y 2957   2.786  -0.170  15.368  1.1024 -0.9124  0.7048
   23DOPE  C316 2958   2.632  -0.263  15.246 -0.2038  0.1367  0.1532
   23DOPE  H16X 2959   2.560  -0.181  15.265 -0.8745  0.0560 -1.8520
   23DOPE  H16Y 2960   2.579  -0.360  15.238  1.8043 -1.1110  1.0840
   23DOPE  C317 2961   2.707  -0.228  15.120  0.5177 -0.5348  0.5586
   23DOPE  H17X 2962   2.735  -0.120  15.123 -2.8872  0.4533  0.6211
   23DOPE  H17Y 2963   2.803  -0.283  15.109  1.6895  1.2543  1.3160
   23DOPE  C318 2964   2.627  -0.262  14.990 -0.7355  0.3305 -0.5923
   23DOPE  H18X 2965   2.598  -0.369  14.992 -0.2411  0.2022 -0.3209
   23DOPE  H18Y 2966   2.531  -0.210  14.966 -1.3428 -0.3814  0.2210
   23DOPE  H18Z 2967   2.688  -0.246  14.899  1.9117  0.8007  1.1525
   24DOPE     N 2968   5.455   4.697  16.850  0.5178  0.4703  0.8483
   24DOPE   HN1 2969   5.433   4.701  16.951 -0.2905 -0.1119  0.7089
   24DOPE   HN2 2970   5.443   4.596  16.829  0.1090  0.8197 -0.7393
   24DOPE   HN3 2971   5.554   4.725  16.836  0.6742  0.5689  2.0562
   24DOPE   C12 2972   5.355   4.751  16.751  0.6549 -0.1729  0.1668
   24DOPE  H12A 2973   5.389   4.720  16.650  0.8442  2.2195 -0.5810
   24DOPE  H12B 2974   5.359   4.862  16.759 -0.2157  0.2562 -3.6074
   24DOPE   C11 2975   5.216   4.691  16.780 -0.7981 -0.1068  0.2026
   24DOPE  H11A 2976   5.142   4.705  16.699 -0.2590 -3.7790 -1.1192
   24DOPE  H11B 2977   5.185   4.740  16.874  0.1379  0.5594  0.1807
   24DOPE     P 2978   5.105   4.460  16.834  0.4924 -0.2176 -0.5340
   24DOPE   O13 2979   5.034   4.511  16.955  0.0953  0.2936  0.2011
   24DOPE   O14 2980   5.155   4.325  16.859  0.2935 -0.2450  0.2210
   24DOPE   O11 2981   5.016   4.468  16.712  0.4187 -0.5960  0.3973
   24DOPE   O12 2982   5.237   4.549  16.801  0.3282 -0.7675  0.4548
   24DOPE    C1 2983   4.894   4.394  16.698 -0.0180 -0.9915 -0.3625
   24DOPE    HA 2984   4.823   4.404  16.782 -0.5349 -1.6975 -0.7070
   24DOPE    HB 2985   4.912   4.286  16.678 -0.9781 -1.0967 -0.6912
   24DOPE    C2 2986   4.819   4.451  16.574 -0.2141  0.0399  0.0750
   24DOPE    HS 2987   4.734   4.382  16.554 -0.9685  0.3290  1.9919
   24DOPE   O21 2988   4.906   4.470  16.465 -0.3199 -0.6395  0.1016
   24DOPE   C21 2989   4.959   4.365  16.410  0.4212 -0.8101  0.1465
   24DOPE   O22 2990   4.949   4.248  16.445 -0.7071 -0.0615  0.5399
   24DOPE   C22 2991   5.033   4.408  16.288  0.1639 -0.6434 -0.3403
   24DOPE   H2R 2992   5.129   4.352  16.300  0.6309  0.1089 -0.4897
   24DOPE   H2S 2993   5.052   4.517  16.302  1.2649 -0.9478  0.7439
   24DOPE    C3 2994   4.754   4.592  16.607 -0.2358  0.3690  0.2135
   24DOPE    HX 2995   4.835   4.666  16.623 -1.7028  2.1767 -0.4582
   24DOPE    HY 2996   4.687   4.592  16.696 -1.1787  0.2230 -0.4787
   24DOPE   O31 2997   4.686   4.651  16.491  0.0610  0.7320 -0.0911
   24DOPE   C31 2998   4.585   4.588  16.435  0.1699  0.2564  0.1856
   24DOPE   O32 2999   4.534   4.486  16.485  0.1860 -0.0494 -0.2530
   24DOPE   C32 3000   4.529   4.661  16.311 -0.2142  0.8514 -0.0589
   24DOPE   H2X 3001   4.429   4.696  16.344 -0.2566 -1.5672  2.7085
   24DOPE   H2Y 3002   4.600   4.744  16.288  0.7178 -0.5521 -2.7557
   24DOPE   C23 3003   4.958   4.382  16.157 -0.4006 -0.0244  0.2069
   24DOPE   H3R 3004   4.858   4.430  16.168 -0.0817  0.8626 -0.6482
   24DOPE   H3S 3005   4.937   4.274  16.140 -0.3981 -0.0178  0.1644
   24DOPE   C24 3006   5.046   4.430  16.031 -0.1122  0.0172 -0.4532
   24DOPE   H4R 3007   5.137   4.366  16.040  0.1092 -0.0216 -2.5878
   24DOPE   H4S 3008   5.073   4.538  16.039  0.6416  0.0496 -2.6851
   24DOPE   C25 3009   4.973   4.418  15.900 -0.0556 -0.3886 -0.0551
   24DOPE   H5R 3010   4.870   4.395  15.936  1.2486 -0.5043  4.0727
   24DOPE   H5S 3011   5.006   4.323  15.853 -1.0592 -1.7435  1.8333
   24DOPE   C26 3012   4.999   4.534  15.806  0.8959  0.4535 -0.0940
   24DOPE   H6R 3013   5.105   4.522  15.773  0.7209 -1.5937 -0.0935
   24DOPE   H6S 3014   4.980   4.629  15.860 -2.3843  0.1146 -0.4560
   24DOPE   C27 3015   4.918   4.536  15.676 -0.4957  0.4404 -0.3588
   24DOPE   H7R 3016   4.916   4.639  15.632 -2.0959  0.3273 -0.6248
   24DOPE   H7S 3017   4.812   4.514  15.702 -0.0089 -1.5587  0.1114
   24DOPE   C28 3018   4.965   4.434  15.562  0.2548 -0.6817 -0.3876
   24DOPE   H8R 3019   4.968   4.333  15.608 -0.6581 -1.2695 -1.5356
   24DOPE   H8S 3020   5.069   4.458  15.529 -0.4893  0.8115 -1.8166
   24DOPE   C29 3021   4.875   4.448  15.439 -0.7176  0.2826 -0.2523
   24DOPE   H9R 3022   4.769   4.474  15.457 -1.0456 -1.3829  0.4260
   24DOPE  C210 3023   4.914   4.441  15.307 -0.2367  0.0405 -0.1705
   24DOPE  H10R 3024   4.829   4.436  15.237 -1.2791 -0.8263  1.0956
   24DOPE  C211 3025   5.060   4.416  15.267 -0.1697 -0.3237 -1.4597
   24DOPE  H11R 3026   5.115   4.332  15.314  3.1608  2.9402  1.0604
   24DOPE  H11S 3027   5.120   4.498  15.311 -1.4260 -0.8946  1.5611
   24DOPE  C212 3028   5.082   4.423  15.115 -0.2449 -0.2404  0.7459
   24DOPE  H12R 3029   5.188   4.447  15.094 -0.4359  0.1491  0.1834
   24DOPE  H12S 3030   5.028   4.512  15.074  0.2707 -0.4620 -0.4799
   24DOPE  C213 3031   5.045   4.305  15.026 -0.7113 -0.6049 -0.0958
   24DOPE  H13R 3032   4.946   4.260  15.050  0.9933 -3.8003  1.5570
   24DOPE  H13S 3033   5.132   4.238  15.045 -0.1445 -0.4589 -2.0058
   24DOPE  C214 3034   5.052   4.335  14.877 -0.5211 -0.0754 -0.7535
   24DOPE  H14R 3035   5.115   4.425  14.862 -0.7418  0.3492  0.6831
   24DOPE  H14S 3036   4.948   4.366  14.852 -0.3344 -0.3426 -1.8807
   24DOPE  C215 3037   5.081   4.210  14.789 -0.3032 -0.4917 -0.0180
   24DOPE  H15R 3038   5.009   4.129  14.812 -1.4866  1.2687  3.2300
   24DOPE  H15S 3039   5.186   4.179  14.807 -0.5496 -1.4669 -0.2182
   24DOPE  C216 3040   5.063   4.238  14.637 -0.4023 -0.4067 -0.4066
   24DOPE  H16R 3041   5.127   4.324  14.606  0.0693 -0.4462  0.4098
   24DOPE  H16S 3042   4.958   4.270  14.625 -0.4021 -0.1377  0.2404
   24DOPE  C217 3043   5.105   4.124  14.535  0.2889  0.0019 -0.0319
   24DOPE  H17R 3044   5.079   4.167  14.436 -0.8451 -1.4084 -0.3881
   24DOPE  H17S 3045   5.029   4.042  14.539  0.4186 -0.3010 -2.4352
   24DOPE  C218 3046   5.239   4.049  14.542 -0.2188 -0.0315  1.2371
   24DOPE  H18R 3047   5.324   4.118  14.561  0.5099 -0.7486  0.6867
   24DOPE  H18S 3048   5.255   4.003  14.442  0.9857 -1.4817  2.0348
   24DOPE  H18T 3049   5.251   3.976  14.625  2.4165 -0.6225  0.4560
   24DOPE   C33 3050   4.528   4.569  16.193 -0.3793  0.3187  0.4164
   24DOPE   H3X 3051   4.463   4.481  16.208  0.5687 -0.9687 -2.4531
   24DOPE   H3Y 3052   4.626   4.519  16.177 -0.9918 -1.1571  1.0837
   24DOPE   C34 3053   4.502   4.632  16.052  0.0566 -0.9669  0.0688
   24DOPE   H4X 3054   4.404   4.685  16.053 -0.3429 -1.7066  0.8376
   24DOPE   H4Y 3055   4.575   4.715  16.037 -1.5851  0.5045 -0.1611
   24DOPE   C35 3056   4.514   4.526  15.939  0.0237 -0.4016 -0.1000
   24DOPE   H5X 3057   4.473   4.431  15.979 -1.8382  0.8485  1.1415
   24DOPE   H5Y 3058   4.618   4.500  15.909 -0.1292 -0.6455 -0.4289
   24DOPE   C36 3059   4.431   4.575  15.822 -0.2711 -0.4622 -0.6024
   24DOPE   H6X 3060   4.461   4.680  15.801  1.2788 -0.9037 -0.6582
   24DOPE   H6Y 3061   4.324   4.565  15.852  0.6600 -1.2205  2.8591
   24DOPE   C37 3062   4.466   4.484  15.704  0.2807 -0.1140  0.0444
   24DOPE   H7X 3063   4.573   4.494  15.676  0.3406  1.9813  0.8089
   24DOPE   H7Y 3064   4.450   4.379  15.735  0.5780 -0.4946 -1.0438
   24DOPE   C38 3065   4.380   4.523  15.575  0.5806  0.0332 -0.0886
   24DOPE   H8X 3066   4.278   4.533  15.619  0.2146 -1.6461 -0.4856
   24DOPE   H8Y 3067   4.370   4.436  15.506  1.7408 -0.7028  0.6473
   24DOPE   C39 3068   4.427   4.642  15.502 -0.3527  0.2512 -0.4318
   24DOPE   H9X 3069   4.421   4.736  15.558 -0.4367 -0.3283  0.5461
   24DOPE  C310 3070   4.478   4.630  15.380 -0.1624 -0.0665  0.6390
   24DOPE  H10X 3071   4.525   4.714  15.326  0.0769 -0.4727  0.2004
   24DOPE  C311 3072   4.483   4.507  15.291  0.7025 -0.0482 -0.5472
   24DOPE  H11X 3073   4.544   4.426  15.337  0.4070 -1.2250 -2.1623
   24DOPE  H11Y 3074   4.381   4.464  15.280  1.7312 -2.2873 -2.1493
   24DOPE  C312 3075   4.537   4.527  15.151  0.3405 -0.0600  0.2229
   24DOPE  H12X 3076   4.628   4.591  15.156 -0.2604  0.7281  1.9769
   24DOPE  H12Y 3077   4.468   4.585  15.086  0.7697 -0.8075 -0.9125
   24DOPE  C313 3078   4.565   4.387  15.088 -0.0023  0.7067 -0.0223
   24DOPE  H13X 3079   4.615   4.327  15.168 -0.7698  0.4833  0.3088
   24DOPE  H13Y 3080   4.465   4.340  15.077 -0.8022  2.1433  0.7312
   24DOPE  C314 3081   4.636   4.385  14.952  0.4674 -0.6826 -0.2359
   24DOPE  H14X 3082   4.653   4.280  14.920 -2.6494 -1.6287  0.8824
   24DOPE  H14Y 3083   4.731   4.443  14.945  0.6299 -1.0001 -0.7794
   24DOPE  C315 3084   4.556   4.455  14.844 -0.0503  0.1120  0.8634
   24DOPE  H15X 3085   4.553   4.561  14.877  3.8036  0.5463  0.2268
   24DOPE  H15Y 3086   4.448   4.430  14.850  0.2783 -1.8261 -0.2453
   24DOPE  C316 3087   4.617   4.450  14.703  0.2456 -0.1982  0.0325
   24DOPE  H16X 3088   4.537   4.466  14.627  1.7840 -3.2643 -2.4626
   24DOPE  H16Y 3089   4.648   4.350  14.667  1.1063  0.5217 -1.3445
   24DOPE  C317 3090   4.729   4.551  14.690 -0.5706 -0.1416  0.2155
   24DOPE  H17X 3091   4.682   4.650  14.705  0.8638  0.3952  1.3604
   24DOPE  H17Y 3092   4.811   4.538  14.764  0.6638  0.9251 -0.9192
   24DOPE  C318 3093   4.791   4.547  14.553 -0.7557  0.3746 -0.5239
   24DOPE  H18X 3094   4.853   4.636  14.529  0.8472 -0.7501 -0.7046
   24DOPE  H18Y 3095   4.856   4.458  14.539 -0.4287  0.6240 -0.6242
   24DOPE  H18Z 3096   4.722   4.532  14.467  1.6373  0.8347 -2.6814
   25DOPE     N 3097   5.184   4.107  16.709  0.2347  0.3106  0.1217
   25DOPE   HN1 3098   5.198   4.035  16.783  1.0437  0.0374 -0.2886
   25DOPE   HN2 3099   5.216   4.197  16.751 -1.3117  1.1322 -0.4147
   25DOPE   HN3 3100   5.084   4.114  16.684  0.0447  0.8686  0.9659
   25DOPE   C12 3101   5.271   4.074  16.591  0.4733 -0.2849  0.2703
   25DOPE  H12A 3102   5.219   4.003  16.523 -0.6119 -0.0354  0.8072
   25DOPE  H12B 3103   5.357   4.028  16.644 -0.1783  1.0128  2.6579
   25DOPE   C11 3104   5.322   4.205  16.526 -1.0074  0.0852  0.2983
   25DOPE  H11A 3105   5.234   4.249  16.475 -1.4773 -0.0886  0.9382
   25DOPE  H11B 3106   5.401   4.198  16.448  0.0586  2.5720  1.0682
   25DOPE     P 3107   5.513   4.336  16.662  0.0621  0.1696  0.1009
   25DOPE   O13 3108   5.593   4.206  16.670 -0.7498 -0.6758 -0.0682
   25DOPE   O14 3109   5.517   4.434  16.773 -0.2526  0.0590 -0.2518
   25DOPE   O11 3110   5.552   4.404  16.526  0.5532 -0.0879 -0.7266
   25DOPE   O12 3111   5.364   4.299  16.631 -0.0336 -0.5380  0.1495
   25DOPE    C1 3112   5.650   4.501  16.524  0.2396 -0.5397  0.5164
   25DOPE    HA 3113   5.748   4.481  16.572 -0.7323  0.0240  2.9242
   25DOPE    HB 3114   5.609   4.592  16.574 -1.0486 -1.6795  1.6376
   25DOPE    C2 3115   5.695   4.531  16.377 -0.0077 -0.2634  0.2423
   25DOPE    HS 3116   5.763   4.618  16.390 -0.8898  0.4140  0.4018
   25DOPE   O21 3117   5.577   4.559  16.290 -0.0930  0.3666  0.3300
   25DOPE   C21 3118   5.526   4.672  16.317  0.1632 -0.1256  0.0411
   25DOPE   O22 3119   5.561   4.763  16.390  0.0920 -0.1445  0.2844
   25DOPE   C22 3120   5.399   4.678  16.231 -0.2046 -0.1215  0.0725
   25DOPE   H2R 3121   5.340   4.595  16.276  1.8550 -0.7681  1.7264
   25DOPE   H2S 3122   5.416   4.638  16.128  0.2498 -0.8073  0.4066
   25DOPE    C3 3123   5.776   4.408  16.315  0.1734 -0.3654  0.1113
   25DOPE    HX 3124   5.716   4.320  16.346  1.4044 -1.0197  0.6935
   25DOPE    HY 3125   5.869   4.391  16.372  1.0747  0.7107 -0.9799
   25DOPE   O31 3126   5.791   4.411  16.172  0.0054  0.9394 -0.3113
   25DOPE   C31 3127   5.863   4.516  16.124  0.6728  0.0048 -0.5164
   25DOPE   O32 3128   5.913   4.606  16.191 -0.0666 -0.1636  0.1288
   25DOPE   C32 3129   5.876   4.503  15.971  0.7417  0.6757 -0.1250
   25DOPE   H2X 3130   5.912   4.401  15.946  0.3503  0.9950 -2.1267
   25DOPE   H2Y 3131   5.778   4.526  15.923  0.6489  0.4982 -0.0232
   25DOPE   C23 3132   5.328   4.815  16.201 -0.4776  0.1748 -0.6102
   25DOPE   H3R 3133   5.406   4.894  16.211 -0.2792 -0.2764  2.0411
   25DOPE   H3S 3134   5.278   4.831  16.299 -0.7793 -0.9209 -0.5794
   25DOPE   C24 3135   5.240   4.820  16.077  0.1195  0.1756  0.3144
   25DOPE   H4R 3136   5.186   4.916  16.066  2.5623  1.4733 -1.3817
   25DOPE   H4S 3137   5.171   4.733  16.077 -0.6190  0.6966 -2.0047
   25DOPE   C25 3138   5.328   4.817  15.948 -0.4391  0.2518  0.6496
   25DOPE   H5R 3139   5.368   4.714  15.933 -2.2027 -0.4498  0.4739
   25DOPE   H5S 3140   5.423   4.873  15.963 -0.6512  0.8289 -0.0932
   25DOPE   C26 3141   5.246   4.855  15.830 -0.0072 -0.5105 -0.4535
   25DOPE   H6R 3142   5.259   4.965  15.823  2.0679 -0.7454 -0.9184
   25DOPE   H6S 3143   5.137   4.838  15.841 -0.7816  2.5181 -2.3057
   25DOPE   C27 3144   5.286   4.782  15.700 -0.3479 -0.2262 -0.4688
   25DOPE   H7R 3145   5.315   4.677  15.721  0.3254 -0.0860 -0.6739
   25DOPE   H7S 3146   5.384   4.823  15.668 -0.5172  1.1501  0.6552
   25DOPE   C28 3147   5.186   4.801  15.586  0.3294  0.3016  0.5131
   25DOPE   H8R 3148   5.090   4.749  15.606  0.4401  0.7464  2.3926
   25DOPE   H8S 3149   5.213   4.759  15.487  0.2671 -0.6738  0.9047
   25DOPE   C29 3150   5.154   4.948  15.570 -0.1507  0.0153  0.6142
   25DOPE   H9R 3151   5.077   4.982  15.641 -0.4417  2.2113 -0.6427
   25DOPE  C210 3152   5.216   5.027  15.485 -0.0097 -0.2531  0.8825
   25DOPE  H10R 3153   5.165   5.119  15.455  0.2167 -0.2689  0.4405
   25DOPE  C211 3154   5.339   4.996  15.401 -0.0933 -0.6127 -0.2002
   25DOPE  H11R 3155   5.398   4.912  15.444  1.0632 -0.3327 -1.1889
   25DOPE  H11S 3156   5.408   5.083  15.407 -0.1057 -0.6967  2.2694
   25DOPE  C212 3157   5.297   4.963  15.259  0.1977 -0.5862  0.1525
   25DOPE  H12R 3158   5.217   5.034  15.229  0.1890 -0.7312 -0.1676
   25DOPE  H12S 3159   5.250   4.863  15.262 -0.5741 -0.2507 -0.4593
   25DOPE  C213 3160   5.418   4.948  15.159 -0.6629 -0.4507  0.2761
   25DOPE  H13R 3161   5.488   4.870  15.196  0.7772 -0.6948 -2.6039
   25DOPE  H13S 3162   5.473   5.045  15.155  2.8193 -2.2696 -2.1659
   25DOPE  C214 3163   5.367   4.924  15.015  0.3547  0.0257 -0.3183
   25DOPE  H14R 3164   5.279   4.989  15.000 -1.9294 -2.4523  1.4356
   25DOPE  H14S 3165   5.321   4.823  15.010 -2.4949  1.2000  0.5984
   25DOPE  C215 3166   5.474   4.937  14.906 -0.3575 -0.0712 -0.7259
   25DOPE  H15R 3167   5.565   4.878  14.932 -1.0128 -0.7063  0.1945
   25DOPE  H15S 3168   5.494   5.047  14.905 -1.9198  0.3147  1.5803
   25DOPE  C216 3169   5.419   4.897  14.773  0.6132 -0.8865  0.4550
   25DOPE  H16R 3170   5.347   4.977  14.745 -0.8103 -1.7534  1.5889
   25DOPE  H16S 3171   5.366   4.800  14.762  1.2517 -1.1754 -0.1639
   25DOPE  C217 3172   5.520   4.905  14.658 -0.5423  0.2442 -0.3027
   25DOPE  H17R 3173   5.585   4.815  14.655 -2.6926 -1.3659 -2.2362
   25DOPE  H17S 3174   5.576   5.000  14.670 -2.9566  1.6550  0.6286
   25DOPE  C218 3175   5.450   4.906  14.521 -0.7290  0.0655 -0.1882
   25DOPE  H18R 3176   5.518   4.898  14.433 -0.7511  0.8957 -0.2836
   25DOPE  H18S 3177   5.383   4.991  14.497 -0.7473 -0.3647 -1.7899
   25DOPE  H18T 3178   5.385   4.816  14.524 -0.8904  0.1725 -0.4713
   25DOPE   C33 3179   5.967   4.617  15.917  0.3877  0.4283  0.4485
   25DOPE   H3X 3180   6.065   4.628  15.968  0.2481 -1.7891  1.2976
   25DOPE   H3Y 3181   5.901   4.703  15.941 -1.1184 -0.7028  0.4886
   25DOPE   C34 3182   5.995   4.592  15.769 -0.2895 -0.2640  0.0407
   25DOPE   H4X 3183   6.073   4.514  15.757  0.0706 -0.3395  2.4339
   25DOPE   H4Y 3184   5.906   4.555  15.714 -0.1319 -0.2176 -0.2468
   25DOPE   C35 3185   6.065   4.701  15.683  0.3858 -0.0482 -0.6332
   25DOPE   H5X 3186   6.174   4.701  15.706  0.8467  1.4424 -2.5294
   25DOPE   H5Y 3187   6.010   4.796  15.700 -0.1649 -0.5950  0.7946
   25DOPE   C36 3188   6.056   4.681  15.529  0.5197  0.7930  0.3490
   25DOPE   H6X 3189   6.112   4.769  15.491 -0.0929 -0.2126 -3.3779
   25DOPE   H6Y 3190   5.949   4.682  15.496 -0.3176 -1.2312  2.7072
   25DOPE   C37 3191   6.119   4.555  15.473  0.3328 -0.3380  0.1230
   25DOPE   H7X 3192   6.213   4.540  15.529  0.7671  2.8116  0.4282
   25DOPE   H7Y 3193   6.054   4.465  15.477  0.8429 -0.7703 -0.7719
   25DOPE   C38 3194   6.169   4.583  15.328  0.0461 -0.4893  0.1293
   25DOPE   H8X 3195   6.237   4.671  15.327  0.9498 -1.1850 -0.3544
   25DOPE   H8Y 3196   6.094   4.596  15.247  2.7086 -0.9782 -2.5965
   25DOPE   C39 3197   6.252   4.466  15.293  0.0061 -0.1414  0.5252
   25DOPE   H9X 3198   6.358   4.459  15.324 -0.3883  1.5081  2.5129
   25DOPE  C310 3199   6.197   4.359  15.235  0.0920  0.2416  0.1868
   25DOPE  H10X 3200   6.262   4.274  15.211 -1.4204 -1.9761  3.2033
   25DOPE  C311 3201   6.063   4.337  15.173  0.5350  0.3637  0.2333
   25DOPE  H11X 3202   5.999   4.260  15.221 -2.4346  2.1509 -0.5698
   25DOPE  H11Y 3203   5.998   4.426  15.179 -2.2212 -1.4408 -0.8595
   25DOPE  C312 3204   6.077   4.310  15.023  0.0898 -0.5661  0.3178
   25DOPE  H12X 3205   6.169   4.251  15.000 -0.9201 -2.5430  1.1134
   25DOPE  H12Y 3206   6.096   4.403  14.965  2.6925 -1.8914 -1.1461
   25DOPE  C313 3207   5.954   4.235  14.966  0.4185 -0.1555 -0.3795
   25DOPE  H13X 3208   5.953   4.134  15.012 -3.3515  1.0011  2.6849
   25DOPE  H13Y 3209   5.860   4.288  14.997  0.2862 -0.6191  0.0267
   25DOPE  C314 3210   5.957   4.213  14.814  0.2175  0.6171  0.2109
   25DOPE  H14X 3211   6.048   4.154  14.787  0.2559  1.4466 -1.6867
   25DOPE  H14Y 3212   5.965   4.313  14.766  0.9088  0.2031 -0.5638
   25DOPE  C315 3213   5.839   4.128  14.760  0.0203  0.2242  0.2334
   25DOPE  H15X 3214   5.745   4.168  14.805  0.6346  0.1617  1.5895
   25DOPE  H15Y 3215   5.848   4.023  14.793 -2.0541 -0.1997 -0.3646
   25DOPE  C316 3216   5.825   4.129  14.602 -0.0286  0.0916  0.2625
   25DOPE  H16X 3217   5.912   4.068  14.571 -0.4427 -1.2547  1.6145
   25DOPE  H16Y 3218   5.845   4.232  14.564 -0.0806 -0.7793 -2.2674
   25DOPE  C317 3219   5.701   4.071  14.543 -0.9659 -0.3051  0.4139
   25DOPE  H17X 3220   5.678   3.971  14.587 -1.6918 -1.6678 -2.8101
   25DOPE  H17Y 3221   5.621   4.144  14.565  2.1637  3.2746  1.0833
   25DOPE  C318 3222   5.710   4.053  14.390  0.9531 -0.2198 -0.4398
   25DOPE  H18X 3223   5.618   3.999  14.359  0.2783  1.7545 -2.1248
   25DOPE  H18Y 3224   5.710   4.154  14.343  0.0665  0.9478  1.9046
   25DOPE  H18Z 3225   5.802   3.993  14.375  1.8352  0.7606  0.8486
   26DOPE     N 3226   0.006   5.890  16.605 -0.1343  0.0063 -0.3714
   26DOPE   HN1 3227  -0.045   5.908  16.516  0.8075  3.3406 -0.3968
   26DOPE   HN2 3228   0.030   5.984  16.644 -1.4950  0.3079 -0.2109
   26DOPE   HN3 3229   0.094   5.843  16.578  0.4071  0.7263  0.0955
   26DOPE   C12 3230  -0.088   5.801  16.678  0.3770  0.7676  0.1633
   26DOPE  H12A 3231  -0.185   5.855  16.666  0.1474  1.1565  3.0042
   26DOPE  H12B 3232  -0.072   5.808  16.788 -0.2291  0.5872  0.2659
   26DOPE   C11 3233  -0.081   5.658  16.629 -0.1487 -0.0509  0.0018
   26DOPE  H11A 3234  -0.123   5.654  16.527 -0.4656  1.7281  0.0431
   26DOPE  H11B 3235  -0.144   5.594  16.694  0.1509 -2.5852 -2.0503
   26DOPE     P 3236   0.091   5.457  16.633 -0.3125 -0.0556  0.1310
   26DOPE   O13 3237   0.039   5.397  16.757 -0.4188  0.0137  0.0907
   26DOPE   O14 3238   0.232   5.444  16.612 -0.4058 -0.1245 -0.0753
   26DOPE   O11 3239   0.020   5.401  16.508 -0.2093  0.3047 -0.1179
   26DOPE   O12 3240   0.054   5.607  16.642  0.1536  0.6378 -0.2085
   26DOPE    C1 3241   0.045   5.270  16.463 -0.2336  0.3941 -0.3232
   26DOPE    HA 3242  -0.031   5.195  16.493 -0.7779 -0.3761 -3.3332
   26DOPE    HB 3243   0.144   5.238  16.502 -0.5009  0.2909  0.2763
   26DOPE    C2 3244   0.060   5.243  16.309  0.7461 -0.1717  0.1715
   26DOPE    HS 3245   0.087   5.136  16.295  0.9476  0.0135 -0.9883
   26DOPE   O21 3246   0.157   5.335  16.250 -0.0061  0.4334 -0.1840
   26DOPE   C21 3247   0.265   5.283  16.188 -0.1567  0.3218 -1.0882
   26DOPE   O22 3248   0.304   5.170  16.189 -0.2787 -0.0873 -0.3207
   26DOPE   C22 3249   0.332   5.393  16.112 -0.1115  0.1901 -0.2159
   26DOPE   H2R 3250   0.410   5.427  16.184  0.9717 -0.4923 -1.0323
   26DOPE   H2S 3251   0.258   5.474  16.096  1.3568  1.9451  1.3172
   26DOPE    C3 3252  -0.080   5.271  16.250 -0.2679  0.1523  0.0802
   26DOPE    HX 3253  -0.124   5.370  16.275  2.2045  1.2803  0.2099
   26DOPE    HY 3254  -0.144   5.195  16.299  1.8181 -1.9393 -0.2815
   26DOPE   O31 3255  -0.068   5.273  16.107 -0.3793 -0.0932  0.3608
   26DOPE   C31 3256  -0.065   5.162  16.046 -0.5874  0.1870 -0.2815
   26DOPE   O32 3257  -0.082   5.053  16.100 -0.4191  0.4234  0.3214
   26DOPE   C32 3258  -0.027   5.176  15.890 -0.2757  0.4243 -0.2008
   26DOPE   H2X 3259   0.085   5.175  15.886 -0.2537 -0.6942  0.2095
   26DOPE   H2Y 3260  -0.053   5.077  15.846  0.0426 -0.2590  1.0697
   26DOPE   C23 3261   0.387   5.341  15.977  0.2950 -0.7930  0.3337
   26DOPE   H3R 3262   0.333   5.251  15.940 -0.2225 -0.1841 -0.4366
   26DOPE   H3S 3263   0.494   5.317  15.987  0.7891  0.7845 -0.7459
   26DOPE   C24 3264   0.365   5.433  15.859  0.7956 -0.9334  0.4648
   26DOPE   H4R 3265   0.436   5.516  15.874  2.3332 -2.3529  1.3767
   26DOPE   H4S 3266   0.255   5.449  15.849  0.5307 -2.5757  0.3833
   26DOPE   C25 3267   0.398   5.357  15.729 -0.1712  0.3498 -0.6915
   26DOPE   H5R 3268   0.318   5.279  15.720  1.1977 -1.4817  1.8557
   26DOPE   H5S 3269   0.490   5.300  15.751 -0.7074 -0.2913 -0.0462
   26DOPE   C26 3270   0.412   5.431  15.599  0.4442 -0.1501 -0.5195
   26DOPE   H6R 3271   0.458   5.532  15.609 -0.9509  0.6290 -1.5050
   26DOPE   H6S 3272   0.309   5.442  15.560  0.0584 -0.3025  0.4255
   26DOPE   C27 3273   0.477   5.349  15.489  0.1928  0.2860 -0.0505
   26DOPE   H7R 3274   0.413   5.259  15.476  0.8594 -0.1488 -0.3391
   26DOPE   H7S 3275   0.576   5.318  15.528 -1.0015  0.6895  3.7853
   26DOPE   C28 3276   0.504   5.425  15.355 -0.1063  0.2024 -0.0822
   26DOPE   H8R 3277   0.557   5.360  15.281 -0.2575 -1.0789  0.9066
   26DOPE   H8S 3278   0.570   5.511  15.378  1.6628 -0.1377 -3.2102
   26DOPE   C29 3279   0.383   5.485  15.293  0.5012 -0.4645 -0.0489
   26DOPE   H9R 3280   0.314   5.533  15.364  1.5226 -0.3678  0.9095
   26DOPE  C210 3281   0.346   5.473  15.164  0.0126  0.0668 -0.4959
   26DOPE  H10R 3282   0.248   5.512  15.134  0.6668  0.2346 -2.6472
   26DOPE  C211 3283   0.431   5.414  15.058 -0.4785 -0.3213  0.3451
   26DOPE  H11R 3284   0.445   5.305  15.078 -2.9167 -0.9344 -0.9632
   26DOPE  H11S 3285   0.532   5.460  15.048 -2.1002  3.3601 -0.7214
   26DOPE  C212 3286   0.376   5.432  14.912  0.5642 -0.4603 -0.5559
   26DOPE  H12R 3287   0.268   5.403  14.912  0.5926 -0.8769 -3.2833
   26DOPE  H12S 3288   0.437   5.368  14.844 -0.0804  0.7480 -2.3512
   26DOPE  C213 3289   0.396   5.572  14.856 -0.0528 -0.6472  0.0416
   26DOPE  H13R 3290   0.503   5.600  14.861 -0.1623 -0.4513  2.4592
   26DOPE  H13S 3291   0.341   5.649  14.913 -0.3245 -1.2715  0.6452
   26DOPE  C214 3292   0.336   5.589  14.713  0.1361 -0.1684  0.0713
   26DOPE  H14R 3293   0.342   5.696  14.684 -1.2619  0.3731  1.5999
   26DOPE  H14S 3294   0.227   5.569  14.717  0.4337 -1.7383  1.6041
   26DOPE  C215 3295   0.411   5.509  14.598  0.8264 -0.3071 -0.3820
   26DOPE  H15R 3296   0.398   5.401  14.622 -1.7542 -0.0276 -0.2068
   26DOPE  H15S 3297   0.519   5.535  14.596  0.4179  1.4758 -0.9371
   26DOPE  C216 3298   0.338   5.534  14.467  0.6822  0.9025 -0.1093
   26DOPE  H16R 3299   0.230   5.554  14.483  0.1969 -1.4490 -0.0296
   26DOPE  H16S 3300   0.350   5.448  14.397  1.5657  4.6562 -5.1943
   26DOPE  C217 3301   0.397   5.640  14.381  0.2341  0.1215  0.2494
   26DOPE  H17R 3302   0.506   5.627  14.365  0.3427  1.5243 -0.2692
   26DOPE  H17S 3303   0.399   5.729  14.447  0.6108  0.9776 -0.8782
   26DOPE  C218 3304   0.331   5.667  14.245  0.2052  0.1120 -0.5027
   26DOPE  H18R 3305   0.380   5.752  14.193  0.2284 -0.5247 -1.5628
   26DOPE  H18S 3306   0.228   5.703  14.265  0.8000  0.6634  1.9272
   26DOPE  H18T 3307   0.335   5.589  14.165  0.7672  2.7306 -3.1870
   26DOPE   C33 3308  -0.098   5.295  15.825  0.3189  0.5385  0.4090
   26DOPE   H3X 3309  -0.108   5.385  15.889  1.9174  0.8626  0.2521
   26DOPE   H3Y 3310  -0.199   5.259  15.797  0.2981  1.6181 -1.0612
   26DOPE   C34 3311  -0.046   5.345  15.690 -0.0514  0.2858  0.3391
   26DOPE   H4X 3312   0.014   5.439  15.698  0.9377 -0.3807  1.0368
   26DOPE   H4Y 3313   0.038   5.275  15.671  0.8996  1.4824 -0.0736
   26DOPE   C35 3314  -0.151   5.347  15.576  0.1587  0.1866  0.7658
   26DOPE   H5X 3315  -0.233   5.420  15.587  1.1265  1.3966  0.2781
   26DOPE   H5Y 3316  -0.192   5.244  15.567  0.4204  0.2279 -2.1721
   26DOPE   C36 3317  -0.079   5.387  15.434 -0.6649  0.4407 -0.0460
   26DOPE   H6X 3318   0.001   5.311  15.425 -0.1779  0.4435  3.0747
   26DOPE   H6Y 3319  -0.044   5.492  15.446 -0.0491  0.5096 -2.1483
   26DOPE   C37 3320  -0.166   5.373  15.318  0.1922  1.0114 -0.2798
   26DOPE   H7X 3321  -0.270   5.399  15.349 -0.4133  0.6775 -1.9268
   26DOPE   H7Y 3322  -0.151   5.446  15.236 -1.6295 -0.3663 -1.9502
   26DOPE   C38 3323  -0.166   5.221  15.271 -0.1816  0.0119  1.0731
   26DOPE   H8X 3324  -0.168   5.154  15.360  0.2862 -0.4025  0.7729
   26DOPE   H8Y 3325  -0.070   5.208  15.218 -0.7182  2.6026 -0.7345
   26DOPE   C39 3326  -0.289   5.182  15.181  0.2321 -0.2794 -0.0443
   26DOPE   H9X 3327  -0.293   5.202  15.073 -0.4024  0.2298  0.0709
   26DOPE  C310 3328  -0.398   5.120  15.224 -0.6021 -0.6685 -0.0325
   26DOPE  H10X 3329  -0.475   5.103  15.146 -2.9742 -1.1140  2.2658
   26DOPE  C311 3330  -0.422   5.051  15.360  0.4127  0.5477  0.0234
   26DOPE  H11X 3331  -0.488   4.962  15.349  0.5659  0.1453  2.0323
   26DOPE  H11Y 3332  -0.324   5.018  15.401  1.4036  0.7063 -2.0655
   26DOPE  C312 3333  -0.489   5.136  15.467  0.0657  0.0426 -0.0295
   26DOPE  H12X 3334  -0.589   5.154  15.422  1.2146  0.5102 -2.5753
   26DOPE  H12Y 3335  -0.441   5.236  15.478 -0.3623  0.1263  1.2326
   26DOPE  C313 3336  -0.481   5.069  15.607 -0.6099 -0.4758  0.2375
   26DOPE  H13X 3337  -0.526   4.968  15.602  0.1801 -0.7949 -0.8483
   26DOPE  H13Y 3338  -0.378   5.058  15.646 -0.8808 -0.1777  1.0498
   26DOPE  C314 3339  -0.558   5.150  15.710  0.1886  0.0958 -0.3151
   26DOPE  H14X 3340  -0.657   5.193  15.686  0.3887 -0.2013 -1.7512
   26DOPE  H14Y 3341  -0.494   5.241  15.712  0.9255 -0.3732 -1.4300
   26DOPE  C315 3342  -0.548   5.080  15.844 -0.0700  0.0403 -0.6384
   26DOPE  H15X 3343  -0.443   5.055  15.871 -0.2236  0.6102  0.5520
   26DOPE  H15Y 3344  -0.611   4.989  15.857 -0.9972  0.5289 -1.6420
   26DOPE  C316 3345  -0.589   5.180  15.960  0.9019  0.0637  0.1794
   26DOPE  H16X 3346  -0.698   5.194  15.941  0.6924  3.0407  2.7488
   26DOPE  H16Y 3347  -0.537   5.275  15.938  1.2068 -0.9063 -4.2052
   26DOPE  C317 3348  -0.575   5.122  16.097 -0.3440 -0.3430  0.3330
   26DOPE  H17X 3349  -0.630   5.188  16.167 -1.1654  0.8429 -1.3795
   26DOPE  H17Y 3350  -0.608   5.017  16.111 -0.3333 -0.3975 -0.0629
   26DOPE  C318 3351  -0.428   5.126  16.143  0.2701 -0.1593  0.4744
   26DOPE  H18X 3352  -0.400   5.074  16.237  1.9002  0.1213  0.1788
   26DOPE  H18Y 3353  -0.367   5.058  16.080  1.4715 -0.2747  1.7036
   26DOPE  H18Z 3354  -0.377   5.224  16.135  1.8686 -0.9064  0.9164
   27DOPE     N 3355   4.174   4.288  17.005 -0.7212 -0.0665 -0.3976
   27DOPE   HN1 3356   4.196   4.217  16.932 -1.7652 -0.8687  0.0302
   27DOPE   HN2 3357   4.269   4.300  17.046 -0.4779 -1.0597 -0.6452
   27DOPE   HN3 3358   4.117   4.243  17.079  0.9422 -2.1202 -0.2657
   27DOPE   C12 3359   4.108   4.402  16.926  0.3066 -0.0650  0.7915
   27DOPE  H12A 3360   4.006   4.379  16.889  0.7503  1.1156 -1.2979
   27DOPE  H12B 3361   4.178   4.425  16.844  1.5269  0.6543  1.9954
   27DOPE   C11 3362   4.111   4.524  17.013 -0.0573  0.3689  0.9965
   27DOPE  H11A 3363   4.054   4.515  17.108 -1.0474 -1.5498  0.2660
   27DOPE  H11B 3364   4.076   4.611  16.954  0.4107 -0.5800 -0.7293
   27DOPE     P 3365   4.353   4.613  16.949  0.0921 -0.1089  0.2155
   27DOPE   O13 3366   4.429   4.497  16.905 -0.5495  0.4306  0.2132
   27DOPE   O14 3367   4.420   4.727  17.013 -0.4070  0.4225 -0.1684
   27DOPE   O11 3368   4.272   4.670  16.824 -0.1725 -0.4659  0.5131
   27DOPE   O12 3369   4.240   4.560  17.051 -0.7367 -0.1738 -0.7371
   27DOPE    C1 3370   4.308   4.656  16.688  0.3777  0.6096  0.3610
   27DOPE    HA 3371   4.318   4.551  16.653  0.6684  1.0830 -1.0505
   27DOPE    HB 3372   4.410   4.698  16.672 -1.0480  3.5847 -2.0262
   27DOPE    C2 3373   4.196   4.712  16.604  0.1510 -0.0858  0.8201
   27DOPE    HS 3374   4.230   4.718  16.498 -0.5232  1.4030  0.6634
   27DOPE   O21 3375   4.170   4.848  16.647 -0.1923 -0.2013  0.3381
   27DOPE   C21 3376   4.261   4.941  16.600  0.0539  0.5780 -0.1933
   27DOPE   O22 3377   4.366   4.917  16.546  0.3362 -0.1650  0.2853
   27DOPE   C22 3378   4.201   5.075  16.627 -0.3024 -0.4731  0.0956
   27DOPE   H2R 3379   4.285   5.133  16.583  0.6365 -0.9267  1.2533
   27DOPE   H2S 3380   4.195   5.105  16.734  1.1303  1.7567 -0.3744
   27DOPE    C3 3381   4.080   4.615  16.590  0.1066 -0.4328 -1.0167
   27DOPE    HX 3382   3.992   4.656  16.537 -1.8860 -2.7772  0.3024
   27DOPE    HY 3383   4.044   4.593  16.693  2.4879 -0.4599 -0.1182
   27DOPE   O31 3384   4.123   4.485  16.545 -0.1799 -0.4487 -0.4825
   27DOPE   C31 3385   4.036   4.394  16.528  0.1027  0.6496 -0.1376
   27DOPE   O32 3386   3.916   4.397  16.552 -0.2530 -0.4963  0.3133
   27DOPE   C32 3387   4.094   4.261  16.471  0.1155 -0.3917 -0.5747
   27DOPE   H2X 3388   4.144   4.213  16.558 -2.9274 -0.2478  1.3950
   27DOPE   H2Y 3389   4.007   4.199  16.441 -0.7504  0.4157  0.1991
   27DOPE   C23 3390   4.065   5.109  16.560 -0.2450 -0.6283  0.4272
   27DOPE   H3R 3391   4.018   5.194  16.615  0.2277 -0.1375  0.0841
   27DOPE   H3S 3392   3.990   5.028  16.576  1.1937 -2.1658 -0.3523
   27DOPE   C24 3393   4.077   5.149  16.408 -0.7630  0.2595 -0.1566
   27DOPE   H4R 3394   4.122   5.059  16.360  1.2098 -0.2796  2.4632
   27DOPE   H4S 3395   4.140   5.239  16.395  0.0265 -0.4201 -1.2401
   27DOPE   C25 3396   3.935   5.168  16.344 -0.0019 -0.2015 -0.6043
   27DOPE   H5R 3397   3.886   5.254  16.393  0.8915 -0.0417  0.0367
   27DOPE   H5S 3398   3.870   5.080  16.361  0.2993 -0.1340  1.0018
   27DOPE   C26 3399   3.944   5.194  16.193 -0.5338 -0.0722 -0.6299
   27DOPE   H6R 3400   3.973   5.102  16.139  1.4514  0.8071 -1.1592
   27DOPE   H6S 3401   4.022   5.272  16.176 -0.0229 -0.4470 -0.0404
   27DOPE   C27 3402   3.808   5.232  16.129  0.6030 -0.1401  0.5139
   27DOPE   H7R 3403   3.768   5.326  16.173 -2.2956 -0.7888 -0.5772
   27DOPE   H7S 3404   3.735   5.153  16.155  1.3221 -0.3492  2.0134
   27DOPE   C28 3405   3.835   5.246  15.972  0.2394  0.4575 -0.1796
   27DOPE   H8R 3406   3.850   5.143  15.933 -0.5474  0.3218 -0.1476
   27DOPE   H8S 3407   3.932   5.298  15.958  0.4747  0.1027  0.1073
   27DOPE   C29 3408   3.724   5.323  15.903  0.1769  0.2708 -0.0930
   27DOPE   H9R 3409   3.620   5.292  15.918 -1.3304  4.8501  0.7415
   27DOPE  C210 3410   3.737   5.447  15.851  0.6503  0.6473  0.0376
   27DOPE  H10R 3411   3.651   5.495  15.804 -0.3472  0.4248  1.5848
   27DOPE  C211 3412   3.858   5.525  15.843 -0.3932  0.6348  0.4084
   27DOPE  H11R 3413   3.918   5.519  15.936 -0.0030 -0.4637  0.1131
   27DOPE  H11S 3414   3.836   5.630  15.815 -0.4326 -0.0500 -2.4604
   27DOPE  C212 3415   3.948   5.466  15.731 -0.0143 -0.0873  0.5467
   27DOPE  H12R 3416   3.968   5.356  15.735 -2.7590 -0.6457  1.1673
   27DOPE  H12S 3417   4.049   5.510  15.740  1.1176 -2.6195  1.1711
   27DOPE  C213 3418   3.895   5.496  15.590 -0.0284 -0.3279 -0.0291
   27DOPE  H13R 3419   3.899   5.604  15.563  1.7202 -0.7182 -1.5717
   27DOPE  H13S 3420   3.797   5.445  15.584 -0.8762  0.5996  3.6241
   27DOPE  C214 3421   3.988   5.426  15.484 -0.3788  1.0634 -0.0260
   27DOPE  H14R 3422   4.009   5.320  15.509  2.5932  1.1528 -1.6211
   27DOPE  H14S 3423   4.082   5.485  15.472  0.3667 -0.0227  0.3758
   27DOPE  C215 3424   3.923   5.436  15.348  0.1573 -0.1184  0.4937
   27DOPE  H15R 3425   3.913   5.546  15.331  0.9355  0.4111  3.0569
   27DOPE  H15S 3426   3.821   5.391  15.345 -1.0681  2.4153  0.8330
   27DOPE  C216 3427   4.005   5.361  15.233 -0.1132 -0.4388  0.0513
   27DOPE  H16R 3428   3.987   5.252  15.222 -0.3072 -0.5033  0.9037
   27DOPE  H16S 3429   4.112   5.387  15.250 -0.2524 -0.2911  0.7173
   27DOPE  C217 3430   3.974   5.430  15.096 -0.1275 -0.8105  0.8869
   27DOPE  H17R 3431   4.001   5.534  15.122  0.5398 -0.3366 -1.4792
   27DOPE  H17S 3432   3.865   5.430  15.073  0.0767  0.0190 -0.1895
   27DOPE  C218 3433   4.050   5.390  14.968  0.0279 -0.4697 -0.3402
   27DOPE  H18R 3434   4.155   5.364  14.991 -0.4662 -1.4981  0.8829
   27DOPE  H18S 3435   4.049   5.477  14.899  0.8579  0.0691  0.3140
   27DOPE  H18T 3436   4.013   5.294  14.924  1.4242 -1.3785  0.3968
   27DOPE   C33 3437   4.196   4.263  16.357  0.0945 -0.3112  0.8606
   27DOPE   H3X 3438   4.238   4.161  16.347 -1.1549 -0.6794 -1.2062
   27DOPE   H3Y 3439   4.286   4.323  16.384  0.8241 -1.7303  1.7272
   27DOPE   C34 3440   4.129   4.309  16.223  0.5096  0.7829  0.1600
   27DOPE   H4X 3441   4.022   4.280  16.233  0.8615 -0.6734 -0.0287
   27DOPE   H4Y 3442   4.137   4.419  16.218  1.5984  0.7503  0.7772
   27DOPE   C35 3443   4.183   4.231  16.101 -0.0653  0.0415 -0.4290
   27DOPE   H5X 3444   4.180   4.122  16.122  1.1895 -0.0245 -0.5496
   27DOPE   H5Y 3445   4.291   4.254  16.090  0.0424  0.5745  1.3646
   27DOPE   C36 3446   4.106   4.251  15.971  0.9237  0.6879  0.1625
   27DOPE   H6X 3447   4.081   4.357  15.951  0.4201  0.6017  0.3113
   27DOPE   H6Y 3448   4.007   4.202  15.987  1.3992  0.0284  1.2570
   27DOPE   C37 3449   4.161   4.176  15.842  0.4605  0.3690  0.0282
   27DOPE   H7X 3450   4.239   4.233  15.786  0.7701  1.1275  1.1819
   27DOPE   H7Y 3451   4.202   4.083  15.887  2.1353  0.6923 -0.7234
   27DOPE   C38 3452   4.054   4.144  15.734  0.4644 -0.7016 -0.4765
   27DOPE   H8X 3453   3.977   4.081  15.784  1.4336 -0.6500  1.1702
   27DOPE   H8Y 3454   4.115   4.085  15.663  1.9986 -1.1963  1.1547
   27DOPE   C39 3455   3.980   4.264  15.679 -1.0805  0.7265  0.1800
   27DOPE   H9X 3456   3.894   4.296  15.740 -0.0322  1.6828  1.2105
   27DOPE  C310 3457   4.002   4.317  15.559 -0.0271 -0.3487 -0.5875
   27DOPE  H10X 3458   3.947   4.403  15.519 -0.3425 -0.6749 -0.8641
   27DOPE  C311 3459   4.109   4.265  15.458 -0.1049  0.1899  0.3325
   27DOPE  H11X 3460   4.207   4.296  15.501  0.1661  1.7109 -1.2759
   27DOPE  H11Y 3461   4.097   4.156  15.440 -5.3204  0.0667  2.6918
   27DOPE  C312 3462   4.095   4.321  15.319 -0.7039 -0.2319 -1.0644
   27DOPE  H12X 3463   4.148   4.418  15.330  0.3121 -1.0055  1.8567
   27DOPE  H12Y 3464   3.991   4.336  15.284 -0.9517  0.6946  0.0140
   27DOPE  C313 3465   4.162   4.241  15.201  0.5679 -0.2189  0.1782
   27DOPE  H13X 3466   4.271   4.242  15.222  0.5354 -0.8179  0.4083
   27DOPE  H13Y 3467   4.129   4.135  15.211  1.9812 -0.5884  1.1985
   27DOPE  C314 3468   4.138   4.297  15.055  0.2086 -0.0105 -0.4585
   27DOPE  H14X 3469   4.027   4.305  15.058  0.2470  0.3819  0.1362
   27DOPE  H14Y 3470   4.157   4.214  14.984 -1.3507 -0.7525 -0.0686
   27DOPE  C315 3471   4.205   4.430  15.018  0.2327 -0.4831 -0.7420
   27DOPE  H15X 3472   4.314   4.413  15.001  0.2220 -2.1664  0.5781
   27DOPE  H15Y 3473   4.195   4.497  15.106 -2.7481 -1.0426 -0.5445
   27DOPE  C316 3474   4.152   4.507  14.903 -0.8279 -0.5471 -0.4446
   27DOPE  H16X 3475   4.217   4.597  14.896  0.2833 -1.1352  1.5956
   27DOPE  H16Y 3476   4.047   4.541  14.921 -0.5713  0.9305 -1.5298
   27DOPE  C317 3477   4.162   4.428  14.769  0.2421  0.0417  0.5298
   27DOPE  H17X 3478   4.271   4.412  14.750  0.4070  0.2307  1.2881
   27DOPE  H17Y 3479   4.114   4.328  14.776  0.7443 -0.5066 -2.4997
   27DOPE  C318 3480   4.110   4.499  14.641  1.6680 -0.4464  0.7472
   27DOPE  H18X 3481   4.094   4.432  14.555  0.5817  3.5634 -2.5139
   27DOPE  H18Y 3482   4.006   4.533  14.661  1.0191  0.1227 -2.9773
   27DOPE  H18Z 3483   4.176   4.581  14.604  0.3633  0.1144 -0.3976
   28DOPE     N 3484   4.646   4.850  16.961  0.2574 -0.3094 -0.1622
   28DOPE   HN1 3485   4.570   4.794  17.004  0.4553  0.8026  1.7547
   28DOPE   HN2 3486   4.620   4.878  16.864 -1.6742 -2.4861 -0.3739
   28DOPE   HN3 3487   4.732   4.792  16.959  0.6281  0.1333  1.3509
   28DOPE   C12 3488   4.665   4.969  17.047  0.2089  0.1323  0.3005
   28DOPE  H12A 3489   4.732   5.035  16.988 -0.4697 -2.9622 -4.3866
   28DOPE  H12B 3490   4.717   4.938  17.140  0.3886 -1.8798 -0.4348
   28DOPE   C11 3491   4.530   5.043  17.069 -0.3380  0.8607 -0.7433
   28DOPE  H11A 3492   4.551   5.119  17.148 -0.7574 -0.3059  0.5254
   28DOPE  H11B 3493   4.455   4.970  17.105 -0.1416 -0.2333 -2.4232
   28DOPE     P 3494   4.528   5.225  16.888  0.3610 -0.1521  0.1018
   28DOPE   O13 3495   4.598   5.315  16.983 -0.1822  0.2844 -0.4063
   28DOPE   O14 3496   4.418   5.285  16.808 -0.2211 -0.2436 -0.1000
   28DOPE   O11 3497   4.628   5.161  16.788  0.1514 -0.4164  0.0021
   28DOPE   O12 3498   4.468   5.098  16.959  0.4217 -0.0060 -0.4953
   28DOPE    C1 3499   4.728   5.252  16.743  0.0822 -0.0719 -0.6639
   28DOPE    HA 3500   4.821   5.190  16.738 -0.7338 -1.5935  1.4094
   28DOPE    HB 3501   4.758   5.338  16.805 -2.7577  0.6752 -0.1985
   28DOPE    C2 3502   4.700   5.297  16.601 -0.0115  0.5082 -0.3198
   28DOPE    HS 3503   4.615   5.368  16.606  1.1442  1.9603 -0.6713
   28DOPE   O21 3504   4.679   5.186  16.518 -0.4681 -0.6024 -0.6258
   28DOPE   C21 3505   4.562   5.189  16.450 -0.5103 -0.6629 -0.0470
   28DOPE   O22 3506   4.474   5.274  16.464  0.1186  0.4344 -0.2240
   28DOPE   C22 3507   4.563   5.082  16.338  0.1675 -1.0027  0.1466
   28DOPE   H2R 3508   4.567   4.979  16.378 -1.0197 -1.0906  0.0647
   28DOPE   H2S 3509   4.656   5.104  16.282 -1.4015 -0.6179 -2.4476
   28DOPE    C3 3510   4.813   5.392  16.556  0.1781 -0.1351  0.1758
   28DOPE    HX 3511   4.915   5.347  16.557  0.4091  0.3812  0.1232
   28DOPE    HY 3512   4.822   5.477  16.626  0.7883 -0.8534  0.9957
   28DOPE   O31 3513   4.785   5.429  16.421  0.1971  0.2837 -0.0324
   28DOPE   C31 3514   4.859   5.357  16.320  0.3377 -0.2637 -0.2771
   28DOPE   O32 3515   4.938   5.271  16.343 -0.2697  0.2981  0.0218
   28DOPE   C32 3516   4.816   5.414  16.183 -0.2006  0.8172  0.5991
   28DOPE   H2X 3517   4.709   5.442  16.191 -0.0054  1.0782  3.7230
   28DOPE   H2Y 3518   4.880   5.505  16.174  1.1333  0.0641  1.9669
   28DOPE   C23 3519   4.436   5.099  16.250 -0.2471  0.3753 -0.0985
   28DOPE   H3R 3520   4.411   5.207  16.242  0.5150  0.5881  0.3205
   28DOPE   H3S 3521   4.352   5.048  16.303 -1.9584  0.9662 -2.1145
   28DOPE   C24 3522   4.446   5.032  16.115 -0.3053 -0.5654 -0.0228
   28DOPE   H4R 3523   4.476   4.925  16.109 -1.8932 -1.0759  0.6396
   28DOPE   H4S 3524   4.523   5.084  16.054 -0.8235 -0.4139 -0.5596
   28DOPE   C25 3525   4.315   5.049  16.035  0.3026 -0.5943  0.5976
   28DOPE   H5R 3526   4.296   5.158  16.039 -0.1055 -0.6254 -0.2536
   28DOPE   H5S 3527   4.223   5.013  16.087 -0.3708  0.9866  0.5402
   28DOPE   C26 3528   4.309   4.977  15.902 -0.1897 -0.4244 -0.1582
   28DOPE   H6R 3529   4.233   4.897  15.913  0.0489 -0.8015 -1.1151
   28DOPE   H6S 3530   4.408   4.932  15.878  1.5471  1.1067  3.3782
   28DOPE   C27 3531   4.280   5.075  15.790  0.0973 -0.0591  0.2982
   28DOPE   H7R 3532   4.352   5.157  15.808 -3.2304  2.9208  1.3712
   28DOPE   H7S 3533   4.180   5.118  15.814  0.1134  0.6879 -0.9051
   28DOPE   C28 3534   4.267   5.021  15.648  0.0120 -0.2159  0.0367
   28DOPE   H8R 3535   4.192   4.939  15.658 -0.2909  0.3295  4.3332
   28DOPE   H8S 3536   4.366   4.983  15.614 -0.0707 -1.0902  0.7293
   28DOPE   C29 3537   4.203   5.126  15.559 -0.9230  0.5820  0.1411
   28DOPE   H9R 3538   4.124   5.186  15.607 -0.8580  1.0538 -0.3204
   28DOPE  C210 3539   4.247   5.175  15.438  0.1440  0.1510 -0.0960
   28DOPE  H10R 3540   4.181   5.241  15.381 -0.2478 -0.0441  0.1278
   28DOPE  C211 3541   4.368   5.127  15.358  0.7828 -0.2952  0.1964
   28DOPE  H11R 3542   4.434   5.073  15.429 -1.0891  0.3303  2.5676
   28DOPE  H11S 3543   4.432   5.206  15.314  1.7087  0.0058  2.0007
   28DOPE  C212 3544   4.323   5.034  15.254  0.2528 -0.5005  0.4427
   28DOPE  H12R 3545   4.258   5.082  15.178  1.6760  0.8628  0.0449
   28DOPE  H12S 3546   4.275   4.941  15.291 -0.4729 -0.4668 -0.3822
   28DOPE  C213 3547   4.448   4.994  15.171  0.0327  0.7842  0.7725
   28DOPE  H13R 3548   4.523   4.948  15.240 -0.0983 -3.1759 -1.4006
   28DOPE  H13S 3549   4.484   5.095  15.142  1.7938  0.2456  0.9249
   28DOPE  C214 3550   4.425   4.905  15.056  0.7842 -0.0751  0.4723
   28DOPE  H14R 3551   4.381   4.809  15.091  0.0032  0.0563 -0.1227
   28DOPE  H14S 3552   4.517   4.887  14.998  0.1241 -0.3690 -0.5006
   28DOPE  C215 3553   4.322   4.961  14.948  0.1139  0.4335  0.2348
   28DOPE  H15R 3554   4.374   5.056  14.922 -0.7341  0.6234 -0.8632
   28DOPE  H15S 3555   4.218   4.969  14.986  0.4646  0.2110  1.2744
   28DOPE  C216 3556   4.331   4.879  14.814  0.4349 -0.2849  0.0493
   28DOPE  H16R 3557   4.274   4.785  14.830  1.6629 -1.2470 -1.0748
   28DOPE  H16S 3558   4.436   4.856  14.785  0.3521 -1.0388  0.3375
   28DOPE  C217 3559   4.273   4.980  14.707  0.2943 -0.3441 -0.0554
   28DOPE  H17R 3560   4.341   5.065  14.685  0.2405 -0.6064 -1.3117
   28DOPE  H17S 3561   4.184   5.036  14.742  0.3092  0.1859 -0.8381
   28DOPE  C218 3562   4.250   4.908  14.581  0.0430  0.2713  0.0806
   28DOPE  H18R 3563   4.243   4.981  14.497  0.2505  0.2830  0.0716
   28DOPE  H18S 3564   4.163   4.841  14.593 -0.0697  0.4480  0.2510
   28DOPE  H18T 3565   4.334   4.836  14.570  0.7596  0.5621  2.9324
   28DOPE   C33 3566   4.852   5.307  16.073  0.6099  0.6033  0.1582
   28DOPE   H3X 3567   4.789   5.216  16.082  1.3926 -0.1836 -1.6799
   28DOPE   H3Y 3568   4.954   5.268  16.095  0.8458  0.3610 -1.2134
   28DOPE   C34 3569   4.849   5.372  15.932 -0.1404  0.2645  1.2214
   28DOPE   H4X 3570   4.754   5.419  15.901  0.6318  0.1030 -1.7263
   28DOPE   H4Y 3571   4.929   5.450  15.936  1.4779 -1.0538 -1.8337
   28DOPE   C35 3572   4.876   5.275  15.820 -0.3039  0.4046 -0.7930
   28DOPE   H5X 3573   4.798   5.196  15.818 -0.5130  0.5039  1.1926
   28DOPE   H5Y 3574   4.973   5.224  15.837  0.2943  1.5182 -0.7119
   28DOPE   C36 3575   4.861   5.341  15.681  0.5990 -0.1267  0.2210
   28DOPE   H6X 3576   4.859   5.451  15.695 -1.1800 -0.4425  3.1402
   28DOPE   H6Y 3577   4.759   5.323  15.642  1.1936  0.4371 -1.7664
   28DOPE   C37 3578   4.953   5.284  15.572 -0.6002 -0.5307  0.1384
   28DOPE   H7X 3579   5.058   5.314  15.590 -0.5155  0.0723 -1.2085
   28DOPE   H7Y 3580   4.952   5.173  15.572 -2.0266 -0.6026 -2.5048
   28DOPE   C38 3581   4.913   5.316  15.428 -0.0493  0.2401  0.4476
   28DOPE   H8X 3582   4.993   5.285  15.358 -1.1739 -0.5217 -0.5433
   28DOPE   H8Y 3583   4.904   5.425  15.408 -1.3220  0.3833  1.7119
   28DOPE   C39 3584   4.787   5.255  15.376  0.4575  0.1604 -0.4132
   28DOPE   H9X 3585   4.734   5.192  15.449  0.5264 -0.6238 -1.0268
   28DOPE  C310 3586   4.750   5.271  15.245 -0.1419 -0.0542  0.3585
   28DOPE  H10X 3587   4.656   5.225  15.210 -0.8696  1.7056 -0.1296
   28DOPE  C311 3588   4.823   5.344  15.138  0.1090  0.4657  0.7030
   28DOPE  H11X 3589   4.757   5.416  15.086  1.4419 -0.0029 -1.7519
   28DOPE  H11Y 3590   4.912   5.403  15.169 -0.2211  1.5302 -0.3030
   28DOPE  C312 3591   4.865   5.243  15.030 -0.2076  0.1782  0.3870
   28DOPE  H12X 3592   4.920   5.155  15.071 -0.1589  0.9798  2.0936
   28DOPE  H12Y 3593   4.926   5.304  14.960 -1.6249  1.5808  0.3224
   28DOPE  C313 3594   4.749   5.171  14.950  0.4129 -0.5265 -0.0649
   28DOPE  H13X 3595   4.717   5.088  15.017 -0.2403  0.6940  1.1834
   28DOPE  H13Y 3596   4.670   5.247  14.930  1.3255 -0.2103 -2.9039
   28DOPE  C314 3597   4.783   5.114  14.815  0.0975  0.4354  0.3306
   28DOPE  H14X 3598   4.859   5.034  14.828 -0.0685  0.3086  0.5245
   28DOPE  H14Y 3599   4.838   5.185  14.749  1.5722 -2.2062 -1.4815
   28DOPE  C315 3600   4.660   5.061  14.729 -0.4693  0.4614 -0.5889
   28DOPE  H15X 3601   4.585   5.142  14.731 -1.4260 -0.3985 -0.4458
   28DOPE  H15Y 3602   4.615   4.969  14.772 -0.9932 -0.0446 -2.1513
   28DOPE  C316 3603   4.695   5.035  14.582 -0.4231 -0.3282 -0.2212
   28DOPE  H16X 3604   4.703   5.130  14.526  5.0399 -0.2870  0.1319
   28DOPE  H16Y 3605   4.620   4.975  14.527  2.2593 -4.8938  0.6035
   28DOPE  C317 3606   4.832   4.964  14.563  0.7076 -0.5344  0.7862
   28DOPE  H17X 3607   4.919   5.022  14.600  0.8479 -0.3547  0.1835
   28DOPE  H17Y 3608   4.828   4.868  14.619 -1.0998 -0.1343  1.4110
   28DOPE  C318 3609   4.856   4.936  14.422 -0.2975 -0.4158  0.6813
   28DOPE  H18X 3610   4.771   4.876  14.383  0.3347  0.7624 -2.9403
   28DOPE  H18Y 3611   4.856   5.021  14.350  0.5016 -0.5822  0.4751
   28DOPE  H18Z 3612   4.952   4.881  14.408  0.5860  1.5402 -1.6926
   29DOPE     N 3613   6.116   0.444  16.888  0.5725 -0.8574 -0.9502
   29DOPE   HN1 3614   6.070   0.369  16.943  0.8243 -1.4963 -1.5867
   29DOPE   HN2 3615   6.214   0.410  16.872  0.8742 -1.1499  1.2551
   29DOPE   HN3 3616   6.116   0.537  16.934  0.9174 -1.7473  0.9122
   29DOPE   C12 3617   6.036   0.467  16.761  0.0018  0.0952 -0.2448
   29DOPE  H12A 3618   6.075   0.555  16.705 -0.3591  1.6827  1.8672
   29DOPE  H12B 3619   5.931   0.490  16.788 -0.4785  2.5195 -3.6420
   29DOPE   C11 3620   6.025   0.352  16.658  0.2399  0.2586  0.5530
   29DOPE  H11A 3621   6.127   0.340  16.615 -1.0718 -1.2802 -2.4716
   29DOPE  H11B 3622   5.956   0.373  16.574 -0.6329 -0.9634  0.9264
   29DOPE     P 3623   6.045   0.094  16.713 -0.1149 -0.2586  0.1810
   29DOPE   O13 3624   5.954   0.007  16.789 -0.3137  0.6566 -0.2725
   29DOPE   O14 3625   6.177   0.111  16.766  0.4247 -0.0356 -0.5099
   29DOPE   O11 3626   6.057   0.052  16.562  0.4579 -0.0354  0.4103
   29DOPE   O12 3627   5.981   0.235  16.717  0.3259 -0.0321 -0.2622
   29DOPE    C1 3628   6.032  -0.071  16.507 -0.0128  0.0766 -0.2323
   29DOPE    HA 3629   6.013  -0.059  16.399 -2.7393 -1.2856  0.0093
   29DOPE    HB 3630   5.940  -0.114  16.551  0.4915 -1.7413 -0.8587
   29DOPE    C2 3631   6.169  -0.155  16.517 -0.1991 -0.1725  0.6308
   29DOPE    HS 3632   6.172  -0.187  16.623 -2.1511 -1.4789  0.3458
   29DOPE   O21 3633   6.283  -0.080  16.475  0.4989  0.1195 -0.0434
   29DOPE   C21 3634   6.396  -0.130  16.526 -0.5587 -0.2551  0.6162
   29DOPE   O22 3635   6.412  -0.231  16.592  0.0338 -0.4593 -0.0371
   29DOPE   C22 3636   6.514  -0.045  16.491 -0.1900  0.0739 -0.0025
   29DOPE   H2R 3637   6.546   0.014  16.579 -1.0550  0.4311  0.0862
   29DOPE   H2S 3638   6.478   0.029  16.417 -2.9296  1.5188  2.5824
   29DOPE    C3 3639   6.154  -0.289  16.438 -0.5781  0.5852  0.2435
   29DOPE    HX 3640   6.061  -0.335  16.477 -1.1835  0.8056 -0.9026
   29DOPE    HY 3641   6.230  -0.366  16.463 -1.3360  0.0093  0.7856
   29DOPE   O31 3642   6.136  -0.269  16.293 -0.2988 -0.0367 -0.2702
   29DOPE   C31 3643   6.201  -0.337  16.203 -0.4970 -0.0755 -0.5579
   29DOPE   O32 3644   6.285  -0.426  16.225 -0.2277  0.3319  0.3068
   29DOPE   C32 3645   6.161  -0.279  16.065  0.2800 -0.0292 -0.4051
   29DOPE   H2X 3646   6.051  -0.268  16.066  0.4715  2.5352 -0.1182
   29DOPE   H2Y 3647   6.206  -0.177  16.056  0.2717 -0.1012 -1.4348
   29DOPE   C23 3648   6.630  -0.122  16.430  0.3192  0.2287 -0.0475
   29DOPE   H3R 3649   6.666  -0.195  16.505 -3.5152  0.8886  2.7280
   29DOPE   H3S 3650   6.716  -0.053  16.413  1.8223 -0.9118  2.4026
   29DOPE   C24 3651   6.591  -0.185  16.291 -0.3423  0.5546  0.2228
   29DOPE   H4R 3652   6.501  -0.248  16.303 -1.8433  2.5005 -0.3414
   29DOPE   H4S 3653   6.669  -0.260  16.265 -1.6271 -0.7763  0.0803
   29DOPE   C25 3654   6.598  -0.076  16.180  0.1653  0.2332 -0.2643
   29DOPE   H5R 3655   6.703  -0.039  16.175  0.3449 -0.3116 -0.6122
   29DOPE   H5S 3656   6.541   0.018  16.195  2.1974  1.5185 -0.2241
   29DOPE   C26 3657   6.562  -0.125  16.041  0.9822 -0.2603 -0.1197
   29DOPE   H6R 3658   6.454  -0.147  16.036  0.8114  0.4588  0.2873
   29DOPE   H6S 3659   6.614  -0.223  16.029  2.0919  0.0898  1.5322
   29DOPE   C27 3660   6.607  -0.027  15.930  0.2314  0.1627 -0.3643
   29DOPE   H7R 3661   6.717  -0.022  15.916 -0.0186  1.3312 -2.4306
   29DOPE   H7S 3662   6.580   0.076  15.963  1.2126  0.7203 -1.2454
   29DOPE   C28 3663   6.531  -0.035  15.792 -0.6965  0.4622  0.3811
   29DOPE   H8R 3664   6.528   0.062  15.738 -1.2550 -0.4500 -1.3046
   29DOPE   H8S 3665   6.429  -0.060  15.827 -0.4606 -0.7735  0.2315
   29DOPE   C29 3666   6.588  -0.151  15.708 -0.1282 -0.5408  0.1452
   29DOPE   H9R 3667   6.573  -0.252  15.749 -2.1100 -0.6883 -0.8238
   29DOPE  C210 3668   6.659  -0.143  15.594 -0.2709  0.0180  0.2179
   29DOPE  H10R 3669   6.694  -0.241  15.560  0.0694  0.0485  0.4670
   29DOPE  C211 3670   6.705  -0.024  15.516  0.1398  0.8864  0.8067
   29DOPE  H11R 3671   6.815  -0.008  15.517  0.2552  0.1690  0.8177
   29DOPE  H11S 3672   6.651   0.066  15.553 -2.5216 -1.0040  1.8637
   29DOPE  C212 3673   6.683  -0.035  15.370 -0.2854  0.2070 -0.1579
   29DOPE  H12R 3674   6.577  -0.019  15.341 -0.0148  2.2306 -0.2193
   29DOPE  H12S 3675   6.722  -0.136  15.345 -2.7589 -0.9238  0.3181
   29DOPE  C213 3676   6.761   0.067  15.292 -0.2367 -0.2146  0.1568
   29DOPE  H13R 3677   6.870   0.056  15.306 -0.3216  0.2909  1.3117
   29DOPE  H13S 3678   6.742   0.170  15.331 -1.4555  0.4221 -1.9222
   29DOPE  C214 3679   6.723   0.076  15.145  0.2533  0.7842 -0.8499
   29DOPE  H14R 3680   6.617   0.103  15.127  0.4763  1.5951 -0.9824
   29DOPE  H14S 3681   6.742  -0.028  15.111  2.2471  0.5098  0.8654
   29DOPE  C215 3682   6.827   0.163  15.074 -0.4516  0.1793 -0.2041
   29DOPE  H15R 3683   6.922   0.106  15.082 -1.9910 -2.4815  0.3365
   29DOPE  H15S 3684   6.844   0.252  15.139 -0.2277 -0.1716  0.2267
   29DOPE  C216 3685   6.775   0.195  14.938 -0.0589 -0.4248  0.5203
   29DOPE  H16R 3686   6.682   0.251  14.961 -0.1491 -0.8268  1.1624
   29DOPE  H16S 3687   6.744   0.098  14.892 -3.2822  1.4006 -1.5398
   29DOPE  C217 3688   6.861   0.286  14.850 -0.6984 -0.7491 -0.0493
   29DOPE  H17R 3689   6.957   0.234  14.828 -0.6720 -0.6387 -0.1949
   29DOPE  H17S 3690   6.870   0.388  14.895  0.7819 -1.0867  0.4826
   29DOPE  C218 3691   6.809   0.312  14.707  0.6183  0.1537  0.6794
   29DOPE  H18R 3692   6.705   0.274  14.705  0.5869  0.2488  0.3078
   29DOPE  H18S 3693   6.861   0.249  14.631 -0.2552 -0.7175  0.7753
   29DOPE  H18T 3694   6.808   0.421  14.688 -2.3184 -0.1288 -1.4633
   29DOPE   C33 3695   6.236  -0.350  15.950  0.8471 -0.6721  0.1867
   29DOPE   H3X 3696   6.225  -0.460  15.965 -1.1714 -0.2113  3.1142
   29DOPE   H3Y 3697   6.344  -0.331  15.940  0.0594  3.8880 -1.7637
   29DOPE   C34 3698   6.177  -0.337  15.809  0.6436 -0.0131 -0.6088
   29DOPE   H4X 3699   6.090  -0.406  15.801  1.2851 -0.7398 -1.4272
   29DOPE   H4Y 3700   6.147  -0.231  15.799 -0.1163 -0.0631  0.8606
   29DOPE   C35 3701   6.253  -0.353  15.691 -0.4415 -0.9888  0.5352
   29DOPE   H5X 3702   6.283  -0.459  15.688 -0.9149 -1.1568  1.3237
   29DOPE   H5Y 3703   6.352  -0.306  15.708 -0.3533 -1.1199  0.3789
   29DOPE   C36 3704   6.181  -0.311  15.564  0.3201 -0.1914  0.7035
   29DOPE   H6X 3705   6.157  -0.202  15.561  1.2813  0.0349 -2.4926
   29DOPE   H6Y 3706   6.083  -0.363  15.568  0.2408 -0.0693  0.3805
   29DOPE   C37 3707   6.259  -0.363  15.449 -0.5081  0.3781 -0.4152
   29DOPE   H7X 3708   6.358  -0.313  15.451 -0.7263  0.8328  1.4348
   29DOPE   H7Y 3709   6.264  -0.472  15.466 -1.1646  0.6348  1.6647
   29DOPE   C38 3710   6.182  -0.329  15.315  0.4362  0.2625 -0.6715
   29DOPE   H8X 3711   6.167  -0.219  15.324  1.1368  0.2038  3.4765
   29DOPE   H8Y 3712   6.082  -0.376  15.312  0.1858  0.8238 -1.1371
   29DOPE   C39 3713   6.259  -0.378  15.194 -0.1221 -0.1574 -0.4677
   29DOPE   H9X 3714   6.254  -0.488  15.189 -0.3817 -0.2222  0.8580
   29DOPE  C310 3715   6.338  -0.306  15.115  0.0480  0.2425  0.5735
   29DOPE  H10X 3716   6.378  -0.353  15.024  2.2674  1.0361  1.0815
   29DOPE  C311 3717   6.367  -0.163  15.122 -0.3060  0.1309 -0.2181
   29DOPE  H11X 3718   6.298  -0.117  15.195  0.1809  0.6219 -0.0629
   29DOPE  H11Y 3719   6.473  -0.149  15.152 -0.0518 -0.6232 -0.7245
   29DOPE  C312 3720   6.350  -0.084  14.985 -0.8348  0.4941  0.1286
   29DOPE  H12X 3721   6.366   0.022  15.012 -1.5796  0.3423  1.2220
   29DOPE  H12Y 3722   6.248  -0.091  14.940 -0.6510  0.1678 -0.2493
   29DOPE  C313 3723   6.452  -0.126  14.880 -0.2666  0.1301 -0.4987
   29DOPE  H13X 3724   6.548  -0.160  14.925 -1.5372 -2.1135  0.6927
   29DOPE  H13Y 3725   6.409  -0.219  14.837 -0.2777 -0.4870  0.8026
   29DOPE  C314 3726   6.475  -0.015  14.779 -0.3659  0.9375  0.1542
   29DOPE  H14X 3727   6.544   0.056  14.828  2.1026 -1.2441  0.1023
   29DOPE  H14Y 3728   6.378   0.025  14.743 -1.2085 -0.3638  0.8850
   29DOPE  C315 3729   6.534  -0.081  14.651 -0.0594 -0.3222  0.4298
   29DOPE  H15X 3730   6.557  -0.000  14.579 -1.6238  0.0878  0.3601
   29DOPE  H15Y 3731   6.457  -0.146  14.604  0.7058 -0.6620 -0.3750
   29DOPE  C316 3732   6.650  -0.176  14.663  0.0074  0.6678  0.2741
   29DOPE  H16X 3733   6.621  -0.259  14.729  1.7253  1.1369  1.7061
   29DOPE  H16Y 3734   6.727  -0.112  14.712 -1.4958  3.9176 -1.2292
   29DOPE  C317 3735   6.713  -0.217  14.525  0.3236 -0.1867  0.0076
   29DOPE  H17X 3736   6.638  -0.271  14.463 -0.5377  1.4410 -0.4399
   29DOPE  H17Y 3737   6.727  -0.122  14.468 -1.6025  0.7649  1.0157
   29DOPE  C318 3738   6.843  -0.293  14.540  0.2746 -0.5536 -0.0742
   29DOPE  H18X 3739   6.901  -0.242  14.620 -0.4829  0.6446 -0.2694
   29DOPE  H18Y 3740   6.815  -0.397  14.569 -3.3716  0.9277  2.4836
   29DOPE  H18Z 3741   6.897  -0.293  14.443  0.1175 -1.9543 -0.1896
   30DOPE     N 3742   5.637   5.971  17.357  0.1869  0.8437 -0.3655
   30DOPE   HN1 3743   5.558   5.986  17.290  1.4060  1.0738 -1.7952
   30DOPE   HN2 3744   5.599   5.968  17.454  0.8053 -1.2878 -0.1432
   30DOPE   HN3 3745   5.700   6.051  17.337 -1.1805  1.2642 -3.6674
   30DOPE   C12 3746   5.705   5.848  17.316  0.0412  0.5565 -0.7706
   30DOPE  H12A 3747   5.808   5.844  17.356 -0.9370  1.7323  2.0969
   30DOPE  H12B 3748   5.718   5.854  17.205 -0.4336  0.0153 -0.8592
   30DOPE   C11 3749   5.611   5.729  17.348 -0.1878  0.0052 -0.4125
   30DOPE  H11A 3750   5.530   5.732  17.272 -0.9014  1.0307  0.3709
   30DOPE  H11B 3751   5.566   5.745  17.449 -3.8912 -1.7557 -1.6095
   30DOPE     P 3752   5.599   5.473  17.340 -0.2515 -0.2199 -0.0274
   30DOPE   O13 3753   5.467   5.511  17.394 -0.3027 -0.1218  0.4732
   30DOPE   O14 3754   5.672   5.365  17.401 -0.2893  0.3209  0.6965
   30DOPE   O11 3755   5.583   5.440  17.185 -0.1823  0.0299 -0.5557
   30DOPE   O12 3756   5.687   5.603  17.346  0.7810 -0.0321 -0.4480
   30DOPE    C1 3757   5.673   5.495  17.091  0.0823  0.2590 -0.2399
   30DOPE    HA 3758   5.777   5.459  17.093 -0.0276 -0.2529 -1.9413
   30DOPE    HB 3759   5.684   5.606  17.099 -0.9882  0.5260 -1.8187
   30DOPE    C2 3760   5.628   5.471  16.942 -0.1968  0.3130 -0.2185
   30DOPE    HS 3761   5.695   5.522  16.870  0.3859 -0.0931  0.0314
   30DOPE   O21 3762   5.503   5.532  16.940  0.4536 -0.3803  0.7103
   30DOPE   C21 3763   5.474   5.599  16.830  0.2692  0.5303 -0.1435
   30DOPE   O22 3764   5.543   5.631  16.737 -0.0758  0.6167 -0.0053
   30DOPE   C22 3765   5.327   5.646  16.846 -0.0369 -1.0431 -0.3082
   30DOPE   H2R 3766   5.326   5.686  16.950 -1.3485 -0.8391 -0.3777
   30DOPE   H2S 3767   5.259   5.559  16.831 -1.0984 -0.1971 -0.4582
   30DOPE    C3 3768   5.617   5.317  16.916 -0.5081  0.3550 -0.0187
   30DOPE    HX 3769   5.528   5.283  16.973 -0.6952  0.6308 -0.1437
   30DOPE    HY 3770   5.704   5.258  16.953 -0.2150  1.5797  1.3391
   30DOPE   O31 3771   5.590   5.296  16.777 -0.4013 -0.0629  0.2357
   30DOPE   C31 3772   5.690   5.316  16.696 -0.9004  0.2505  0.5351
   30DOPE   O32 3773   5.804   5.343  16.726 -0.0877  0.0719  0.4557
   30DOPE   C32 3774   5.643   5.293  16.552 -0.3157  0.3885  0.2248
   30DOPE   H2X 3775   5.645   5.183  16.534 -0.1291  0.4213  0.0443
   30DOPE   H2Y 3776   5.536   5.320  16.539  0.0885  1.2959 -1.3792
   30DOPE   C23 3777   5.285   5.755  16.745  0.3399  0.6616  1.0675
   30DOPE   H3R 3778   5.361   5.836  16.735 -0.2630  0.9780 -1.8096
   30DOPE   H3S 3779   5.192   5.806  16.778  0.4355  0.7440  1.2106
   30DOPE   C24 3780   5.268   5.702  16.598  0.0689 -0.5764 -0.9882
   30DOPE   H4R 3781   5.161   5.674  16.585  0.3658 -2.3484  0.0747
   30DOPE   H4S 3782   5.336   5.614  16.593  1.7009  0.5209  0.5681
   30DOPE   C25 3783   5.313   5.793  16.479 -0.6028 -0.6754 -0.4716
   30DOPE   H5R 3784   5.420   5.816  16.499 -1.1051  0.2451  1.2934
   30DOPE   H5S 3785   5.254   5.885  16.458  1.3201  0.4591 -1.1254
   30DOPE   C26 3786   5.293   5.726  16.337 -0.4879 -0.0557 -0.0519
   30DOPE   H6R 3787   5.335   5.625  16.353 -0.8928 -0.0672  1.0511
   30DOPE   H6S 3788   5.340   5.774  16.248 -2.1953  0.0435 -0.9576
   30DOPE   C27 3789   5.136   5.716  16.305 -0.2666  0.5373  0.1846
   30DOPE   H7R 3790   5.092   5.813  16.336  0.1103  0.7064  0.1984
   30DOPE   H7S 3791   5.102   5.632  16.369  1.1701 -0.1511  0.0758
   30DOPE   C28 3792   5.110   5.680  16.158 -1.1574  0.3385 -0.1548
   30DOPE   H8R 3793   5.001   5.665  16.140 -1.7057  2.3990  1.1181
   30DOPE   H8S 3794   5.170   5.590  16.135 -2.7077 -0.3214 -1.8839
   30DOPE   C29 3795   5.150   5.793  16.062  0.0046  0.1370  0.1345
   30DOPE   H9R 3796   5.126   5.891  16.106  0.2859 -0.5499  1.8679
   30DOPE  C210 3797   5.175   5.783  15.934 -0.2612 -0.0215  0.5351
   30DOPE  H10R 3798   5.203   5.870  15.872  0.5002 -0.0659  0.8005
   30DOPE  C211 3799   5.180   5.655  15.862  0.3862 -0.3275  0.1943
   30DOPE  H11R 3800   5.158   5.567  15.925  0.7915  0.5350  1.5683
   30DOPE  H11S 3801   5.268   5.629  15.799  0.8572  1.0532  0.2614
   30DOPE  C212 3802   5.066   5.669  15.757  0.4084 -0.0007 -0.0707
   30DOPE  H12R 3803   4.974   5.709  15.804 -0.1901 -0.7326 -0.6045
   30DOPE  H12S 3804   5.042   5.567  15.723  0.8902 -0.8757  2.0219
   30DOPE  C213 3805   5.111   5.738  15.623 -0.5294 -0.4741 -0.1506
   30DOPE  H13R 3806   5.201   5.682  15.588 -1.1806 -1.2214 -0.6765
   30DOPE  H13S 3807   5.142   5.844  15.636  0.9247 -0.9446  0.4216
   30DOPE  C214 3808   4.998   5.712  15.518 -0.0233  0.1046  0.5171
   30DOPE  H14R 3809   4.904   5.768  15.538  0.3203  0.2353  1.8421
   30DOPE  H14S 3810   4.977   5.603  15.507 -1.0943  0.0320  2.7223
   30DOPE  C215 3811   5.053   5.747  15.378  0.0038  0.8781  0.7999
   30DOPE  H15R 3812   5.164   5.743  15.376  0.0482  1.8477  0.8743
   30DOPE  H15S 3813   5.025   5.853  15.359 -3.4888  0.1666  1.3130
   30DOPE  C216 3814   4.992   5.675  15.259 -0.3955  0.0901 -0.4965
   30DOPE  H16R 3815   4.882   5.680  15.278 -0.3643  1.2561 -0.5779
   30DOPE  H16S 3816   5.022   5.568  15.267  3.6755  1.0842 -0.4048
   30DOPE  C217 3817   5.030   5.751  15.125 -0.1013 -0.3451 -0.3902
   30DOPE  H17R 3818   5.065   5.855  15.138 -0.4347 -0.0033 -1.9713
   30DOPE  H17S 3819   4.944   5.754  15.055 -0.1008  1.3814 -0.3533
   30DOPE  C218 3820   5.149   5.689  15.056 -0.1623 -0.9250 -0.1495
   30DOPE  H18R 3821   5.175   5.741  14.961 -1.9799  0.4529  0.0540
   30DOPE  H18S 3822   5.116   5.585  15.031 -0.5560 -1.1315  1.2018
   30DOPE  H18T 3823   5.241   5.694  15.118 -0.5254 -0.1641  0.3311
   30DOPE   C33 3824   5.738   5.357  16.452 -0.3453 -0.0356 -0.7995
   30DOPE   H3X 3825   5.835   5.304  16.450 -1.4753 -2.2827 -0.2384
   30DOPE   H3Y 3826   5.755   5.463  16.478  0.4556  0.4135 -3.0107
   30DOPE   C34 3827   5.686   5.353  16.306 -0.0010  0.1819  0.3910
   30DOPE   H4X 3828   5.657   5.249  16.281  1.1056 -0.3253  1.1621
   30DOPE   H4Y 3829   5.591   5.410  16.312 -0.1458 -0.1202  1.0676
   30DOPE   C35 3830   5.793   5.413  16.211  0.8100  0.0654  0.4571
   30DOPE   H5X 3831   5.890   5.365  16.232  1.6314  1.5778  0.2697
   30DOPE   H5Y 3832   5.805   5.521  16.233 -0.7810  0.4148 -0.1760
   30DOPE   C36 3833   5.776   5.398  16.059  0.2508  0.6458  0.0638
   30DOPE   H6X 3834   5.675   5.432  16.028  0.4921  1.7916  0.4719
   30DOPE   H6Y 3835   5.806   5.297  16.025 -1.8306 -0.0729  0.2207
   30DOPE   C37 3836   5.875   5.482  15.977 -0.4434  0.4670  0.3397
   30DOPE   H7X 3837   5.853   5.588  16.001  0.2590  0.8109 -0.5043
   30DOPE   H7Y 3838   5.979   5.467  16.013 -0.6575  0.0729  0.8151
   30DOPE   C38 3839   5.882   5.441  15.825  0.7031  0.1814 -0.5009
   30DOPE   H8X 3840   5.785   5.412  15.777  1.0069  0.0514 -1.0407
   30DOPE   H8Y 3841   5.929   5.341  15.818 -1.1724 -0.8253  0.4488
   30DOPE   C39 3842   5.978   5.530  15.748 -0.1874 -0.3975  0.0437
   30DOPE   H9X 3843   6.028   5.609  15.806 -0.3786  1.7634 -2.5753
   30DOPE  C310 3844   5.989   5.531  15.615 -0.0614  0.0753 -0.2233
   30DOPE  H10X 3845   6.057   5.598  15.560  0.6065 -0.0326  0.4517
   30DOPE  C311 3846   5.905   5.428  15.544  0.1507 -0.2622  0.2572
   30DOPE  H11X 3847   5.939   5.322  15.551  0.4472 -0.3394 -1.7405
   30DOPE  H11Y 3848   5.800   5.414  15.578 -1.0090  0.3235 -2.7697
   30DOPE  C312 3849   5.889   5.466  15.399 -0.3879 -0.3777  0.0401
   30DOPE  H12X 3850   5.987   5.474  15.348 -0.3136 -1.0666  0.0549
   30DOPE  H12Y 3851   5.849   5.569  15.387  0.9493  0.0590 -1.0227
   30DOPE  C313 3852   5.801   5.361  15.326 -0.4608 -0.3610  0.6028
   30DOPE  H13X 3853   5.834   5.258  15.355 -1.3449 -0.3941  1.5235
   30DOPE  H13Y 3854   5.696   5.380  15.357 -0.4250  1.4336 -0.2933
   30DOPE  C314 3855   5.807   5.375  15.173  0.4224 -0.5148 -0.1603
   30DOPE  H14X 3856   5.911   5.355  15.140 -0.0927 -1.2363 -1.3978
   30DOPE  H14Y 3857   5.774   5.478  15.147 -0.1236 -0.2206  1.5602
   30DOPE  C315 3858   5.728   5.266  15.098  0.3614  0.1434 -0.1533
   30DOPE  H15X 3859   5.620   5.291  15.102 -0.0251 -1.3372 -0.7715
   30DOPE  H15Y 3860   5.736   5.157  15.115 -1.4348 -0.5488 -2.9565
   30DOPE  C316 3861   5.755   5.282  14.951 -0.5813  0.2084 -0.1845
   30DOPE  H16X 3862   5.775   5.390  14.934 -1.7663  0.1050 -2.5643
   30DOPE  H16Y 3863   5.670   5.242  14.892 -0.7355 -2.8261  1.8518
   30DOPE  C317 3864   5.884   5.213  14.900  0.1950 -0.7589 -0.0293
   30DOPE  H17X 3865   5.966   5.244  14.967 -1.1254 -3.5604  3.2060
   30DOPE  H17Y 3866   5.878   5.102  14.904 -1.6793 -0.6526  1.6027
   30DOPE  C318 3867   5.909   5.257  14.751 -0.0518 -0.2829 -0.6150
   30DOPE  H18X 3868   5.815   5.231  14.697  1.0230 -1.4514 -2.0259
   30DOPE  H18Y 3869   5.941   5.360  14.727 -0.3313  0.2124  1.0101
   30DOPE  H18Z 3870   5.981   5.182  14.712 -0.2946 -2.0181  2.0298
   31DOPE     N 3871   3.297   1.590  11.863  0.5640  0.5250  0.7222
   31DOPE   HN1 3872   3.383   1.594  11.921  0.3703 -2.0006  1.3231
   31DOPE   HN2 3873   3.284   1.487  11.860 -2.2261  0.8284 -0.5603
   31DOPE   HN3 3874   3.306   1.633  11.768 -0.2871  0.6425  0.6934
   31DOPE   C12 3875   3.175   1.648  11.923  0.0686 -0.0318  0.2350
   31DOPE  H12A 3876   3.086   1.636  11.859 -0.1486  0.3075  0.4700
   31DOPE  H12B 3877   3.185   1.758  11.931 -0.8022  0.0071  0.9178
   31DOPE   C11 3878   3.156   1.583  12.065 -0.4029 -0.3066  0.3670
   31DOPE  H11A 3879   3.064   1.604  12.123 -0.4758  1.9609 -0.4831
   31DOPE  H11B 3880   3.243   1.619  12.124 -1.5499  2.9381  0.2557
   31DOPE     P 3881   3.054   1.337  12.048 -0.3758 -0.0607  0.1018
   31DOPE   O13 3882   3.092   1.205  11.997 -0.0785  0.4880  0.1435
   31DOPE   O14 3883   2.929   1.396  11.996 -0.4630 -0.2181 -0.2065
   31DOPE   O11 3884   3.030   1.311  12.197 -0.3643  0.4334 -0.7806
   31DOPE   O12 3885   3.168   1.443  12.046  0.4676 -0.0916 -0.0090
   31DOPE    C1 3886   3.015   1.407  12.304  0.4533  0.5699  0.1427
   31DOPE    HA 3887   2.959   1.494  12.263 -0.7427 -0.6868 -0.9870
   31DOPE    HB 3888   3.109   1.441  12.351 -0.7780  0.9502  2.4999
   31DOPE    C2 3889   2.927   1.338  12.410 -0.3053  0.3044 -0.2235
   31DOPE    HS 3890   2.885   1.407  12.486 -0.6182 -1.2329  1.0324
   31DOPE   O21 3891   3.004   1.235  12.480  0.2543 -0.3597 -0.1391
   31DOPE   C21 3892   3.087   1.287  12.568 -1.0058  0.2514  0.0366
   31DOPE   O22 3893   3.083   1.406  12.597  0.1247  0.4668 -0.5728
   31DOPE   C22 3894   3.193   1.184  12.611 -0.1111 -0.1994  0.0264
   31DOPE   H2R 3895   3.293   1.220  12.577  0.4789 -1.6677  0.1087
   31DOPE   H2S 3896   3.172   1.092  12.552 -1.7463  0.4558 -0.4672
   31DOPE    C3 3897   2.804   1.260  12.348 -0.5756  0.3363  0.1470
   31DOPE    HX 3898   2.848   1.180  12.286 -0.5875 -0.6071  1.3027
   31DOPE    HY 3899   2.742   1.332  12.291  0.3670  1.3865  0.4046
   31DOPE   O31 3900   2.727   1.190  12.445 -0.0045 -0.0075 -0.4357
   31DOPE   C31 3901   2.624   1.263  12.495  0.3568  0.3805  0.1428
   31DOPE   O32 3902   2.596   1.377  12.459  0.4006 -0.0014  0.5320
   31DOPE   C32 3903   2.554   1.176  12.601 -0.4141  0.1332 -0.0953
   31DOPE   H2X 3904   2.467   1.141  12.541  0.4832  1.8305 -2.5979
   31DOPE   H2Y 3905   2.620   1.093  12.632 -0.3081  0.9502  1.9962
   31DOPE   C23 3906   3.185   1.154  12.762 -0.7704 -0.1875  0.2094
   31DOPE   H3R 3907   3.271   1.089  12.792 -1.5930 -1.5376 -0.2436
   31DOPE   H3S 3908   3.092   1.094  12.772 -0.7022 -0.3594 -0.1767
   31DOPE   C24 3909   3.195   1.274  12.857  1.0991 -0.2846 -0.4134
   31DOPE   H4R 3910   3.105   1.338  12.848  1.2093 -0.1088 -0.2768
   31DOPE   H4S 3911   3.269   1.349  12.821 -0.8659  1.1428 -1.6786
   31DOPE   C25 3912   3.216   1.237  13.000  0.2164  0.4725  0.6769
   31DOPE   H5R 3913   3.317   1.190  13.001 -0.3950 -1.0185 -1.1740
   31DOPE   H5S 3914   3.152   1.153  13.034  1.8137 -0.8790  0.5036
   31DOPE   C26 3915   3.213   1.357  13.091  0.0610  0.2386  0.1911
   31DOPE   H6R 3916   3.106   1.387  13.084 -0.1326 -0.7705 -2.2780
   31DOPE   H6S 3917   3.281   1.438  13.056  0.7330  0.8912  2.8077
   31DOPE   C27 3918   3.280   1.320  13.226 -0.0368 -0.1012  0.3093
   31DOPE   H7R 3919   3.388   1.301  13.209 -0.3259 -0.7105 -0.9667
   31DOPE   H7S 3920   3.251   1.216  13.251  3.8110 -1.3596  0.2731
   31DOPE   C28 3921   3.260   1.415  13.342  0.0202 -0.4370  0.4997
   31DOPE   H8R 3922   3.270   1.515  13.295  1.5965 -0.1740  1.3171
   31DOPE   H8S 3923   3.341   1.410  13.418 -0.1373  1.8439  0.8849
   31DOPE   C29 3924   3.124   1.405  13.406 -0.3556  0.0898 -0.2990
   31DOPE   H9R 3925   3.043   1.427  13.335 -0.9537 -2.1428 -0.3769
   31DOPE  C210 3926   3.084   1.363  13.532 -0.3073  0.4100  0.2540
   31DOPE  H10R 3927   2.977   1.363  13.559  0.3702  0.2967  3.2753
   31DOPE  C211 3928   3.168   1.330  13.657  0.5584  1.1373 -0.2528
   31DOPE  H11R 3929   3.275   1.360  13.651  0.6575  1.2276  1.5297
   31DOPE  H11S 3930   3.160   1.220  13.673  0.6235  1.3809  1.6446
   31DOPE  C212 3931   3.114   1.388  13.796  0.4847 -0.5676  0.2901
   31DOPE  H12R 3932   3.004   1.373  13.800  0.5585 -0.7103  2.7524
   31DOPE  H12S 3933   3.140   1.496  13.796  2.5969 -1.0380  0.4685
   31DOPE  C213 3934   3.182   1.326  13.917  1.3561  0.2078  0.2138
   31DOPE  H13R 3935   3.287   1.361  13.925  0.8176  1.5393  2.0557
   31DOPE  H13S 3936   3.191   1.216  13.907 -1.3734 -0.0430 -0.2736
   31DOPE  C214 3937   3.105   1.346  14.050 -0.3068 -0.3104  0.3685
   31DOPE  H14R 3938   3.159   1.278  14.119  1.4293  1.0782  0.4333
   31DOPE  H14S 3939   2.997   1.320  14.038 -0.1931 -1.2497  1.2656
   31DOPE  C215 3940   3.107   1.490  14.110  0.2155 -0.0229 -0.3176
   31DOPE  H15R 3941   3.044   1.489  14.202  1.7671  1.7721  0.8330
   31DOPE  H15S 3942   3.049   1.557  14.043  0.2433  1.6998  1.2974
   31DOPE  C216 3943   3.245   1.542  14.151  0.3539 -0.6798  0.4303
   31DOPE  H16R 3944   3.230   1.651  14.139 -4.7756 -1.3477 -1.9758
   31DOPE  H16S 3945   3.321   1.509  14.077  0.1382  1.7947 -1.0104
   31DOPE  C217 3946   3.295   1.505  14.294 -0.8546  0.2204  0.1620
   31DOPE  H17R 3947   3.303   1.395  14.301 -0.6548  0.2427  0.2920
   31DOPE  H17S 3948   3.213   1.519  14.367 -2.3792 -1.3824 -1.1707
   31DOPE  C218 3949   3.427   1.582  14.340 -0.0793  0.9044 -0.2255
   31DOPE  H18R 3950   3.501   1.579  14.258  0.6914 -0.9016  0.4748
   31DOPE  H18S 3951   3.467   1.525  14.427 -0.1965  0.4740 -0.4519
   31DOPE  H18T 3952   3.394   1.687  14.353  3.2037  1.8145  2.1618
   31DOPE   C33 3953   2.516   1.260  12.723  0.0739 -0.2738  0.0644
   31DOPE   H3X 3954   2.433   1.209  12.776 -0.9432  0.1451 -1.0888
   31DOPE   H3Y 3955   2.484   1.351  12.667 -0.5758 -0.2986  0.3879
   31DOPE   C34 3956   2.637   1.303  12.811  0.2369 -0.1676 -0.1405
   31DOPE   H4X 3957   2.686   1.216  12.861 -0.6486 -0.4025  0.3446
   31DOPE   H4Y 3958   2.714   1.365  12.760 -0.2449  4.0862  3.6101
   31DOPE   C35 3959   2.594   1.395  12.929  0.2823  0.5302  0.0974
   31DOPE   H5X 3960   2.510   1.343  12.979 -2.9825  1.5977 -3.7908
   31DOPE   H5Y 3961   2.557   1.489  12.882 -0.8678  0.2985  0.5196
   31DOPE   C36 3962   2.720   1.412  13.018 -0.1854 -0.5689 -0.2141
   31DOPE   H6X 3963   2.803   1.453  12.957 -0.9772  1.1783 -0.1915
   31DOPE   H6Y 3964   2.748   1.314  13.063  0.4364 -0.6335 -0.7320
   31DOPE   C37 3965   2.692   1.510  13.128 -0.4880  0.0651  0.1282
   31DOPE   H7X 3966   2.710   1.613  13.089  1.1889 -0.3300 -0.1970
   31DOPE   H7Y 3967   2.584   1.505  13.154 -1.3184  2.3204 -2.2948
   31DOPE   C38 3968   2.794   1.493  13.246  0.0346 -0.7988 -0.1591
   31DOPE   H8X 3969   2.898   1.499  13.207 -0.1745  0.0693 -0.6168
   31DOPE   H8Y 3970   2.782   1.391  13.287  2.0074 -0.7889  0.5241
   31DOPE   C39 3971   2.768   1.604  13.348  0.6209 -0.2441  0.3725
   31DOPE   H9X 3972   2.821   1.697  13.319  0.7071  0.0759  1.5300
   31DOPE  C310 3973   2.693   1.600  13.455 -0.2625  0.0998  0.1577
   31DOPE  H10X 3974   2.685   1.696  13.509 -0.9420 -0.2912  0.7754
   31DOPE  C311 3975   2.606   1.485  13.499  0.6650 -0.4728 -0.0030
   31DOPE  H11X 3976   2.504   1.524  13.519  0.2055 -0.4981 -2.0361
   31DOPE  H11Y 3977   2.591   1.403  13.426 -0.2795 -0.5948  0.3092
   31DOPE  C312 3978   2.664   1.423  13.624  0.2125  0.1475  0.1614
   31DOPE  H12X 3979   2.767   1.392  13.597 -0.8175 -2.3678 -1.2326
   31DOPE  H12Y 3980   2.607   1.331  13.650 -1.5070  1.5890  1.7979
   31DOPE  C313 3981   2.659   1.517  13.749 -1.2848  0.4144  0.2670
   31DOPE  H13X 3982   2.714   1.610  13.725 -1.2294 -0.3165 -2.8798
   31DOPE  H13Y 3983   2.555   1.552  13.767 -1.7086 -1.9313  3.2323
   31DOPE  C314 3984   2.719   1.456  13.877 -0.5051 -0.8563 -0.0130
   31DOPE  H14X 3985   2.700   1.534  13.954 -0.0917  0.0369 -0.7977
   31DOPE  H14Y 3986   2.828   1.433  13.877 -0.7485 -2.6106  3.0374
   31DOPE  C315 3987   2.665   1.320  13.902 -0.9814  0.1835 -0.5767
   31DOPE  H15X 3988   2.721   1.246  13.840 -0.3419  0.2520 -0.0888
   31DOPE  H15Y 3989   2.563   1.312  13.859 -1.0620  0.4884 -0.4407
   31DOPE  C316 3990   2.663   1.281  14.050  0.3149 -0.8525  0.2079
   31DOPE  H16X 3991   2.763   1.261  14.093  1.1245 -1.8676 -2.0385
   31DOPE  H16Y 3992   2.611   1.183  14.054  1.3549 -1.4295 -0.1658
   31DOPE  C317 3993   2.590   1.377  14.142 -0.1293  0.3716 -0.0707
   31DOPE  H17X 3994   2.655   1.466  14.129  1.4740 -0.6966  0.2827
   31DOPE  H17Y 3995   2.496   1.421  14.102  0.1675  1.6493  0.6128
   31DOPE  C318 3996   2.584   1.322  14.284  0.6204 -0.0803 -0.3150
   31DOPE  H18X 3997   2.533   1.393  14.352  0.5319 -0.1636 -0.2953
   31DOPE  H18Y 3998   2.536   1.222  14.284  0.9056 -0.2215 -0.7329
   31DOPE  H18Z 3999   2.683   1.304  14.332 -0.1295  0.4252  1.4992
   32DOPE     N 4000   4.295   2.131  11.703 -0.2875  0.3466  1.0728
   32DOPE   HN1 4001   4.241   2.219  11.691  0.6303  0.8324  0.4492
   32DOPE   HN2 4002   4.394   2.149  11.677 -0.2586 -1.4966 -0.3313
   32DOPE   HN3 4003   4.264   2.067  11.627  0.9913  0.3775  0.4934
   32DOPE   C12 4004   4.273   2.080  11.839 -0.8856  0.0403 -0.9302
   32DOPE  H12A 4005   4.305   1.973  11.840  0.7025  0.5025 -0.1908
   32DOPE  H12B 4006   4.163   2.083  11.854 -0.5623 -1.2075  2.9206
   32DOPE   C11 4007   4.351   2.148  11.956 -0.3856 -0.0891  0.1966
   32DOPE  H11A 4008   4.330   2.098  12.053  0.7532 -0.4189  0.2903
   32DOPE  H11B 4009   4.298   2.245  11.950  0.2837  0.2221 -1.0949
   32DOPE     P 4010   4.590   2.229  12.030  0.3228  0.0308 -0.0665
   32DOPE   O13 4011   4.603   2.370  11.996  0.1544  0.0040 -0.1770
   32DOPE   O14 4012   4.721   2.158  12.024  0.5904 -0.1288  0.3036
   32DOPE   O11 4013   4.518   2.207  12.171 -0.0416  0.3157  0.4319
   32DOPE   O12 4014   4.496   2.157  11.930  0.6121  0.0920 -0.2333
   32DOPE    C1 4015   4.460   2.325  12.229 -0.4380 -0.7378  0.0014
   32DOPE    HA 4016   4.378   2.377  12.174  0.3919  0.5770 -0.0318
   32DOPE    HB 4017   4.539   2.403  12.232 -0.6895  0.0855 -5.2856
   32DOPE    C2 4018   4.395   2.288  12.361 -0.0187  0.1911  0.1675
   32DOPE    HS 4019   4.354   2.383  12.401 -2.7918 -0.2837 -1.3049
   32DOPE   O21 4020   4.495   2.229  12.453 -0.4028  0.1651  0.4724
   32DOPE   C21 4021   4.603   2.305  12.471 -0.4222 -0.3511  0.6436
   32DOPE   O22 4022   4.608   2.428  12.465 -0.1195 -0.5015 -0.5273
   32DOPE   C22 4023   4.731   2.219  12.508 -0.9603  0.1008  0.2777
   32DOPE   H2R 4024   4.787   2.191  12.416 -2.3597  0.1279 -0.6030
   32DOPE   H2S 4025   4.712   2.121  12.556 -1.3898 -0.1291 -0.3476
   32DOPE    C3 4026   4.283   2.189  12.335 -0.2747  0.0244  0.1783
   32DOPE    HX 4027   4.324   2.086  12.334  1.4591  0.6220  2.1100
   32DOPE    HY 4028   4.223   2.211  12.244 -2.7595 -0.3319  1.6461
   32DOPE   O31 4029   4.193   2.195  12.450 -0.3983 -0.5749  0.2306
   32DOPE   C31 4030   4.073   2.145  12.426  0.8448 -0.0030  0.0797
   32DOPE   O32 4031   4.049   2.089  12.321  0.7942  0.5158 -0.0395
   32DOPE   C32 4032   3.976   2.156  12.539  0.4130 -0.1174  0.5167
   32DOPE   H2X 4033   3.869   2.169  12.510  0.2724 -2.4794 -0.2188
   32DOPE   H2Y 4034   3.977   2.052  12.576 -1.7329 -0.9031 -1.3972
   32DOPE   C23 4035   4.824   2.294  12.611 -0.2160  0.0502  1.0108
   32DOPE   H3R 4036   4.815   2.405  12.601 -2.0167 -0.0036  1.7318
   32DOPE   H3S 4037   4.924   2.250  12.593  0.7055  2.5253 -0.5398
   32DOPE   C24 4038   4.771   2.254  12.751  0.7891 -0.2172 -0.2129
   32DOPE   H4R 4039   4.796   2.146  12.758 -2.1331 -0.9704 -0.1895
   32DOPE   H4S 4040   4.664   2.283  12.744  1.2134  2.1584  1.7105
   32DOPE   C25 4041   4.843   2.337  12.862  0.5097  0.1622  0.0818
   32DOPE   H5R 4042   4.803   2.441  12.864  0.7907  0.5375 -4.2654
   32DOPE   H5S 4043   4.951   2.338  12.837  0.4732 -2.1746 -0.4150
   32DOPE   C26 4044   4.835   2.273  12.999 -0.5992  0.0760 -0.5430
   32DOPE   H6R 4045   4.889   2.176  13.001 -1.9958 -0.7243 -0.4189
   32DOPE   H6S 4046   4.729   2.242  13.010 -0.4945 -0.0998 -0.0019
   32DOPE   C27 4047   4.873   2.367  13.110  0.1433  0.1785  0.1290
   32DOPE   H7R 4048   4.808   2.454  13.087  0.9062  0.5108 -0.8263
   32DOPE   H7S 4049   4.975   2.404  13.089 -0.1802  1.2661  0.3980
   32DOPE   C28 4050   4.847   2.308  13.245  0.0100 -0.1003 -0.0032
   32DOPE   H8R 4051   4.903   2.212  13.259  0.6721  0.1560 -0.7925
   32DOPE   H8S 4052   4.737   2.300  13.252 -0.3621  3.0713 -0.7435
   32DOPE   C29 4053   4.894   2.415  13.346  0.0162 -0.5928 -0.2874
   32DOPE   H9R 4054   4.964   2.489  13.305  2.4820 -1.7783  1.5355
   32DOPE  C210 4055   4.868   2.425  13.479 -0.2060  0.1713  0.2605
   32DOPE  H10R 4056   4.906   2.500  13.550 -0.3119 -0.1058  0.6184
   32DOPE  C211 4057   4.785   2.325  13.563  0.0886  0.4941  0.3289
   32DOPE  H11R 4058   4.747   2.241  13.501  1.1864 -0.5644  1.0558
   32DOPE  H11S 4059   4.689   2.369  13.597 -0.5127 -1.9893  2.1524
   32DOPE  C212 4060   4.856   2.265  13.687  0.7643  1.1989  0.7002
   32DOPE  H12R 4061   4.958   2.231  13.657  1.1658  2.0235  1.1064
   32DOPE  H12S 4062   4.815   2.168  13.723  0.9931  0.7515 -0.1969
   32DOPE  C213 4063   4.854   2.354  13.810 -0.3926 -0.2689 -0.3248
   32DOPE  H13R 4064   4.900   2.452  13.783  0.9790 -0.4103  1.3585
   32DOPE  H13S 4065   4.915   2.299  13.885 -1.0534  0.0383  0.4512
   32DOPE  C214 4066   4.709   2.380  13.863  0.3784  0.0390 -0.3909
   32DOPE  H14R 4067   4.658   2.282  13.852  0.1546  0.3339 -2.2681
   32DOPE  H14S 4068   4.656   2.449  13.795 -0.3458 -0.7074 -0.6008
   32DOPE  C215 4069   4.719   2.431  14.007  0.1098  0.0746  0.7748
   32DOPE  H15R 4070   4.749   2.344  14.069  0.4449  0.3596  1.0116
   32DOPE  H15S 4071   4.615   2.456  14.037 -0.2287 -1.5460  1.0697
   32DOPE  C216 4072   4.803   2.553  14.032 -0.0378 -0.5832  0.5740
   32DOPE  H16R 4073   4.911   2.551  14.006  0.3752  1.7337  1.8190
   32DOPE  H16S 4074   4.797   2.572  14.141 -4.1506 -0.1250  0.4185
   32DOPE  C217 4075   4.753   2.683  13.958 -0.5181  0.3955 -0.2812
   32DOPE  H17R 4076   4.658   2.717  14.005  1.4234  4.7730  0.9816
   32DOPE  H17S 4077   4.729   2.659  13.853  0.2940 -1.0738 -0.1513
   32DOPE  C218 4078   4.851   2.792  13.978  0.4136 -0.2689  0.3398
   32DOPE  H18R 4079   4.951   2.783  13.929  0.0115  0.2571 -0.5886
   32DOPE  H18S 4080   4.874   2.774  14.085 -1.7368  0.1763  0.9093
   32DOPE  H18T 4081   4.805   2.892  13.964  1.3438  0.5327  2.6013
   32DOPE   C33 4082   4.020   2.245  12.653  0.5642  0.3400  0.5657
   32DOPE   H3X 4083   4.015   2.354  12.629  0.6502  0.4803  1.1823
   32DOPE   H3Y 4084   4.130   2.238  12.665  0.6425 -0.2579 -0.4009
   32DOPE   C34 4085   3.958   2.208  12.788  0.5306 -0.1852  0.3832
   32DOPE   H4X 4086   3.848   2.224  12.782  0.5446 -0.6754 -2.3322
   32DOPE   H4Y 4087   3.984   2.102  12.807  1.7315 -0.0365 -0.2849
   32DOPE   C35 4088   4.015   2.307  12.895 -0.8285 -0.5191  0.3577
   32DOPE   H5X 4089   3.987   2.414  12.887  0.4388 -0.1253  0.9376
   32DOPE   H5Y 4090   4.126   2.307  12.895 -0.7903 -0.9274 -1.9781
   32DOPE   C36 4091   3.974   2.272  13.037  0.2026  0.6383  0.0116
   32DOPE   H6X 4092   3.991   2.162  13.043 -1.7074  0.3209  0.5473
   32DOPE   H6Y 4093   3.864   2.284  13.047  0.0884 -1.0703  1.4778
   32DOPE   C37 4094   4.053   2.336  13.153  0.6844 -0.2230 -0.2911
   32DOPE   H7X 4095   4.161   2.313  13.148  0.4507 -1.7515  0.6477
   32DOPE   H7Y 4096   4.043   2.446  13.146 -2.2584 -0.3788  0.1541
   32DOPE   C38 4097   4.003   2.293  13.294  0.2686  0.3518 -0.8519
   32DOPE   H8X 4098   4.084   2.333  13.358  0.1993 -0.8554  0.0393
   32DOPE   H8Y 4099   3.995   2.183  13.307 -1.5414  0.4241 -1.1064
   32DOPE   C39 4100   3.875   2.361  13.343  1.1861  0.8406  0.2674
   32DOPE   H9X 4101   3.807   2.404  13.268  0.6560 -0.0478  0.2251
   32DOPE  C310 4102   3.833   2.339  13.467  0.1996  0.1803 -0.3233
   32DOPE  H10X 4103   3.738   2.386  13.497  1.0979  1.3752  0.7729
   32DOPE  C311 4104   3.900   2.251  13.566 -0.1871 -0.1464 -0.0851
   32DOPE  H11X 4105   3.842   2.159  13.584 -1.8669  0.6067 -1.3817
   32DOPE  H11Y 4106   4.004   2.214  13.554 -1.2743 -2.6634 -3.5054
   32DOPE  C312 4107   3.895   2.326  13.703 -0.8786 -0.3553 -0.1287
   32DOPE  H12X 4108   3.796   2.362  13.738 -0.5910  0.2301  0.1014
   32DOPE  H12Y 4109   3.966   2.411  13.698  1.0066 -1.8867 -0.9124
   32DOPE  C313 4110   3.935   2.233  13.822 -0.1040  0.7318  0.1327
   32DOPE  H13X 4111   3.857   2.156  13.807  0.9288 -0.1533 -0.8556
   32DOPE  H13Y 4112   4.036   2.188  13.808 -1.6320 -3.3742  1.1558
   32DOPE  C314 4113   3.908   2.293  13.963 -0.1702  0.5779  0.2919
   32DOPE  H14X 4114   3.811   2.347  13.959 -0.2580  0.3614 -1.2122
   32DOPE  H14Y 4115   3.989   2.365  13.989  1.2119 -0.8152  0.0284
   32DOPE  C315 4116   3.919   2.185  14.071 -0.0292 -0.1603 -0.0014
   32DOPE  H15X 4117   4.024   2.148  14.065 -0.7933 -2.2977 -1.4010
   32DOPE  H15Y 4118   3.855   2.096  14.048  0.8432 -0.6311 -0.6985
   32DOPE  C316 4119   3.901   2.246  14.209  0.4428 -0.0531  0.3338
   32DOPE  H16X 4120   3.798   2.285  14.218 -0.2451 -1.6965  0.0661
   32DOPE  H16Y 4121   3.977   2.324  14.229  0.0364  0.5176 -0.3044
   32DOPE  C317 4122   3.908   2.140  14.314 -0.0916 -0.4679 -0.7883
   32DOPE  H17X 4123   3.822   2.070  14.304 -0.8436  0.2504  0.4543
   32DOPE  H17Y 4124   3.994   2.070  14.313 -0.3587 -0.8075 -1.8518
   32DOPE  C318 4125   3.893   2.209  14.455 -0.4329  0.1955  0.1718
   32DOPE  H18X 4126   3.896   2.140  14.542  1.0288  1.0782  0.8693
   32DOPE  H18Y 4127   3.975   2.281  14.476  0.7040 -1.3831  1.3807
   32DOPE  H18Z 4128   3.794   2.257  14.471 -0.5414  0.0828 -0.1656
   33DOPE     N 4129   3.340   0.492  12.155 -0.2349 -0.1167 -0.4171
   33DOPE   HN1 4130   3.391   0.487  12.245 -1.5357 -2.2786  0.2828
   33DOPE   HN2 4131   3.389   0.457  12.070  0.4132  2.6847 -1.2894
   33DOPE   HN3 4132   3.327   0.594  12.139  0.0533 -0.0691 -0.3414
   33DOPE   C12 4133   3.202   0.432  12.161 -0.2018 -0.1981 -0.4501
   33DOPE  H12A 4134   3.211   0.321  12.168  0.5175 -0.0479  1.8517
   33DOPE  H12B 4135   3.155   0.460  12.064 -1.7608  0.6079  0.5172
   33DOPE   C11 4136   3.128   0.484  12.289  0.2391 -0.2086  0.4753
   33DOPE  H11A 4137   3.193   0.459  12.375 -0.1955 -0.9164  0.6151
   33DOPE  H11B 4138   3.041   0.417  12.309 -1.7724  1.4308 -2.0879
   33DOPE     P 4139   3.118   0.721  12.414  0.0898 -0.1140 -0.1802
   33DOPE   O13 4140   3.037   0.845  12.383  0.3745  0.5796  0.8262
   33DOPE   O14 4141   3.260   0.738  12.439  0.3509 -0.1781  0.0834
   33DOPE   O11 4142   3.052   0.628  12.528 -0.3387  0.3029  0.2254
   33DOPE   O12 4143   3.103   0.624  12.289 -0.3517 -0.2670 -0.2501
   33DOPE    C1 4144   2.912   0.605  12.540  0.9647 -0.6285  0.4083
   33DOPE    HA 4145   2.869   0.558  12.449 -2.0855  1.0686  0.8328
   33DOPE    HB 4146   2.864   0.706  12.542  1.9238 -0.1269 -0.7412
   33DOPE    C2 4147   2.869   0.522  12.662 -1.0150  0.1717  0.1746
   33DOPE    HS 4148   2.761   0.498  12.668 -0.7168 -1.2159  0.5316
   33DOPE   O21 4149   2.919   0.587  12.778 -0.2409 -0.5907  0.5794
   33DOPE   C21 4150   2.856   0.694  12.812 -0.3005  0.0957  0.2205
   33DOPE   O22 4151   2.751   0.743  12.774  0.2064 -0.4359  0.4238
   33DOPE   C22 4152   2.953   0.773  12.906  0.5213  1.0416  0.0755
   33DOPE   H2R 4153   3.017   0.839  12.844 -1.2400  2.7883  0.0112
   33DOPE   H2S 4154   3.006   0.690  12.957  0.1403 -0.2652 -1.5605
   33DOPE    C3 4155   2.935   0.380  12.652  0.0089 -0.1518  0.5524
   33DOPE    HX 4156   3.044   0.390  12.670  0.1845 -1.5321  0.3333
   33DOPE    HY 4157   2.912   0.346  12.549  2.1403 -1.2214  0.3805
   33DOPE   O31 4158   2.887   0.293  12.754  0.1704 -0.3392  0.4369
   33DOPE   C31 4159   2.768   0.239  12.733  0.5252  1.0217  0.2274
   33DOPE   O32 4160   2.693   0.258  12.638  0.2548  0.3042 -0.0373
   33DOPE   C32 4161   2.738   0.147  12.854 -0.2823 -0.3968  0.4701
   33DOPE   H2X 4162   2.729   0.043  12.816 -1.4343  0.1038 -0.7251
   33DOPE   H2Y 4163   2.818   0.155  12.931  1.7630  1.7280 -1.6932
   33DOPE   C23 4164   2.871   0.849  13.016  0.0719  0.2019  1.1640
   33DOPE   H3R 4165   2.781   0.796  13.054  0.1925 -0.8615  0.0215
   33DOPE   H3S 4166   2.844   0.941  12.961 -0.1524  0.0654  1.0500
   33DOPE   C24 4167   2.960   0.903  13.123  0.0290 -0.0002  0.4584
   33DOPE   H4R 4168   3.020   0.977  13.066  0.2308  0.8811  1.7864
   33DOPE   H4S 4169   3.022   0.820  13.162 -2.6513 -2.8272 -0.8773
   33DOPE   C25 4170   2.881   0.968  13.233 -0.1539 -0.1946 -0.3239
   33DOPE   H5R 4171   2.797   0.908  13.275 -0.6295 -0.1151 -1.1345
   33DOPE   H5S 4172   2.832   1.055  13.185 -1.9074 -1.0661 -0.2036
   33DOPE   C26 4173   2.978   1.002  13.349  0.1780  0.5202 -0.2542
   33DOPE   H6R 4174   2.934   1.082  13.411 -0.6474 -0.6717  0.7563
   33DOPE   H6S 4175   3.076   1.031  13.306  2.0208 -3.3546  0.8159
   33DOPE   C27 4176   2.968   0.888  13.454 -0.4635 -0.0518  0.0874
   33DOPE   H7R 4177   3.011   0.794  13.413 -2.8396 -1.3960  0.5290
   33DOPE   H7S 4178   2.862   0.864  13.477 -0.1008 -1.8463  0.0304
   33DOPE   C28 4179   3.026   0.933  13.589  0.4729  0.0256  0.5851
   33DOPE   H8R 4180   3.121   0.988  13.569 -0.8749  2.8080  1.3379
   33DOPE   H8S 4181   3.049   0.838  13.642  0.8909  0.0665  0.4828
   33DOPE   C29 4182   2.946   1.020  13.687  0.2066 -0.4368 -0.6250
   33DOPE   H9R 4183   2.879   1.093  13.638 -1.0283 -0.1647  1.3658
   33DOPE  C210 4184   2.936   1.017  13.819 -0.1029  0.2316 -0.0901
   33DOPE  H10R 4185   2.888   1.096  13.878  0.6725 -0.4242  1.4611
   33DOPE  C211 4186   2.994   0.907  13.906  0.5988  0.1998  0.1297
   33DOPE  H11R 4187   3.105   0.919  13.904  0.7660 -1.2427 -0.6325
   33DOPE  H11S 4188   2.969   0.813  13.852 -2.6883 -0.0371  1.8699
   33DOPE  C212 4189   2.937   0.894  14.054  0.4324  0.0713  0.2600
   33DOPE  H12R 4190   2.977   0.800  14.098 -0.5665  0.1885  1.4978
   33DOPE  H12S 4191   2.828   0.880  14.070  1.0718 -2.6095  3.6974
   33DOPE  C213 4192   2.978   1.014  14.138  0.0384 -0.1140 -0.5008
   33DOPE  H13R 4193   2.933   1.105  14.094 -2.7382 -0.6998  0.9136
   33DOPE  H13S 4194   3.086   1.035  14.126  0.5075 -2.3254 -0.6311
   33DOPE  C214 4195   2.937   1.009  14.287  0.4809  0.1032  1.1987
   33DOPE  H14R 4196   2.990   0.919  14.325  1.3504 -0.9058 -2.0955
   33DOPE  H14S 4197   2.827   0.992  14.288  0.3208  0.9543  0.2279
   33DOPE  C215 4198   2.962   1.127  14.371 -0.0432 -1.2366  0.0012
   33DOPE  H15R 4199   2.935   1.219  14.317 -1.0509 -1.2808  0.4138
   33DOPE  H15S 4200   3.072   1.132  14.385 -0.2512 -0.4014  1.6481
   33DOPE  C216 4201   2.890   1.116  14.506 -0.1729  0.2717  0.5151
   33DOPE  H16R 4202   2.910   1.014  14.544  1.5884  0.2787 -0.2569
   33DOPE  H16S 4203   2.785   1.144  14.485  0.2927  0.1979 -2.3509
   33DOPE  C217 4204   2.944   1.215  14.611  0.3134 -0.1026  0.3792
   33DOPE  H17R 4205   2.939   1.317  14.566 -0.5879  0.2667  1.2781
   33DOPE  H17S 4206   3.048   1.190  14.638  1.3370  1.2808 -1.9655
   33DOPE  C218 4207   2.850   1.226  14.734 -0.2467  0.5189 -0.7169
   33DOPE  H18R 4208   2.806   1.125  14.748 -0.3636  0.7977  1.1615
   33DOPE  H18S 4209   2.763   1.293  14.715 -1.4835 -1.1113 -1.1114
   33DOPE  H18T 4210   2.889   1.250  14.835 -2.7301 -2.9656  1.2850
   33DOPE   C33 4211   2.603   0.182  12.905 -0.9955  0.2404 -0.8332
   33DOPE   H3X 4212   2.593   0.115  12.994  1.9041 -0.6090 -1.0316
   33DOPE   H3Y 4213   2.518   0.163  12.837 -3.1300  1.3589  1.3794
   33DOPE   C34 4214   2.589   0.322  12.958  0.1623 -1.1097  0.2637
   33DOPE   H4X 4215   2.610   0.394  12.875 -1.5766 -1.1529 -0.2600
   33DOPE   H4Y 4216   2.484   0.342  12.986 -0.1962 -0.8222 -1.1673
   33DOPE   C35 4217   2.686   0.361  13.071 -0.0925 -0.4015 -0.0540
   33DOPE   H5X 4218   2.790   0.351  13.035  0.2037 -0.6374  0.8288
   33DOPE   H5Y 4219   2.682   0.285  13.152  0.5409  0.0977  0.4608
   33DOPE   C36 4220   2.664   0.504  13.107  0.2475 -0.1773  0.5655
   33DOPE   H6X 4221   2.559   0.506  13.145 -0.0653 -4.1034  0.3548
   33DOPE   H6Y 4222   2.673   0.565  13.015 -2.5906 -0.3191  0.0840
   33DOPE   C37 4223   2.761   0.564  13.208  0.0825  0.0003 -0.7394
   33DOPE   H7X 4224   2.860   0.544  13.161  1.6311 -0.4952  2.4562
   33DOPE   H7Y 4225   2.741   0.673  13.209 -1.0447 -0.1973  0.9522
   33DOPE   C38 4226   2.754   0.513  13.351 -0.0676 -0.3700  0.6350
   33DOPE   H8X 4227   2.850   0.523  13.405 -0.1783  1.3563  0.5774
   33DOPE   H8Y 4228   2.743   0.403  13.346  0.5304 -0.5032  1.9114
   33DOPE   C39 4229   2.633   0.579  13.411  0.2611  0.1243 -0.5033
   33DOPE   H9X 4230   2.538   0.573  13.356 -0.1156 -1.5438  0.2459
   33DOPE  C310 4231   2.627   0.619  13.541  0.1997  0.2685 -0.6373
   33DOPE  H10X 4232   2.538   0.670  13.580  1.4666  0.8917  1.6560
   33DOPE  C311 4233   2.727   0.606  13.652  0.0701 -0.1520  0.5303
   33DOPE  H11X 4234   2.804   0.532  13.623  1.7701  0.7941  2.3168
   33DOPE  H11Y 4235   2.785   0.701  13.656  1.2217 -0.7429 -1.1420
   33DOPE  C312 4236   2.667   0.561  13.786  0.2714 -0.4560 -0.4090
   33DOPE  H12X 4237   2.627   0.459  13.766  2.1264 -0.8149 -2.7752
   33DOPE  H12Y 4238   2.586   0.631  13.812 -0.1327 -1.4165  1.0884
   33DOPE  C313 4239   2.765   0.564  13.899 -0.0376 -0.0947 -0.2027
   33DOPE  H13X 4240   2.852   0.508  13.859 -0.1764 -0.8529  0.5343
   33DOPE  H13Y 4241   2.789   0.671  13.922  0.8196 -0.2608 -0.2693
   33DOPE  C314 4242   2.713   0.482  14.021  0.5302  0.8484  0.1928
   33DOPE  H14X 4243   2.687   0.383  13.979  0.9953  0.3760  0.9875
   33DOPE  H14Y 4244   2.614   0.523  14.051 -0.7475  0.0957 -2.6436
   33DOPE  C315 4245   2.820   0.472  14.125 -0.1370 -0.0755  0.1668
   33DOPE  H15X 4246   2.860   0.568  14.164  1.0394 -0.7465  0.6835
   33DOPE  H15Y 4247   2.900   0.408  14.082 -0.8288 -0.2782 -0.8435
   33DOPE  C316 4248   2.774   0.382  14.239  0.2916  0.0055  0.1494
   33DOPE  H16X 4249   2.764   0.274  14.215  0.0635  0.1975 -0.6654
   33DOPE  H16Y 4250   2.672   0.421  14.262  0.6362 -0.0092  1.8109
   33DOPE  C317 4251   2.858   0.402  14.371 -0.2725 -0.0013  0.6859
   33DOPE  H17X 4252   2.812   0.349  14.457  0.1611 -1.7641 -0.1230
   33DOPE  H17Y 4253   2.962   0.370  14.348 -0.7266  0.1978 -1.9772
   33DOPE  C318 4254   2.867   0.544  14.426 -0.1860 -0.0745 -0.2835
   33DOPE  H18X 4255   2.771   0.600  14.433 -0.7028 -0.7142 -1.7486
   33DOPE  H18Y 4256   2.922   0.556  14.522 -1.4292 -1.1984  0.6064
   33DOPE  H18Z 4257   2.926   0.616  14.366  3.0845 -0.3545  2.3083
   34DOPE     N 4258   3.353   2.629  11.741  0.1527 -0.0044  1.0550
   34DOPE   HN1 4259   3.283   2.662  11.671 -0.8912 -0.5772  1.7994
   34DOPE   HN2 4260   3.414   2.708  11.767  0.7234  0.1886 -0.6960
   34DOPE   HN3 4261   3.411   2.555  11.696 -2.0311 -0.1998 -1.7662
   34DOPE   C12 4262   3.270   2.569  11.849  0.4694 -0.5190 -0.4858
   34DOPE  H12A 4263   3.334   2.566  11.939 -0.5970  0.3361  0.3189
   34DOPE  H12B 4264   3.238   2.468  11.813  3.8799 -1.4409 -1.2989
   34DOPE   C11 4265   3.139   2.640  11.883 -0.2471 -0.5113 -0.6442
   34DOPE  H11A 4266   3.166   2.744  11.912 -1.9568 -0.3966  0.6691
   34DOPE  H11B 4267   3.088   2.604  11.975  1.1062  1.5075  0.9966
   34DOPE     P 4268   2.964   2.762  11.738 -0.4808 -0.2590 -0.1023
   34DOPE   O13 4269   2.850   2.731  11.642  0.1244 -0.1825 -0.3647
   34DOPE   O14 4270   3.044   2.884  11.707  1.0293  0.0434 -0.5724
   34DOPE   O11 4271   2.910   2.795  11.884  0.4426  0.3695 -0.3149
   34DOPE   O12 4272   3.049   2.636  11.771  0.2254  0.2598 -0.1561
   34DOPE    C1 4273   2.813   2.710  11.949  0.4729 -0.6925 -0.9440
   34DOPE    HA 4274   2.851   2.689  12.051  0.8163  0.8318 -0.7237
   34DOPE    HB 4275   2.801   2.614  11.894 -1.4573 -0.0883 -1.6561
   34DOPE    C2 4276   2.675   2.785  11.952 -0.4021 -0.7778  0.6129
   34DOPE    HS 4277   2.641   2.809  11.849  0.0340 -1.1699  0.3723
   34DOPE   O21 4278   2.689   2.916  12.018 -0.6203 -0.1993 -0.0687
   34DOPE   C21 4279   2.600   3.018  11.982  0.5641  0.8019 -0.1262
   34DOPE   O22 4280   2.505   3.007  11.912  0.2589  0.2762  0.1625
   34DOPE   C22 4281   2.650   3.138  12.067  0.3076 -0.1571 -0.0708
   34DOPE   H2R 4282   2.631   3.219  11.994 -2.9760  0.9657  1.7812
   34DOPE   H2S 4283   2.757   3.122  12.093 -0.2180 -2.1011  1.1075
   34DOPE    C3 4284   2.557   2.707  12.015  0.6254  0.0804  0.4532
   34DOPE    HX 4285   2.549   2.624  11.942 -1.8117  1.5939 -1.1414
   34DOPE    HY 4286   2.462   2.763  12.003  1.0349  0.4143 -1.6188
   34DOPE   O31 4287   2.580   2.661  12.145  1.1929 -0.3608  0.5351
   34DOPE   C31 4288   2.510   2.556  12.186  0.8451 -0.0997 -0.2687
   34DOPE   O32 4289   2.441   2.490  12.113  0.8236  0.2669 -0.4864
   34DOPE   C32 4290   2.537   2.535  12.339  0.1338 -0.2725 -0.0759
   34DOPE   H2X 4291   2.648   2.543  12.348  0.1473  1.1272 -1.1519
   34DOPE   H2Y 4292   2.500   2.621  12.399  1.2169 -0.9581  1.6551
   34DOPE   C23 4293   2.554   3.177  12.184 -0.2412  0.1504  0.0601
   34DOPE   H3R 4294   2.447   3.200  12.163 -0.5100 -0.1053  1.1032
   34DOPE   H3S 4295   2.588   3.274  12.227 -1.3060  0.5391  0.0487
   34DOPE   C24 4296   2.561   3.075  12.291 -0.5440  0.0627  0.0549
   34DOPE   H4R 4297   2.668   3.054  12.309 -0.3439 -1.0535 -2.0318
   34DOPE   H4S 4298   2.518   2.979  12.255 -0.6407  0.4269 -0.8299
   34DOPE   C25 4299   2.478   3.115  12.414 -0.0992 -0.2487 -0.3382
   34DOPE   H5R 4300   2.375   3.145  12.385  0.1327  0.1547 -0.7560
   34DOPE   H5S 4301   2.523   3.201  12.467  1.5097 -1.6651  0.7250
   34DOPE   C26 4302   2.454   3.002  12.511  0.5471  0.1518  0.8195
   34DOPE   H6R 4303   2.553   2.959  12.536 -0.4639 -1.4447  2.3193
   34DOPE   H6S 4304   2.406   2.918  12.456  2.3094 -0.4380  0.1022
   34DOPE   C27 4305   2.370   3.043  12.632  0.2477  0.3747 -0.3353
   34DOPE   H7R 4306   2.262   3.031  12.606 -0.0961 -0.0157  1.1734
   34DOPE   H7S 4307   2.398   3.143  12.672 -0.3026  0.3225  0.1969
   34DOPE   C28 4308   2.395   2.947  12.750  0.2365  0.0064  0.1242
   34DOPE   H8R 4309   2.333   2.977  12.837 -1.0021 -1.1422 -0.3329
   34DOPE   H8S 4310   2.503   2.957  12.776  0.4801  2.1989 -1.3723
   34DOPE   C29 4311   2.370   2.799  12.724  0.2196  0.5313  0.4188
   34DOPE   H9R 4312   2.436   2.754  12.649 -3.0186  0.6276 -2.7507
   34DOPE  C210 4313   2.270   2.725  12.771  1.0320 -0.1712 -0.1460
   34DOPE  H10R 4314   2.281   2.617  12.754 -0.4504 -0.6022  1.3285
   34DOPE  C211 4315   2.153   2.769  12.855 -0.3122  0.1338  0.7234
   34DOPE  H11R 4316   2.061   2.726  12.811  0.7768  0.6120 -2.2028
   34DOPE  H11S 4317   2.149   2.880  12.854  1.2978  0.2062 -0.4574
   34DOPE  C212 4318   2.169   2.721  13.001 -1.0643 -0.3396  0.1090
   34DOPE  H12R 4319   2.265   2.748  13.049 -1.0355 -2.7035  1.5287
   34DOPE  H12S 4320   2.141   2.614  12.991  0.0582 -0.6114 -0.2539
   34DOPE  C213 4321   2.052   2.770  13.078 -0.2810  0.5436 -0.1306
   34DOPE  H13R 4322   1.966   2.727  13.021 -1.4398 -0.4024  2.2100
   34DOPE  H13S 4323   2.038   2.880  13.073 -0.0321  0.5808  0.0011
   34DOPE  C214 4324   2.060   2.726  13.219 -0.2387  0.5254  0.0106
   34DOPE  H14R 4325   2.028   2.622  13.240 -1.0295  0.6593 -0.4653
   34DOPE  H14S 4326   1.978   2.784  13.268  0.6858  0.3035  1.8941
   34DOPE  C215 4327   2.187   2.744  13.291  0.5948  0.3164  0.0987
   34DOPE  H15R 4328   2.235   2.838  13.258  0.5516  0.2883 -0.0430
   34DOPE  H15S 4329   2.253   2.662  13.255  0.4971  0.3237 -0.1009
   34DOPE  C216 4330   2.178   2.729  13.442  0.0110 -1.2758 -0.4606
   34DOPE  H16R 4331   2.257   2.668  13.489  1.5732  1.4649  0.7275
   34DOPE  H16S 4332   2.085   2.679  13.478 -1.0899  1.9552  1.6848
   34DOPE  C217 4333   2.152   2.870  13.501 -0.6210  0.7261  0.3118
   34DOPE  H17R 4334   2.052   2.901  13.464 -1.1268 -2.7528 -1.6028
   34DOPE  H17S 4335   2.229   2.943  13.468  1.3477 -1.1630  0.4751
   34DOPE  C218 4336   2.154   2.872  13.654  0.3782  0.0012 -0.0273
   34DOPE  H18R 4337   2.058   2.840  13.700  1.1998 -1.4022  0.7985
   34DOPE  H18S 4338   2.176   2.976  13.687  3.7234 -0.6480  0.2188
   34DOPE  H18T 4339   2.237   2.814  13.701  1.5618  0.0502 -1.9120
   34DOPE   C33 4340   2.483   2.405  12.400  0.0763 -0.5346  0.4477
   34DOPE   H3X 4341   2.536   2.318  12.354 -0.1207 -0.4367  0.0264
   34DOPE   H3Y 4342   2.374   2.391  12.382  0.1549 -3.5311  1.6425
   34DOPE   C34 4343   2.509   2.392  12.552 -0.5777 -0.8102 -0.1236
   34DOPE   H4X 4344   2.457   2.476  12.603  0.0265 -1.9738  2.6113
   34DOPE   H4Y 4345   2.458   2.297  12.578 -1.5700 -0.0916  0.6271
   34DOPE   C35 4346   2.658   2.397  12.602  0.5928  0.2845  0.5151
   34DOPE   H5X 4347   2.717   2.457  12.529  1.8350  0.5634  1.6920
   34DOPE   H5Y 4348   2.690   2.291  12.602 -0.3085 -0.0057 -0.8584
   34DOPE   C36 4349   2.678   2.454  12.744  0.7375 -0.1508  0.3277
   34DOPE   H6X 4350   2.650   2.561  12.738  1.2678 -0.0730 -1.0495
   34DOPE   H6Y 4351   2.783   2.454  12.781  0.5403  2.5209  1.0811
   34DOPE   C37 4352   2.600   2.383  12.857  0.3971  0.6611 -0.1858
   34DOPE   H7X 4353   2.496   2.365  12.824  1.1400  0.1878 -2.4693
   34DOPE   H7Y 4354   2.648   2.283  12.864  1.6542  1.1947 -0.7971
   34DOPE   C38 4355   2.615   2.450  12.992 -0.2699  0.2916 -0.0624
   34DOPE   H8X 4356   2.724   2.457  13.016 -0.3080  2.2341 -0.3214
   34DOPE   H8Y 4357   2.576   2.378  13.068  0.4382  0.6678  0.6775
   34DOPE   C39 4358   2.541   2.582  13.004  0.5841  0.0049  0.1090
   34DOPE   H9X 4359   2.464   2.605  12.929  0.6331 -0.9955 -0.2550
   34DOPE  C310 4360   2.544   2.662  13.112  0.0777 -0.3675 -0.1552
   34DOPE  H10X 4361   2.489   2.756  13.100 -0.8715 -0.5496  2.2547
   34DOPE  C311 4362   2.640   2.649  13.229 -0.3460 -0.0889 -0.3579
   34DOPE  H11X 4363   2.730   2.585  13.211 -0.7852 -1.2406  1.3297
   34DOPE  H11Y 4364   2.687   2.748  13.252  1.3828 -0.8152 -0.5875
   34DOPE  C312 4365   2.566   2.579  13.341 -0.5996 -0.7200 -0.1604
   34DOPE  H12X 4366   2.546   2.472  13.319 -1.7149 -0.3582 -1.0291
   34DOPE  H12Y 4367   2.466   2.623  13.365 -0.6261  0.6971 -2.5764
   34DOPE  C313 4368   2.639   2.583  13.474 -0.2086  0.0914 -0.2135
   34DOPE  H13X 4369   2.727   2.515  13.484  0.2535  0.4468 -1.6795
   34DOPE  H13Y 4370   2.688   2.682  13.485 -1.7072  0.6995  1.7577
   34DOPE  C314 4371   2.548   2.551  13.589 -0.9057 -0.3983  0.1552
   34DOPE  H14X 4372   2.491   2.458  13.573  0.6914 -1.4529  0.3481
   34DOPE  H14Y 4373   2.468   2.627  13.604 -0.6181  0.0251 -0.3979
   34DOPE  C315 4374   2.619   2.546  13.731  0.4901  0.0815  0.5636
   34DOPE  H15X 4375   2.684   2.633  13.755  3.0613 -1.5869  0.0709
   34DOPE  H15Y 4376   2.687   2.459  13.748  0.4663 -0.2474 -0.9021
   34DOPE  C316 4377   2.511   2.553  13.842 -0.3710 -0.1118 -0.0836
   34DOPE  H16X 4378   2.451   2.459  13.848 -1.6352  0.6738 -0.2033
   34DOPE  H16Y 4379   2.434   2.630  13.821  0.1765  0.1880 -1.0439
   34DOPE  C317 4380   2.568   2.578  13.982 -0.9275  0.1931  0.3767
   34DOPE  H17X 4381   2.634   2.497  14.020  1.5372  1.8255 -0.1875
   34DOPE  H17Y 4382   2.631   2.669  13.981 -0.0824 -0.3127  2.5874
   34DOPE  C318 4383   2.462   2.597  14.089 -0.0790 -0.3058  0.2698
   34DOPE  H18X 4384   2.380   2.522  14.095 -1.1723  0.9342  1.5890
   34DOPE  H18Y 4385   2.513   2.606  14.187 -0.4394  0.8034  0.3731
   34DOPE  H18Z 4386   2.404   2.687  14.057 -0.4007 -1.0436 -1.2910
   35DOPE     N 4387   4.786   1.925  12.171 -0.1769 -0.0660  0.5984
   35DOPE   HN1 4388   4.798   1.835  12.121  1.5407  0.2659  0.3483
   35DOPE   HN2 4389   4.769   1.998  12.098 -1.7946 -0.5075  0.5051
   35DOPE   HN3 4390   4.877   1.946  12.216  0.6912  0.9500 -1.5242
   35DOPE   C12 4391   4.675   1.912  12.264 -0.0243  0.1944  0.2601
   35DOPE  H12A 4392   4.621   2.009  12.271 -1.3489 -0.3860 -1.3998
   35DOPE  H12B 4393   4.703   1.889  12.369  2.8838  0.3913 -0.3894
   35DOPE   C11 4394   4.579   1.812  12.208  0.0811  1.1604  0.6513
   35DOPE  H11A 4395   4.554   1.824  12.101 -0.5840 -2.4497  0.2538
   35DOPE  H11B 4396   4.478   1.836  12.248 -0.3586  0.5985 -0.0942
   35DOPE     P 4397   4.708   1.579  12.188  0.0608 -0.5036 -0.1488
   35DOPE   O13 4398   4.809   1.661  12.112  0.1534 -0.1868 -0.3495
   35DOPE   O14 4399   4.626   1.483  12.116  0.2352  0.0327  0.2495
   35DOPE   O11 4400   4.778   1.518  12.320 -0.3131  0.4657 -0.0805
   35DOPE   O12 4401   4.598   1.682  12.252  0.2301  0.6790 -1.2468
   35DOPE    C1 4402   4.690   1.451  12.407 -0.0420 -0.1363  0.2730
   35DOPE    HA 4403   4.737   1.365  12.460 -1.6202 -2.4195 -1.8233
   35DOPE    HB 4404   4.603   1.399  12.364 -0.8441 -0.6798  2.3963
   35DOPE    C2 4405   4.625   1.551  12.519 -0.8292  0.2829  0.3313
   35DOPE    HS 4406   4.545   1.610  12.470  0.9316  2.0358 -0.5966
   35DOPE   O21 4407   4.738   1.637  12.562  0.1572  0.3861  0.1226
   35DOPE   C21 4408   4.688   1.745  12.626 -0.1884 -0.7292  0.8948
   35DOPE   O22 4409   4.582   1.793  12.611  0.4045 -0.2862 -0.4819
   35DOPE   C22 4410   4.801   1.810  12.705  0.4741  0.6965  0.0594
   35DOPE   H2R 4411   4.814   1.915  12.669 -1.8039  0.6583 -1.1247
   35DOPE   H2S 4412   4.894   1.750  12.700 -0.3131 -0.7986  1.9967
   35DOPE    C3 4413   4.569   1.467  12.634 -0.5583  0.4982  0.3709
   35DOPE    HX 4414   4.628   1.376  12.659  1.0626  1.4806  0.2202
   35DOPE    HY 4415   4.472   1.438  12.588 -0.0861 -0.9375  0.2174
   35DOPE   O31 4416   4.546   1.542  12.755 -0.5916 -0.2940  0.7156
   35DOPE   C31 4417   4.469   1.476  12.838  0.3142 -0.3298 -0.4434
   35DOPE   O32 4418   4.420   1.370  12.814  0.3496  0.6003  0.0079
   35DOPE   C32 4419   4.458   1.562  12.970  0.2763  0.9510 -0.3542
   35DOPE   H2X 4420   4.540   1.636  12.983  0.7687  0.6885 -1.7558
   35DOPE   H2Y 4421   4.360   1.609  12.951 -0.9494 -1.7506 -1.1789
   35DOPE   C23 4422   4.753   1.829  12.847  0.4381 -0.1279 -0.8182
   35DOPE   H3R 4423   4.692   1.742  12.880 -1.0339  1.0444 -0.3501
   35DOPE   H3S 4424   4.687   1.918  12.843 -2.4286 -2.1012 -0.7927
   35DOPE   C24 4425   4.863   1.848  12.946 -0.4463  0.3507  0.1984
   35DOPE   H4R 4426   4.936   1.922  12.907 -0.8819  0.1445 -1.0676
   35DOPE   H4S 4427   4.909   1.747  12.952 -0.3943  0.3913  0.4780
   35DOPE   C25 4428   4.811   1.872  13.087  0.0284 -0.3121  0.8163
   35DOPE   H5R 4429   4.704   1.844  13.081 -0.2415  0.9462 -2.8093
   35DOPE   H5S 4430   4.809   1.981  13.108 -1.7863 -0.8670  4.3761
   35DOPE   C26 4431   4.886   1.797  13.190  0.5438 -0.4321  0.2186
   35DOPE   H6R 4432   4.993   1.827  13.192  0.3891  0.1102  0.6990
   35DOPE   H6S 4433   4.889   1.686  13.183 -2.3607 -0.7450  2.1868
   35DOPE   C27 4434   4.818   1.816  13.332  0.4388 -0.3881 -0.1756
   35DOPE   H7R 4435   4.713   1.784  13.318  0.0034  0.9711 -0.1724
   35DOPE   H7S 4436   4.813   1.924  13.356 -1.4021 -0.4122 -0.3403
   35DOPE   C28 4437   4.887   1.727  13.436 -0.4646  0.4096 -0.4878
   35DOPE   H8R 4438   4.918   1.629  13.392  0.8279  0.8457 -0.5864
   35DOPE   H8S 4439   4.811   1.712  13.515  0.6064 -1.7511  0.2220
   35DOPE   C29 4440   5.000   1.797  13.504  0.2877 -0.3548 -0.2408
   35DOPE   H9R 4441   5.058   1.862  13.438 -1.6522 -0.7005 -2.4378
   35DOPE  C210 4442   5.043   1.785  13.631  0.7422  0.0558 -0.6416
   35DOPE  H10R 4443   5.115   1.861  13.666 -0.6125  0.0302  2.6066
   35DOPE  C211 4444   4.988   1.694  13.740 -0.2283 -0.2638 -0.4463
   35DOPE  H11R 4445   5.054   1.605  13.735 -0.3889 -0.4038 -0.0891
   35DOPE  H11S 4446   4.882   1.666  13.722 -0.0604 -0.6271 -0.9053
   35DOPE  C212 4447   5.008   1.754  13.881 -0.0701 -0.4605  0.3605
   35DOPE  H12R 4448   5.115   1.774  13.902 -0.4656  1.7511  0.4311
   35DOPE  H12S 4449   4.981   1.672  13.950 -2.6384 -0.8068 -0.9464
   35DOPE  C213 4450   4.913   1.867  13.924 -0.2832 -0.3470  0.4450
   35DOPE  H13R 4451   4.808   1.833  13.919 -0.4170  0.2437 -0.9940
   35DOPE  H13S 4452   4.921   1.947  13.848  3.7842 -0.0170  0.9959
   35DOPE  C214 4453   4.941   1.916  14.070  0.5522  0.3693  0.1506
   35DOPE  H14R 4454   5.041   1.961  14.086  0.4922 -0.4553  3.7271
   35DOPE  H14S 4455   4.941   1.828  14.138 -1.2057  0.7532  0.7232
   35DOPE  C215 4456   4.849   2.036  14.102 -0.8131 -0.1311  0.6249
   35DOPE  H15R 4457   4.743   2.005  14.116 -1.3920  1.8833  0.9716
   35DOPE  H15S 4458   4.852   2.109  14.019 -0.1448 -1.4131 -0.5277
   35DOPE  C216 4459   4.897   2.102  14.231  0.1470 -0.3062 -0.2183
   35DOPE  H16R 4460   4.866   2.209  14.225  1.1773 -0.0387 -0.9298
   35DOPE  H16S 4461   5.007   2.103  14.241  0.2292 -0.4058 -1.0393
   35DOPE  C217 4462   4.826   2.033  14.352  0.1467 -0.1605  0.2385
   35DOPE  H17R 4463   4.892   2.043  14.440 -0.2821 -2.0297  0.8207
   35DOPE  H17S 4464   4.830   1.924  14.331  0.1216  0.1785 -1.6771
   35DOPE  C218 4465   4.681   2.079  14.388  0.2508  0.1937  0.1666
   35DOPE  H18R 4466   4.644   2.035  14.483 -1.7426  1.7763  0.1740
   35DOPE  H18S 4467   4.602   2.055  14.314 -0.1096 -1.5485  1.0670
   35DOPE  H18T 4468   4.693   2.187  14.408  1.5633 -0.1848  1.6337
   35DOPE   C33 4469   4.436   1.482  13.098  0.0663 -0.2719 -0.4065
   35DOPE   H3X 4470   4.523   1.424  13.136 -0.4271  0.0170  1.2417
   35DOPE   H3Y 4471   4.359   1.407  13.069  0.2597 -0.7826  0.3851
   35DOPE   C34 4472   4.375   1.563  13.213 -0.0223  0.9417 -1.2979
   35DOPE   H4X 4473   4.429   1.660  13.220 -0.7123  1.5104 -3.2404
   35DOPE   H4Y 4474   4.270   1.585  13.184  0.0795  1.8654 -0.9946
   35DOPE   C35 4475   4.382   1.490  13.342  0.4323  0.1508  0.4421
   35DOPE   H5X 4476   4.489   1.481  13.370  0.0811  1.7991  2.5312
   35DOPE   H5Y 4477   4.329   1.393  13.327  0.2207  0.0504  1.7226
   35DOPE   C36 4478   4.313   1.553  13.466  1.1409 -0.6176  0.2629
   35DOPE   H6X 4479   4.204   1.546  13.445  0.9043  2.3252 -0.0115
   35DOPE   H6Y 4480   4.335   1.662  13.461 -0.8569 -0.1957 -0.1965
   35DOPE   C37 4481   4.340   1.483  13.596 -1.0636 -0.0713 -0.6356
   35DOPE   H7X 4482   4.266   1.519  13.671 -0.6854  0.4762 -0.5211
   35DOPE   H7Y 4483   4.313   1.377  13.579  1.2447 -0.8773  0.3998
   35DOPE   C38 4484   4.482   1.508  13.641  0.2176 -0.0728 -0.4755
   35DOPE   H8X 4485   4.551   1.476  13.560  0.4358 -0.8081 -0.0016
   35DOPE   H8Y 4486   4.503   1.451  13.734 -0.4781  2.4660  1.3496
   35DOPE   C39 4487   4.509   1.654  13.662  0.1048 -0.1815 -0.4877
   35DOPE   H9X 4488   4.545   1.715  13.578  1.0388  0.9868  0.7022
   35DOPE  C310 4489   4.494   1.719  13.782 -0.0090  0.0061  0.6426
   35DOPE  H10X 4490   4.537   1.820  13.790  3.7151 -1.4799  1.6077
   35DOPE  C311 4491   4.450   1.655  13.912  0.2199 -0.7756 -0.0908
   35DOPE  H11X 4492   4.379   1.732  13.950  1.9733  1.7325 -1.5987
   35DOPE  H11Y 4493   4.392   1.561  13.900 -0.0058 -0.5221 -1.1486
   35DOPE  C312 4494   4.560   1.619  14.006 -0.0327 -0.1554  0.1162
   35DOPE  H12X 4495   4.617   1.707  14.043  1.2534 -1.2423  0.8010
   35DOPE  H12Y 4496   4.625   1.552  13.945 -1.4326 -0.1017 -1.5307
   35DOPE  C313 4497   4.501   1.542  14.121  0.0019 -0.0025  0.2011
   35DOPE  H13X 4498   4.455   1.448  14.081  1.3484 -0.4471 -0.3652
   35DOPE  H13Y 4499   4.585   1.509  14.186 -0.8125 -2.8935 -0.0529
   35DOPE  C314 4500   4.409   1.630  14.200 -0.8337  0.1322  0.7138
   35DOPE  H14X 4501   4.320   1.654  14.138  0.7458  1.2491 -1.2656
   35DOPE  H14Y 4502   4.463   1.725  14.219 -1.3307  0.5873 -0.0816
   35DOPE  C315 4503   4.366   1.567  14.326  0.2046  0.4169  0.8049
   35DOPE  H15X 4504   4.437   1.545  14.409 -0.0960  0.2151  1.0093
   35DOPE  H15Y 4505   4.319   1.474  14.288  0.7256  0.3203  0.3873
   35DOPE  C316 4506   4.247   1.636  14.398 -0.5719  0.4786 -0.4391
   35DOPE  H16X 4507   4.213   1.589  14.493 -0.0186  0.7198 -0.1201
   35DOPE  H16Y 4508   4.158   1.642  14.331 -1.0408 -0.0644  0.1224
   35DOPE  C317 4509   4.282   1.783  14.436 -0.4399 -0.4011  0.4579
   35DOPE  H17X 4510   4.374   1.774  14.498 -0.3814 -0.5715  0.3461
   35DOPE  H17Y 4511   4.312   1.840  14.346 -0.5891 -1.5127 -0.3130
   35DOPE  C318 4512   4.165   1.855  14.505 -0.6850  0.3217  0.2392
   35DOPE  H18X 4513   4.210   1.944  14.554  1.7461 -0.3023 -0.7054
   35DOPE  H18Y 4514   4.096   1.885  14.423  0.0719  0.0071 -0.5369
   35DOPE  H18Z 4515   4.116   1.786  14.576 -1.5156  0.8644  0.2100
   36DOPE     N 4516   5.168   2.643  11.575  0.2128 -0.4924 -0.1845
   36DOPE   HN1 4517   5.074   2.687  11.566  0.4346 -0.1750 -0.9948
   36DOPE   HN2 4518   5.232   2.704  11.630 -0.7112  0.1483  0.2153
   36DOPE   HN3 4519   5.212   2.630  11.482 -0.3478 -0.3890 -0.4701
   36DOPE   C12 4520   5.160   2.511  11.643 -0.0754  0.2507  0.0618
   36DOPE  H12A 4521   5.247   2.446  11.619 -1.0943 -1.0604 -0.1608
   36DOPE  H12B 4522   5.068   2.459  11.610 -0.1582  1.7643 -2.3432
   36DOPE   C11 4523   5.143   2.512  11.795 -0.0227  0.6653 -0.0307
   36DOPE  H11A 4524   5.126   2.406  11.825  0.3584  0.7966  0.6848
   36DOPE  H11B 4525   5.045   2.555  11.823  0.0474  2.0230 -1.7164
   36DOPE     P 4526   5.240   2.599  12.019 -0.6236 -0.1418 -0.2457
   36DOPE   O13 4527   5.123   2.690  12.033  0.4486 -0.4137  0.6104
   36DOPE   O14 4528   5.369   2.645  12.078 -0.6009 -0.0509 -0.1829
   36DOPE   O11 4529   5.212   2.452  12.069 -0.1424 -0.1469  0.5312
   36DOPE   O12 4530   5.258   2.573  11.862  0.1656  0.3272  0.3423
   36DOPE    C1 4531   5.084   2.402  12.115 -0.0451 -0.0431 -0.4117
   36DOPE    HA 4532   5.039   2.341  12.034 -2.4939 -0.6583  1.2966
   36DOPE    HB 4533   5.007   2.478  12.140 -0.3589 -0.4313 -0.1802
   36DOPE    C2 4534   5.095   2.322  12.248 -0.3124 -0.2299  0.3718
   36DOPE    HS 4535   4.990   2.301  12.277 -0.9402  0.0555 -1.5386
   36DOPE   O21 4536   5.165   2.400  12.342 -0.2016  0.7802  0.6190
   36DOPE   C21 4537   5.095   2.505  12.390  0.0990 -0.2237 -0.2846
   36DOPE   O22 4538   4.972   2.522  12.381 -0.4039  0.4163  0.1036
   36DOPE   C22 4539   5.193   2.609  12.436  0.1515  0.3415  0.0137
   36DOPE   H2R 4540   5.248   2.642  12.345 -0.9433 -0.7536 -1.0767
   36DOPE   H2S 4541   5.260   2.551  12.502 -1.5626  0.8883  2.3433
   36DOPE    C3 4542   5.180   2.190  12.227  0.6836 -0.6159  0.1035
   36DOPE    HX 4543   5.282   2.220  12.195  0.5948 -1.6202 -1.1958
   36DOPE    HY 4544   5.128   2.130  12.149  1.4216 -0.6174 -0.3955
   36DOPE   O31 4545   5.203   2.117  12.340 -0.3351 -0.2185 -0.2894
   36DOPE   C31 4546   5.096   2.045  12.377 -0.0302 -0.5046 -0.3325
   36DOPE   O32 4547   4.987   2.047  12.325  0.5537 -0.4645  0.2190
   36DOPE   C32 4548   5.127   1.969  12.509 -0.4012  0.5421 -1.1897
   36DOPE   H2X 4549   5.024   1.939  12.541 -0.2171  1.4979  0.4054
   36DOPE   H2Y 4550   5.185   1.875  12.499 -2.1407 -0.9244  1.1660
   36DOPE   C23 4551   5.133   2.729  12.503 -0.2381  0.3194 -0.4514
   36DOPE   H3R 4552   5.035   2.761  12.463 -0.2918 -0.0112 -0.5887
   36DOPE   H3S 4553   5.187   2.823  12.479  0.1544 -0.2113 -1.7343
   36DOPE   C24 4554   5.133   2.704  12.653 -0.4756 -0.3368 -0.1918
   36DOPE   H4R 4555   5.234   2.706  12.700 -1.6031  0.2810  2.3353
   36DOPE   H4S 4556   5.100   2.599  12.670 -3.1451  0.7572  2.1349
   36DOPE   C25 4557   5.049   2.802  12.731  0.1312  0.1564  0.0102
   36DOPE   H5R 4558   4.945   2.767  12.720  0.2561  0.3607 -2.2503
   36DOPE   H5S 4559   5.063   2.906  12.694 -1.0158  1.0642  1.9479
   36DOPE   C26 4560   5.084   2.806  12.881 -0.4351 -0.0684 -0.9756
   36DOPE   H6R 4561   5.012   2.879  12.924  0.3924  0.4988 -0.5170
   36DOPE   H6S 4562   5.179   2.863  12.894 -0.4332 -0.5434  1.4239
   36DOPE   C27 4563   5.090   2.675  12.958 -0.7630  0.3313  0.1563
   36DOPE   H7R 4564   5.182   2.618  12.933 -1.5888 -1.8404  1.6996
   36DOPE   H7S 4565   5.015   2.599  12.927  0.4114 -1.4421  1.4650
   36DOPE   C28 4566   5.093   2.692  13.113  0.1051  0.1332  0.2063
   36DOPE   H8R 4567   5.075   2.595  13.164  0.4385  0.8888  1.8067
   36DOPE   H8S 4568   5.000   2.747  13.142 -0.0264 -0.5680  1.1331
   36DOPE   C29 4569   5.226   2.752  13.164  0.7723 -0.8195 -0.5705
   36DOPE   H9R 4570   5.247   2.854  13.129 -0.9720 -0.3122 -0.2431
   36DOPE  C210 4571   5.310   2.677  13.240 -0.0010 -0.3173 -0.0559
   36DOPE  H10R 4572   5.403   2.724  13.273 -0.6503  0.5989  0.5111
   36DOPE  C211 4573   5.302   2.532  13.267 -0.0390  0.4561  0.5406
   36DOPE  H11R 4574   5.407   2.496  13.262  0.0787  0.9595 -1.1031
   36DOPE  H11S 4575   5.245   2.499  13.177 -1.6772  4.2855  0.0061
   36DOPE  C212 4576   5.223   2.478  13.389  0.3814 -0.0705 -0.8160
   36DOPE  H12R 4577   5.193   2.371  13.384 -0.6845  0.2137 -0.7743
   36DOPE  H12S 4578   5.123   2.526  13.390 -0.5763 -1.9237 -1.8562
   36DOPE  C213 4579   5.300   2.500  13.523 -0.3164  0.4464  0.0645
   36DOPE  H13R 4580   5.323   2.608  13.532 -0.2567  0.2863  2.6047
   36DOPE  H13S 4581   5.395   2.442  13.519 -0.2241  0.5048  1.1311
   36DOPE  C214 4582   5.219   2.460  13.650  0.1331 -0.0984 -0.1066
   36DOPE  H14R 4583   5.174   2.359  13.641 -2.5802  0.6749  2.8191
   36DOPE  H14S 4584   5.128   2.523  13.651 -0.5500 -1.0239 -1.2443
   36DOPE  C215 4585   5.292   2.483  13.781 -0.1766 -0.7575  0.3212
   36DOPE  H15R 4586   5.375   2.555  13.761 -1.2353 -0.0050 -1.5869
   36DOPE  H15S 4587   5.339   2.385  13.804  2.4317  0.5778  1.1217
   36DOPE  C216 4588   5.228   2.554  13.902  0.5013  0.0163  0.7915
   36DOPE  H16R 4589   5.173   2.472  13.953  0.3087 -0.0935  0.4135
   36DOPE  H16S 4590   5.151   2.629  13.874  0.0481 -0.6689  0.1387
   36DOPE  C217 4591   5.328   2.614  13.999 -0.2652 -0.6299 -0.0688
   36DOPE  H17R 4592   5.383   2.702  13.958 -0.5859  0.0911  1.0188
   36DOPE  H17S 4593   5.405   2.536  14.017  0.2334  0.2382  1.8326
   36DOPE  C218 4594   5.255   2.667  14.120  0.3914 -0.6697 -0.0614
   36DOPE  H18R 4595   5.167   2.731  14.095  0.5737 -0.5086 -0.2987
   36DOPE  H18S 4596   5.315   2.743  14.175 -2.1986  1.4252  0.0503
   36DOPE  H18T 4597   5.228   2.581  14.185  1.3185  0.6119  2.1314
   36DOPE   C33 4598   5.187   2.068  12.618  0.1092  0.7273  0.3972
   36DOPE   H3X 4599   5.127   2.159  12.639 -0.0152  0.3269  1.8617
   36DOPE   H3Y 4600   5.290   2.099  12.590  0.8451 -1.4364  0.4787
   36DOPE   C34 4601   5.201   1.979  12.743 -0.7464 -1.0143  0.1257
   36DOPE   H4X 4602   5.113   1.911  12.753 -0.9855 -0.6078  0.8492
   36DOPE   H4Y 4603   5.289   1.911  12.736 -0.9731 -1.4233  1.0645
   36DOPE   C35 4604   5.225   2.065  12.871 -0.2236 -0.0051  0.5372
   36DOPE   H5X 4605   5.121   2.088  12.901 -0.6284 -2.5530  1.3264
   36DOPE   H5Y 4606   5.284   2.158  12.856  0.3333 -0.3866  0.3084
   36DOPE   C36 4607   5.276   1.984  12.987  0.0651 -0.2074 -0.7387
   36DOPE   H6X 4608   5.375   1.938  12.966  0.3202  0.4848 -1.0618
   36DOPE   H6Y 4609   5.206   1.900  13.006  0.9276 -1.0126 -1.0310
   36DOPE   C37 4610   5.280   2.052  13.118  0.1009  0.5152 -0.0517
   36DOPE   H7X 4611   5.362   2.125  13.133  0.8621  0.1549 -2.1258
   36DOPE   H7Y 4612   5.189   2.115  13.123 -0.3811 -0.2189  0.8127
   36DOPE   C38 4613   5.285   1.949  13.235  0.5509  0.3029 -0.1076
   36DOPE   H8X 4614   5.386   1.907  13.214  0.5391  0.0969  0.2405
   36DOPE   H8Y 4615   5.213   1.864  13.244 -0.4749  1.1002 -0.6164
   36DOPE   C39 4616   5.280   2.029  13.372  0.3886 -0.3446  0.8477
   36DOPE   H9X 4617   5.201   2.105  13.368  0.9469  0.1997 -0.4984
   36DOPE  C310 4618   5.354   2.033  13.484 -0.4020  0.1948 -0.0824
   36DOPE  H10X 4619   5.330   2.105  13.564  1.8701  1.9583 -0.9153
   36DOPE  C311 4620   5.472   1.943  13.506  0.0586  0.3902 -0.2055
   36DOPE  H11X 4621   5.495   1.878  13.419  0.8992  0.6084 -0.1510
   36DOPE  H11Y 4622   5.556   2.015  13.520 -0.1288  0.2717  1.7353
   36DOPE  C312 4623   5.462   1.847  13.627  0.6302 -0.2210  0.2125
   36DOPE  H12X 4624   5.566   1.820  13.655  0.6836 -1.2416 -0.9076
   36DOPE  H12Y 4625   5.402   1.761  13.590 -0.4800  1.1239 -1.2049
   36DOPE  C313 4626   5.379   1.894  13.752  0.3629 -0.0064  0.1451
   36DOPE  H13X 4627   5.286   1.952  13.731  0.7554  0.2027 -1.0648
   36DOPE  H13Y 4628   5.345   1.810  13.816  0.1785 -0.5786 -0.6895
   36DOPE  C314 4629   5.465   1.994  13.840  0.1582 -0.0043  0.2080
   36DOPE  H14X 4630   5.500   2.083  13.783 -0.9020  0.8426  0.8262
   36DOPE  H14Y 4631   5.554   1.937  13.875  0.5809  0.1805 -0.5478
   36DOPE  C315 4632   5.383   2.050  13.959 -0.2651  0.1025 -0.1498
   36DOPE  H15X 4633   5.343   1.962  14.014  0.9217  0.1801  0.8837
   36DOPE  H15Y 4634   5.294   2.099  13.914  1.0922 -0.1040 -3.2854
   36DOPE  C316 4635   5.454   2.145  14.046 -0.2974 -0.1791  0.2196
   36DOPE  H16X 4636   5.490   2.238  13.997 -0.7285 -0.0408  0.1586
   36DOPE  H16Y 4637   5.544   2.091  14.082  0.1020  0.8315  0.7700
   36DOPE  C317 4638   5.366   2.188  14.169 -0.3962 -0.1745  0.3893
   36DOPE  H17X 4639   5.279   2.247  14.133  0.2797  0.0604 -0.9178
   36DOPE  H17Y 4640   5.325   2.095  14.212 -1.3140  0.6853  1.4387
   36DOPE  C318 4641   5.456   2.269  14.265 -0.5483 -0.1686  0.1776
   36DOPE  H18X 4642   5.540   2.211  14.309 -0.1344 -0.6152 -1.1401
   36DOPE  H18Y 4643   5.502   2.356  14.212  0.3729 -1.0916 -0.5905
   36DOPE  H18Z 4644   5.393   2.306  14.348 -0.5162 -0.2102  0.2200
   37DOPE     N 4645   3.250   2.165  11.513  0.4065  0.7677  0.2122
   37DOPE   HN1 4646   3.176   2.094  11.531 -0.0256  1.0758 -0.2863
   37DOPE   HN2 4647   3.295   2.160  11.419 -0.2954  1.8316 -0.1994
   37DOPE   HN3 4648   3.322   2.160  11.587  0.0419 -2.5892  0.5006
   37DOPE   C12 4649   3.171   2.293  11.529 -0.2401 -0.5601  0.4102
   37DOPE  H12A 4650   3.092   2.290  11.451 -1.8712  0.5046  1.9235
   37DOPE  H12B 4651   3.228   2.387  11.511 -1.2962 -0.2818 -1.8552
   37DOPE   C11 4652   3.086   2.297  11.653  0.1144 -0.2104 -0.3417
   37DOPE  H11A 4653   3.043   2.399  11.649 -2.0243 -1.0851 -1.1202
   37DOPE  H11B 4654   3.153   2.273  11.738  0.9758  0.6909 -0.7487
   37DOPE     P 4655   2.846   2.205  11.710  0.0252 -0.0835  0.0048
   37DOPE   O13 4656   2.780   2.070  11.695 -0.2235  0.2662  0.3382
   37DOPE   O14 4657   2.769   2.316  11.659  0.2107 -0.6032  0.1748
   37DOPE   O11 4658   2.892   2.226  11.860 -0.2558 -0.2279  0.2907
   37DOPE   O12 4659   2.984   2.194  11.641  0.0890  0.5482 -0.2755
   37DOPE    C1 4660   2.800   2.275  11.955  0.7018  0.2729 -0.1807
   37DOPE    HA 4661   2.694   2.276  11.923  0.7849  1.3104 -0.4368
   37DOPE    HB 4662   2.834   2.373  11.994  2.1278 -1.0069  2.0405
   37DOPE    C2 4663   2.784   2.171  12.075 -0.2749  0.9517 -0.3476
   37DOPE    HS 4664   2.697   2.197  12.140 -1.8306 -2.5988 -0.7441
   37DOPE   O21 4665   2.902   2.174  12.159  0.1589 -0.0405  0.4271
   37DOPE   C21 4666   2.921   2.284  12.218 -0.1395 -0.3474 -0.6474
   37DOPE   O22 4667   2.843   2.381  12.217  0.2017 -0.0886  0.1235
   37DOPE   C22 4668   3.055   2.282  12.284  0.1425  0.1887  0.5523
   37DOPE   H2R 4669   3.125   2.327  12.211  1.5289 -0.4959  1.4340
   37DOPE   H2S 4670   3.073   2.173  12.299 -2.9044 -0.7661 -1.6109
   37DOPE    C3 4671   2.759   2.015  12.029  0.1361 -0.4849 -0.0340
   37DOPE    HX 4672   2.815   1.986  11.938  0.8043 -2.4186  0.9292
   37DOPE    HY 4673   2.651   2.009  12.004  0.1234 -1.5656  0.2200
   37DOPE   O31 4674   2.770   1.930  12.150  0.2821  0.4918 -0.3343
   37DOPE   C31 4675   2.887   1.871  12.169  0.2003  0.2080  0.5093
   37DOPE   O32 4676   2.976   1.857  12.085 -0.3169  0.2961 -0.5451
   37DOPE   C32 4677   2.870   1.807  12.305 -0.2425  0.8796  0.4224
   37DOPE   H2X 4678   2.781   1.850  12.355  0.1548 -0.5931  2.5275
   37DOPE   H2Y 4679   2.848   1.701  12.278  1.4136  0.4782  0.5010
   37DOPE   C23 4680   3.054   2.339  12.428 -0.3620 -0.9212  0.2402
   37DOPE   H3R 4681   2.972   2.414  12.429 -2.5383 -3.0994  2.9080
   37DOPE   H3S 4682   3.151   2.391  12.436 -0.4223 -1.0686  2.5391
   37DOPE   C24 4683   3.049   2.248  12.546 -0.1638 -0.6689  0.9192
   37DOPE   H4R 4684   3.128   2.170  12.534  0.9147  0.3834  1.0375
   37DOPE   H4S 4685   2.953   2.193  12.552  0.5271 -1.8250  1.9771
   37DOPE   C25 4686   3.068   2.319  12.682  0.3429  0.4276 -0.4305
   37DOPE   H5R 4687   2.994   2.401  12.683  1.4700  1.5968  3.8613
   37DOPE   H5S 4688   3.173   2.356  12.683  0.3495  0.4626  1.5804
   37DOPE   C26 4689   3.040   2.230  12.802 -0.2291 -0.1597 -0.2363
   37DOPE   H6R 4690   3.069   2.124  12.789 -0.1460 -0.2206  0.4025
   37DOPE   H6S 4691   2.930   2.228  12.820 -0.2159  1.4962  0.2922
   37DOPE   C27 4692   3.108   2.279  12.928 -0.0739  0.7574 -0.4842
   37DOPE   H7R 4693   3.061   2.373  12.962  0.6449  0.3528  1.8133
   37DOPE   H7S 4694   3.209   2.318  12.904  0.3794  0.1806  0.4355
   37DOPE   C28 4695   3.104   2.183  13.051  0.3636 -0.3048  0.7066
   37DOPE   H8R 4696   3.192   2.211  13.112 -0.1412  0.4804  1.0930
   37DOPE   H8S 4697   3.112   2.086  12.998 -1.4404  0.0294 -0.2590
   37DOPE   C29 4698   2.974   2.184  13.129  0.4638  0.5217 -0.6171
   37DOPE   H9R 4699   2.890   2.121  13.095  0.1670  0.3607  0.3763
   37DOPE  C210 4700   2.947   2.284  13.221  0.6618  0.1915  0.7808
   37DOPE  H10R 4701   2.845   2.304  13.256  1.1959  0.5692  2.1911
   37DOPE  C211 4702   3.026   2.404  13.260 -0.0379  0.0210 -0.6482
   37DOPE  H11R 4703   2.992   2.498  13.210  1.5549  1.9301  1.5860
   37DOPE  H11S 4704   3.134   2.392  13.235  0.4260  0.4288  1.0165
   37DOPE  C212 4705   3.021   2.423  13.414 -0.2145 -1.0775  0.3625
   37DOPE  H12R 4706   2.920   2.457  13.446 -0.3928  0.9205 -2.0013
   37DOPE  H12S 4707   3.086   2.508  13.442 -2.9039  2.1933 -2.3421
   37DOPE  C213 4708   3.069   2.297  13.489 -0.2140 -0.0987 -1.0935
   37DOPE  H13R 4709   3.155   2.252  13.435  0.0526  1.4901 -2.0254
   37DOPE  H13S 4710   2.996   2.213  13.487  0.5940 -0.9184  0.8842
   37DOPE  C214 4711   3.120   2.326  13.630  0.2109 -0.4240 -0.3689
   37DOPE  H14R 4712   3.151   2.433  13.631 -2.4460  0.4547  1.2372
   37DOPE  H14S 4713   3.210   2.264  13.647  1.0196 -0.6318 -4.3617
   37DOPE  C215 4714   3.022   2.309  13.744 -0.3248  0.3668  0.2250
   37DOPE  H15R 4715   2.971   2.211  13.736  2.0930 -1.1583  2.3201
   37DOPE  H15S 4716   2.944   2.388  13.754  0.9128  1.6011  0.3670
   37DOPE  C216 4717   3.104   2.329  13.879  0.5171 -0.1335 -0.2788
   37DOPE  H16R 4718   3.156   2.427  13.885 -0.4871  0.3335  2.6134
   37DOPE  H16S 4719   3.171   2.241  13.890  1.6684  0.8551  0.8514
   37DOPE  C217 4720   3.012   2.330  13.997 -1.0495 -0.4422  0.2611
   37DOPE  H17R 4721   2.951   2.238  14.002 -0.1935 -1.2579 -2.8119
   37DOPE  H17S 4722   2.943   2.417  13.990 -0.1256  0.1396 -3.2089
   37DOPE  C218 4723   3.087   2.331  14.135  0.4751  0.0313  0.7555
   37DOPE  H18R 4724   3.019   2.309  14.220  0.6326  0.4835  1.0047
   37DOPE  H18S 4725   3.142   2.426  14.152  1.1701 -0.3390  0.5793
   37DOPE  H18T 4726   3.163   2.251  14.135 -1.1612 -1.5854  0.8252
   37DOPE   C33 4727   3.002   1.813  12.384  0.3788 -0.1825  0.3535
   37DOPE   H3X 4728   3.044   1.914  12.400 -0.9273  0.6632 -1.2589
   37DOPE   H3Y 4729   3.079   1.754  12.331 -0.6804 -0.3975 -1.0099
   37DOPE   C34 4730   2.970   1.754  12.519 -0.3494  0.4620 -0.4185
   37DOPE   H4X 4731   2.881   1.800  12.566  1.3898  0.9966  2.7006
   37DOPE   H4Y 4732   2.951   1.648  12.494  0.1106  0.2783 -0.0157
   37DOPE   C35 4733   3.079   1.765  12.624 -0.4253  0.1291 -0.7975
   37DOPE   H5X 4734   3.101   1.873  12.614  0.2012  0.0663 -0.2065
   37DOPE   H5Y 4735   3.169   1.702  12.604 -0.9552 -1.1614  0.6779
   37DOPE   C36 4736   3.032   1.731  12.771 -0.0707 -0.4357 -0.2020
   37DOPE   H6X 4737   2.997   1.626  12.763  0.5602 -0.5825 -1.1701
   37DOPE   H6Y 4738   2.945   1.793  12.801  0.9726  0.7533  0.4569
   37DOPE   C37 4739   3.150   1.752  12.872 -0.6615  0.0294 -0.8189
   37DOPE   H7X 4740   3.245   1.705  12.837  1.2230  2.6211  0.5117
   37DOPE   H7Y 4741   3.184   1.857  12.864  2.9930 -0.9794 -0.4719
   37DOPE   C38 4742   3.131   1.702  13.016 -0.1980 -0.3159  0.1533
   37DOPE   H8X 4743   3.226   1.731  13.065  0.7558  0.6551 -2.1182
   37DOPE   H8Y 4744   3.114   1.593  13.011  0.4622 -0.3673 -1.1494
   37DOPE   C39 4745   3.006   1.768  13.078  0.0561  0.1595  0.7413
   37DOPE   H9X 4746   2.912   1.723  13.041  0.4767 -0.3929  0.3120
   37DOPE  C310 4747   2.999   1.847  13.183  0.1897  0.3941  0.2042
   37DOPE  H10X 4748   2.905   1.903  13.194 -0.5923 -0.9536  0.6394
   37DOPE  C311 4749   3.124   1.896  13.253 -0.3269 -0.2507  0.4023
   37DOPE  H11X 4750   3.219   1.893  13.196  0.0281 -0.0202  0.9822
   37DOPE  H11Y 4751   3.108   2.006  13.259  2.3309  0.3346 -1.4038
   37DOPE  C312 4752   3.152   1.851  13.392 -0.2102  0.5716 -0.2386
   37DOPE  H12X 4753   3.251   1.884  13.429 -0.8879  1.9552  0.4262
   37DOPE  H12Y 4754   3.152   1.740  13.403 -1.4329  0.3813 -1.8157
   37DOPE  C313 4755   3.043   1.902  13.494  0.0113  0.3287 -0.8467
   37DOPE  H13X 4756   3.066   2.009  13.513 -2.4825  0.6227  1.1084
   37DOPE  H13Y 4757   2.945   1.882  13.445 -0.4245  0.6595 -0.1412
   37DOPE  C314 4758   3.048   1.816  13.623  0.4954  0.9721 -0.3057
   37DOPE  H14X 4759   3.025   1.714  13.585 -1.9614  1.5220 -0.4912
   37DOPE  H14Y 4760   2.967   1.854  13.689 -0.2650  1.1890 -1.3325
   37DOPE  C315 4761   3.182   1.808  13.680 -0.2821 -0.1828 -0.3576
   37DOPE  H15X 4762   3.247   1.890  13.642  1.2097 -0.6398  1.0877
   37DOPE  H15Y 4763   3.235   1.721  13.636 -0.4121 -0.0004 -0.8791
   37DOPE  C316 4764   3.189   1.811  13.830 -0.4132  0.3113  0.0663
   37DOPE  H16X 4765   3.287   1.775  13.868 -1.0357  0.6351  2.1362
   37DOPE  H16Y 4766   3.112   1.742  13.870  2.1998 -1.7933  1.8556
   37DOPE  C317 4767   3.171   1.950  13.886  0.0042  0.3241 -1.0744
   37DOPE  H17X 4768   3.263   2.011  13.874  1.0626 -0.3932  2.2959
   37DOPE  H17Y 4769   3.087   1.999  13.833 -2.3077 -0.8716  1.2561
   37DOPE  C318 4770   3.155   1.934  14.037  0.1708  0.2769  0.3172
   37DOPE  H18X 4771   3.141   2.037  14.078 -0.6774  0.2777  0.0409
   37DOPE  H18Y 4772   3.069   1.873  14.071  1.4334 -1.3485  0.7489
   37DOPE  H18Z 4773   3.242   1.892  14.092  0.1257 -0.0682  0.1215
   38DOPE     N 4774   4.606   3.306  11.856 -0.5010  0.6701 -0.4021
   38DOPE   HN1 4775   4.702   3.301  11.896  0.7176  0.6339 -3.1113
   38DOPE   HN2 4776   4.550   3.374  11.911 -2.0670 -0.2093 -0.8366
   38DOPE   HN3 4777   4.555   3.217  11.872  1.9749 -1.0457 -1.3833
   38DOPE   C12 4778   4.602   3.356  11.712  0.0749  0.0851 -0.2223
   38DOPE  H12A 4779   4.662   3.285  11.650 -1.3661 -1.1786 -0.2302
   38DOPE  H12B 4780   4.661   3.448  11.697 -2.1192  1.3713 -1.4731
   38DOPE   C11 4781   4.462   3.382  11.654  0.2554  0.3833  0.1370
   38DOPE  H11A 4782   4.419   3.297  11.598  1.5819 -0.7103  0.6958
   38DOPE  H11B 4783   4.482   3.462  11.579 -0.6309  0.3501 -0.1380
   38DOPE     P 4784   4.341   3.562  11.827  0.0609  0.0903 -0.3751
   38DOPE   O13 4785   4.230   3.558  11.925 -0.6654 -0.0165 -0.1059
   38DOPE   O14 4786   4.339   3.672  11.726 -0.1317  0.4561 -0.2016
   38DOPE   O11 4787   4.472   3.568  11.911  0.6174 -0.1851  0.3728
   38DOPE   O12 4788   4.358   3.427  11.752  0.0201  0.1970  0.1978
   38DOPE    C1 4789   4.505   3.680  11.997 -0.0929  0.6362 -0.0937
   38DOPE    HA 4790   4.413   3.731  12.033 -0.1639 -0.7572  1.8015
   38DOPE    HB 4791   4.559   3.762  11.945  0.8668  1.2333  1.7621
   38DOPE    C2 4792   4.581   3.634  12.126 -0.0214  0.7155  0.7508
   38DOPE    HS 4793   4.578   3.718  12.199 -1.1046  0.2164  1.3063
   38DOPE   O21 4794   4.715   3.580  12.105 -0.1667 -0.4516 -0.1515
   38DOPE   C21 4795   4.810   3.665  12.085 -0.2623 -0.3789 -0.2841
   38DOPE   O22 4796   4.797   3.787  12.093  0.0929  0.4776  0.0796
   38DOPE   C22 4797   4.940   3.587  12.063 -0.2956 -0.3068 -0.2135
   38DOPE   H2R 4798   4.985   3.632  11.971  1.0373  0.6570  0.8673
   38DOPE   H2S 4799   4.923   3.480  12.037 -1.7075 -0.1767  0.1347
   38DOPE    C3 4800   4.506   3.517  12.197  1.1473 -0.1774  0.0753
   38DOPE    HX 4801   4.494   3.439  12.119  0.3951  0.4209 -0.4207
   38DOPE    HY 4802   4.411   3.564  12.230  1.0214  0.3841 -1.0479
   38DOPE   O31 4803   4.578   3.464  12.303 -0.1787  0.0955 -0.0434
   38DOPE   C31 4804   4.502   3.387  12.386 -0.9870 -0.0550  0.0418
   38DOPE   O32 4805   4.392   3.353  12.360  0.2494 -0.6142  0.0649
   38DOPE   C32 4806   4.567   3.344  12.514  0.0645 -0.9552 -0.4770
   38DOPE   H2X 4807   4.550   3.235  12.530  1.1826 -1.2654 -1.2824
   38DOPE   H2Y 4808   4.677   3.364  12.512  0.5273 -3.1762 -0.6998
   38DOPE   C23 4809   5.051   3.589  12.166  0.2813  0.0074  0.5564
   38DOPE   H3R 4810   5.067   3.697  12.187 -0.9025  0.2588  0.2525
   38DOPE   H3S 4811   5.145   3.547  12.124 -0.5807 -1.6222  0.1925
   38DOPE   C24 4812   5.014   3.519  12.296  0.4419  0.1285  0.4324
   38DOPE   H4R 4813   5.008   3.409  12.281  4.5197 -0.1195 -0.5418
   38DOPE   H4S 4814   4.913   3.547  12.334 -0.5644 -0.8393 -1.4087
   38DOPE   C25 4815   5.113   3.543  12.405 -0.8452  0.5761  0.3760
   38DOPE   H5R 4816   5.129   3.651  12.426  0.3730 -0.0224  3.0149
   38DOPE   H5S 4817   5.217   3.509  12.384 -1.1613 -0.5811  0.6627
   38DOPE   C26 4818   5.072   3.487  12.540  0.0256  0.1331 -0.2417
   38DOPE   H6R 4819   5.085   3.377  12.540  2.8278  0.4021  0.8780
   38DOPE   H6S 4820   4.966   3.515  12.561 -0.3005 -1.9657  1.2055
   38DOPE   C27 4821   5.158   3.560  12.653  0.3079 -0.0117 -0.3848
   38DOPE   H7R 4822   5.129   3.667  12.661  1.5533  0.3868 -0.8812
   38DOPE   H7S 4823   5.265   3.554  12.622  1.2668  3.3787  1.6930
   38DOPE   C28 4824   5.156   3.492  12.789  0.0485  0.2428  0.5542
   38DOPE   H8R 4825   5.150   3.382  12.778 -2.7351  0.3267  0.3762
   38DOPE   H8S 4826   5.060   3.516  12.841 -0.2414  0.1028  0.0920
   38DOPE   C29 4827   5.268   3.531  12.872 -1.0600  0.0775 -0.2231
   38DOPE   H9R 4828   5.354   3.585  12.829  1.0093 -2.0372  1.0657
   38DOPE  C210 4829   5.279   3.493  13.004 -0.4808  0.1660  0.1577
   38DOPE  H10R 4830   5.346   3.538  13.078 -1.5387  0.0553  1.2246
   38DOPE  C211 4831   5.169   3.419  13.069  0.4177 -0.3049 -0.2337
   38DOPE  H11R 4832   5.159   3.314  13.034  0.8067  0.0022 -1.2974
   38DOPE  H11S 4833   5.067   3.458  13.046  0.0666 -2.0035 -1.8605
   38DOPE  C212 4834   5.187   3.416  13.223  0.3330  0.2812 -0.3962
   38DOPE  H12R 4835   5.291   3.380  13.242 -0.8932 -3.7922 -0.4724
   38DOPE  H12S 4836   5.114   3.349  13.274  1.9287 -1.3623 -0.1680
   38DOPE  C213 4837   5.156   3.545  13.300 -0.2778 -0.8330  0.5816
   38DOPE  H13R 4838   5.045   3.555  13.295 -0.4098 -0.6237  2.7329
   38DOPE  H13S 4839   5.202   3.629  13.246  0.7239  0.4171  3.1991
   38DOPE  C214 4840   5.196   3.557  13.449 -0.6495  0.0176  0.2085
   38DOPE  H14R 4841   5.173   3.662  13.479  0.0976  1.2375 -2.9891
   38DOPE  H14S 4842   5.301   3.522  13.453 -0.4272  0.4721 -0.9777
   38DOPE  C215 4843   5.123   3.476  13.564 -0.3882 -0.3882  0.0116
   38DOPE  H15R 4844   5.150   3.368  13.558  2.3745  0.2505 -0.9234
   38DOPE  H15S 4845   5.014   3.489  13.551 -0.2838 -0.3368 -0.8468
   38DOPE  C216 4846   5.165   3.522  13.706 -0.1979 -0.3983 -0.0385
   38DOPE  H16R 4847   5.109   3.464  13.782 -0.2013  1.0394  1.0960
   38DOPE  H16S 4848   5.143   3.631  13.712  2.0014  0.0919  0.0997
   38DOPE  C217 4849   5.317   3.496  13.735  0.4916 -0.1882 -0.5755
   38DOPE  H17R 4850   5.347   3.550  13.828  0.0514 -1.4548  0.3348
   38DOPE  H17S 4851   5.376   3.537  13.651 -0.0010  0.9495 -0.3824
   38DOPE  C218 4852   5.355   3.350  13.751 -0.1988  0.8289  0.1708
   38DOPE  H18R 4853   5.287   3.298  13.822 -0.7169 -0.8654 -1.4898
   38DOPE  H18S 4854   5.462   3.354  13.782 -0.4499  1.3729  0.9945
   38DOPE  H18T 4855   5.346   3.296  13.655 -1.5582  1.9083 -0.3485
   38DOPE   C33 4856   4.512   3.425  12.638  0.5952  0.2493  0.5377
   38DOPE   H3X 4857   4.401   3.423  12.625  0.7165  1.4945 -0.8985
   38DOPE   H3Y 4858   4.532   3.534  12.635 -1.8727  0.7956  1.2886
   38DOPE   C34 4859   4.579   3.377  12.767  0.4539  0.3223  0.2052
   38DOPE   H4X 4860   4.564   3.269  12.787  0.9894  0.3548  0.8171
   38DOPE   H4Y 4861   4.688   3.397  12.756  0.1090  2.9050  0.9014
   38DOPE   C35 4862   4.535   3.458  12.889 -0.5875 -0.5489  0.1928
   38DOPE   H5X 4863   4.424   3.458  12.885 -0.6212  1.4747  0.4699
   38DOPE   H5Y 4864   4.569   3.564  12.887  0.1705 -0.7580  1.1062
   38DOPE   C36 4865   4.578   3.384  13.012  0.0542  0.0652 -0.0773
   38DOPE   H6X 4866   4.688   3.395  13.017  0.0270  2.8090 -2.4573
   38DOPE   H6Y 4867   4.550   3.279  12.993 -0.2165  0.6411 -3.3830
   38DOPE   C37 4868   4.501   3.426  13.139  0.2899  0.5194 -0.8665
   38DOPE   H7X 4869   4.512   3.537  13.137 -3.2065  0.9668 -0.8238
   38DOPE   H7Y 4870   4.391   3.412  13.142  0.1050  1.1235 -3.2162
   38DOPE   C38 4871   4.555   3.348  13.262 -0.2089 -0.6049  0.0446
   38DOPE   H8X 4872   4.666   3.349  13.257 -0.2366 -1.6243 -2.3419
   38DOPE   H8Y 4873   4.530   3.241  13.246 -0.1601 -0.6422  0.2199
   38DOPE   C39 4874   4.508   3.411  13.394  0.0378 -0.2555 -0.7393
   38DOPE   H9X 4875   4.425   3.482  13.381 -1.9434 -2.2954  0.0495
   38DOPE  C310 4876   4.559   3.383  13.519 -0.2331 -0.1306 -0.0203
   38DOPE  H10X 4877   4.522   3.442  13.605  1.9829 -1.7874  2.2234
   38DOPE  C311 4878   4.667   3.283  13.565  0.2350  0.4429 -0.7838
   38DOPE  H11X 4879   4.611   3.205  13.620  0.9022  0.8377  0.4860
   38DOPE  H11Y 4880   4.707   3.229  13.477 -0.2104 -0.7932 -0.2523
   38DOPE  C312 4881   4.781   3.337  13.654 -0.2540 -0.5263 -0.6088
   38DOPE  H12X 4882   4.827   3.423  13.601  1.0534 -0.7973  0.0510
   38DOPE  H12Y 4883   4.858   3.258  13.670  0.8107  0.6507  0.2027
   38DOPE  C313 4884   4.749   3.394  13.796 -0.5577  0.8866 -0.0833
   38DOPE  H13X 4885   4.811   3.483  13.819  0.6461  0.1458 -0.3479
   38DOPE  H13Y 4886   4.640   3.410  13.799 -0.3875  2.2887 -0.6663
   38DOPE  C314 4887   4.792   3.301  13.909 -0.5461  0.3759 -0.0169
   38DOPE  H14X 4888   4.897   3.277  13.881 -0.1260  2.3056 -0.2702
   38DOPE  H14Y 4889   4.739   3.204  13.902 -3.4436  1.8849 -0.5715
   38DOPE  C315 4890   4.824   3.354  14.049 -0.1297 -0.0523 -0.2455
   38DOPE  H15X 4891   4.768   3.445  14.081 -1.4525 -0.1056 -2.1963
   38DOPE  H15Y 4892   4.931   3.385  14.055  0.1499 -0.5469 -2.0390
   38DOPE  C316 4893   4.812   3.234  14.147  0.0874  0.1902  0.1005
   38DOPE  H16X 4894   4.862   3.145  14.103  1.8013 -0.2368  2.6734
   38DOPE  H16Y 4895   4.705   3.221  14.171  0.6200 -0.9748  2.1194
   38DOPE  C317 4896   4.856   3.262  14.292  0.1223  0.0886  0.7539
   38DOPE  H17X 4897   4.832   3.164  14.338 -0.7474 -0.4960 -0.8659
   38DOPE  H17Y 4898   4.965   3.283  14.299 -0.1637  1.4283  1.3736
   38DOPE  C318 4899   4.768   3.370  14.359 -0.6318 -1.0480 -1.4937
   38DOPE  H18X 4900   4.764   3.467  14.304 -0.8442  0.2095  0.6282
   38DOPE  H18Y 4901   4.666   3.330  14.379 -1.6851  1.3506 -1.7452
   38DOPE  H18Z 4902   4.809   3.404  14.456 -0.4470  0.0276 -1.9295
   39DOPE     N 4903   1.875   4.048  11.901 -0.1912 -0.3827 -0.1532
   39DOPE   HN1 4904   1.774   4.056  11.879 -0.1050  1.0444 -0.0908
   39DOPE   HN2 4905   1.889   3.986  11.984  0.4641 -0.5403 -0.3705
   39DOPE   HN3 4906   1.915   4.144  11.910 -0.8338 -0.0695 -0.5790
   39DOPE   C12 4907   1.945   3.974  11.791 -0.0127 -0.2225 -0.4805
   39DOPE  H12A 4908   2.051   3.968  11.822  0.0967  1.1975 -0.5094
   39DOPE  H12B 4909   1.929   4.030  11.696 -1.2158  1.3727  0.6048
   39DOPE   C11 4910   1.879   3.835  11.785  0.7869  0.1519 -0.7678
   39DOPE  H11A 4911   1.878   3.797  11.889  0.0789 -0.5880 -1.0315
   39DOPE  H11B 4912   1.930   3.761  11.719  1.4639  0.8920 -1.0861
   39DOPE     P 4913   1.637   3.742  11.703  0.1585  0.2760 -0.0530
   39DOPE   O13 4914   1.640   3.710  11.557 -0.9104 -0.4424 -0.0727
   39DOPE   O14 4915   1.504   3.789  11.747  1.0564  0.3088 -0.3263
   39DOPE   O11 4916   1.682   3.615  11.778 -0.2928  0.8289  0.7448
   39DOPE   O12 4917   1.749   3.855  11.731  0.0127 -0.0350 -0.5419
   39DOPE    C1 4918   1.654   3.604  11.915  0.2044  0.2916  0.1822
   39DOPE    HA 4919   1.659   3.704  11.964 -3.0515 -0.0519  1.4623
   39DOPE    HB 4920   1.724   3.540  11.974  1.0093  2.9145  2.3074
   39DOPE    C2 4921   1.515   3.537  11.936  0.5780 -0.1123 -0.5142
   39DOPE    HS 4922   1.443   3.570  11.858  0.6578 -0.0837 -0.5763
   39DOPE   O21 4923   1.469   3.577  12.068 -0.1713  0.2342 -0.1738
   39DOPE   C21 4924   1.338   3.569  12.094 -0.1090 -0.1555 -0.4648
   39DOPE   O22 4925   1.253   3.523  12.022  0.3750 -0.3127  0.9855
   39DOPE   C22 4926   1.306   3.624  12.235 -0.2806  0.2864  0.0719
   39DOPE   H2R 4927   1.203   3.665  12.225 -0.6953 -0.9985 -1.2521
   39DOPE   H2S 4928   1.378   3.704  12.261 -0.1548 -0.0144  0.6720
   39DOPE    C3 4929   1.515   3.381  11.921 -0.2556  0.4591 -0.0742
   39DOPE    HX 4930   1.528   3.354  11.814 -0.6139 -0.6730  0.1496
   39DOPE    HY 4931   1.418   3.344  11.960  0.5053  0.8892  2.4087
   39DOPE   O31 4932   1.630   3.321  11.988 -0.5375 -0.2226 -0.1057
   39DOPE   C31 4933   1.608   3.280  12.111  0.0627 -0.2110 -0.6465
   39DOPE   O32 4934   1.502   3.280  12.177 -0.5398 -0.4083 -0.4348
   39DOPE   C32 4935   1.743   3.237  12.168 -0.6414 -0.4129  0.4884
   39DOPE   H2X 4936   1.730   3.149  12.235  2.8132  0.5945  2.7245
   39DOPE   H2Y 4937   1.819   3.216  12.090 -1.7001  1.1141 -1.0322
   39DOPE   C23 4938   1.308   3.518  12.352 -0.6386 -0.6569  0.4429
   39DOPE   H3R 4939   1.407   3.468  12.344 -0.3418 -0.0324  0.2059
   39DOPE   H3S 4940   1.235   3.437  12.331 -1.5197 -0.1882  1.5618
   39DOPE   C24 4941   1.276   3.554  12.500  0.0949 -0.1717  0.1713
   39DOPE   H4R 4942   1.352   3.622  12.543 -0.3211  0.6230 -0.3142
   39DOPE   H4S 4943   1.278   3.459  12.558  0.0095 -1.1576 -1.3780
   39DOPE   C25 4944   1.137   3.613  12.525 -0.2299  0.2887 -0.5168
   39DOPE   H5R 4945   1.069   3.546  12.468 -0.8929  0.7308 -0.2603
   39DOPE   H5S 4946   1.127   3.713  12.479  0.9582  1.0807  0.8795
   39DOPE   C26 4947   1.099   3.625  12.668 -0.0804 -0.3358 -0.3811
   39DOPE   H6R 4948   1.079   3.520  12.698  0.0482 -0.3632 -0.3898
   39DOPE   H6S 4949   1.000   3.676  12.675 -0.3309 -0.6790 -1.3006
   39DOPE   C27 4950   1.217   3.686  12.753 -0.1061  0.1359  0.0757
   39DOPE   H7R 4951   1.216   3.794  12.729 -0.6997  0.4086  1.2845
   39DOPE   H7S 4952   1.315   3.637  12.739  0.0685  0.6109 -0.4063
   39DOPE   C28 4953   1.199   3.678  12.911  0.0555 -0.7725  0.7868
   39DOPE   H8R 4954   1.103   3.728  12.936  0.2367  0.3250 -0.5977
   39DOPE   H8S 4955   1.281   3.737  12.958  0.8068  0.8181 -2.2375
   39DOPE   C29 4956   1.197   3.540  12.946  0.2766  0.8961 -0.1967
   39DOPE   H9R 4957   1.165   3.470  12.868  0.3879  0.1651  0.3903
   39DOPE  C210 4958   1.232   3.492  13.066  0.5320 -0.0735 -0.5340
   39DOPE  H10R 4959   1.223   3.385  13.088 -0.9366  0.0240 -0.6075
   39DOPE  C211 4960   1.291   3.573  13.181  0.2030 -0.3071 -0.2659
   39DOPE  H11R 4961   1.248   3.675  13.191  0.9160 -0.2254  3.1008
   39DOPE  H11S 4962   1.399   3.578  13.155  0.7425  2.0281  2.0730
   39DOPE  C212 4963   1.285   3.501  13.311 -0.3744 -0.3587 -0.3009
   39DOPE  H12R 4964   1.348   3.410  13.301  2.7167  1.5873  0.1209
   39DOPE  H12S 4965   1.182   3.479  13.344 -0.2009  0.9972  1.2903
   39DOPE  C213 4966   1.358   3.594  13.413  0.2528  0.1469 -0.1785
   39DOPE  H13R 4967   1.295   3.684  13.427 -1.4521 -1.0141 -0.1006
   39DOPE  H13S 4968   1.454   3.630  13.369  0.9774  0.9152  1.9474
   39DOPE  C214 4969   1.370   3.528  13.548 -0.1261  0.0588 -0.3071
   39DOPE  H14R 4970   1.377   3.418  13.538  1.7346 -0.1577  2.2810
   39DOPE  H14S 4971   1.281   3.549  13.612 -1.9058 -0.0408 -2.6312
   39DOPE  C215 4972   1.502   3.563  13.623  0.3691  0.4965  0.4314
   39DOPE  H15R 4973   1.502   3.669  13.657 -0.9104  0.1278  1.6400
   39DOPE  H15S 4974   1.585   3.529  13.557  1.2801  1.4538  1.0441
   39DOPE  C216 4975   1.511   3.477  13.754 -0.3727  0.2866  0.0248
   39DOPE  H16R 4976   1.609   3.474  13.806 -1.1954  0.5955  1.6618
   39DOPE  H16S 4977   1.485   3.373  13.726 -2.4347  0.8907 -0.4717
   39DOPE  C217 4978   1.413   3.528  13.859  0.8728  0.1132 -0.0027
   39DOPE  H17R 4979   1.308   3.524  13.821 -0.1866 -0.4477  2.7706
   39DOPE  H17S 4980   1.415   3.639  13.866  0.4563  0.1811 -0.7457
   39DOPE  C218 4981   1.415   3.460  13.996  0.5587 -0.5615  0.0057
   39DOPE  H18R 4982   1.329   3.486  14.062  0.1673 -0.4886 -0.5237
   39DOPE  H18S 4983   1.506   3.494  14.049 -0.9746  2.6637  0.7789
   39DOPE  H18T 4984   1.419   3.350  13.980  0.5774 -0.8753  1.9332
   39DOPE   C33 4985   1.807   3.345  12.260 -0.0619 -0.5503 -0.2082
   39DOPE   H3X 4986   1.737   3.355  12.345 -2.2157 -1.2882 -1.7851
   39DOPE   H3Y 4987   1.813   3.445  12.211 -1.9272  0.5788  1.7080
   39DOPE   C34 4988   1.950   3.302  12.298 -0.2816 -0.3075  0.1126
   39DOPE   H4X 4989   2.011   3.308  12.206 -0.9694 -2.9521 -0.6229
   39DOPE   H4Y 4990   1.992   3.377  12.368 -0.4862  0.4548 -0.5641
   39DOPE   C35 4991   1.949   3.166  12.366 -0.0955 -0.0632  0.2590
   39DOPE   H5X 4992   2.057   3.157  12.391  0.2774  2.3467 -0.1924
   39DOPE   H5Y 4993   1.926   3.085  12.293  2.8927 -1.2992  0.5278
   39DOPE   C36 4994   1.863   3.161  12.486  0.3217  0.6072  0.0146
   39DOPE   H6X 4995   1.872   3.057  12.522  0.1453  1.3427  2.3830
   39DOPE   H6Y 4996   1.759   3.186  12.455 -0.1280 -0.9913  0.1781
   39DOPE   C37 4997   1.897   3.267  12.588  0.1544  0.2736 -0.2150
   39DOPE   H7X 4998   2.006   3.289  12.590 -0.4992  4.4201  0.2481
   39DOPE   H7Y 4999   1.848   3.364  12.564 -0.0401  0.2498  0.0690
   39DOPE   C38 5000   1.863   3.230  12.739 -0.9599 -0.6189  0.3245
   39DOPE   H8X 5001   1.762   3.184  12.741 -1.1729 -0.4276 -2.0910
   39DOPE   H8Y 5002   1.844   3.323  12.797 -0.1055 -0.4815  0.4060
   39DOPE   C39 5003   1.967   3.143  12.801 -0.9276  0.6639  0.1701
   39DOPE   H9X 5004   1.953   3.038  12.771  0.4819  1.3446 -3.3588
   39DOPE  C310 5005   2.086   3.174  12.867 -0.1609 -0.4386  0.9148
   39DOPE  H10X 5006   2.149   3.093  12.906  1.3594 -0.0412 -0.5775
   39DOPE  C311 5007   2.147   3.311  12.898  0.2880 -0.1458  0.4775
   39DOPE  H11X 5008   2.258   3.309  12.887  0.4069  2.2161  0.6828
   39DOPE  H11Y 5009   2.095   3.395  12.847 -0.9286 -0.7806  0.6509
   39DOPE  C312 5010   2.135   3.341  13.049 -0.2176  0.0629  0.0212
   39DOPE  H12X 5011   2.182   3.437  13.077 -2.5800  1.0134  1.0560
   39DOPE  H12Y 5012   2.204   3.271  13.101 -0.8308 -0.1900  0.5187
   39DOPE  C313 5013   1.994   3.357  13.104  0.7411 -0.0850  0.7672
   39DOPE  H13X 5014   1.949   3.439  13.044  1.6614 -0.9644 -1.2178
   39DOPE  H13Y 5015   1.929   3.270  13.081  0.1205  0.4059  0.6517
   39DOPE  C314 5016   1.996   3.398  13.258 -0.2484 -0.3900 -0.4267
   39DOPE  H14X 5017   1.896   3.419  13.301 -0.8689 -2.4125 -0.7631
   39DOPE  H14Y 5018   2.046   3.497  13.255  0.0594 -0.5454 -0.4837
   39DOPE  C315 5019   2.070   3.304  13.356 -0.2494 -0.1841  0.2386
   39DOPE  H15X 5020   2.172   3.285  13.318  0.2492  0.5193  1.1910
   39DOPE  H15Y 5021   2.019   3.206  13.366  0.0110 -0.6889 -2.6162
   39DOPE  C316 5022   2.085   3.372  13.499  0.2763 -0.4349  0.7566
   39DOPE  H16X 5023   1.986   3.393  13.545 -0.7291 -1.5417 -0.8133
   39DOPE  H16Y 5024   2.127   3.472  13.479 -1.5299  0.1067 -0.5704
   39DOPE  C317 5025   2.168   3.287  13.601  0.3176 -0.5530 -0.2796
   39DOPE  H17X 5026   2.109   3.197  13.628 -0.4629  0.3054  0.9893
   39DOPE  H17Y 5027   2.265   3.265  13.550  0.7248 -2.4076  1.1716
   39DOPE  C318 5028   2.201   3.372  13.717 -0.4411 -0.1479 -0.4765
   39DOPE  H18X 5029   2.261   3.460  13.684  0.6003  0.1043  1.8894
   39DOPE  H18Y 5030   2.103   3.409  13.753  0.4398  2.6227 -0.6807
   39DOPE  H18Z 5031   2.260   3.326  13.800  0.3006  0.8527 -0.4232
   40DOPE     N 5032   3.173   3.103  11.866 -1.0564 -0.4644  0.5018
   40DOPE   HN1 5033   3.191   3.037  11.945  0.0963 -1.8511 -0.8519
   40DOPE   HN2 5034   3.137   3.052  11.782  0.2097  1.6208 -1.3850
   40DOPE   HN3 5035   3.258   3.150  11.830 -2.7761  0.1265 -3.2748
   40DOPE   C12 5036   3.062   3.205  11.885 -0.4580 -0.0172 -0.3448
   40DOPE  H12A 5037   2.980   3.172  11.953  0.3873  1.5828  1.5627
   40DOPE  H12B 5038   2.999   3.224  11.795 -1.0650  0.9207  0.2570
   40DOPE   C11 5039   3.105   3.344  11.953 -0.3539  0.1992  0.3937
   40DOPE  H11A 5040   3.135   3.332  12.059  1.3292  0.4182 -0.0238
   40DOPE  H11B 5041   3.003   3.386  11.944 -0.6970 -0.6733  0.0624
   40DOPE     P 5042   3.176   3.539  11.779  0.0855 -0.1114 -0.1064
   40DOPE   O13 5043   3.157   3.464  11.652 -0.1551  0.3124 -0.1143
   40DOPE   O14 5044   3.293   3.628  11.792  0.3447 -0.1126 -0.1391
   40DOPE   O11 5045   3.039   3.606  11.825  1.0958  0.3853  0.3651
   40DOPE   O12 5046   3.194   3.425  11.884 -0.0006 -0.3512  0.1142
   40DOPE    C1 5047   3.030   3.731  11.896 -0.1390  0.0701  0.2889
   40DOPE    HA 5048   2.924   3.764  11.892 -0.2497  0.3945  3.2659
   40DOPE    HB 5049   3.081   3.819  11.852 -1.3571  2.2300  2.8831
   40DOPE    C2 5050   3.058   3.719  12.047  0.1574 -0.4923  1.0560
   40DOPE    HS 5051   3.158   3.671  12.057  1.0611  1.4052  1.6940
   40DOPE   O21 5052   2.962   3.631  12.112 -0.1415  0.6448  0.6072
   40DOPE   C21 5053   2.997   3.551  12.207 -0.5939  0.6733  0.6020
   40DOPE   O22 5054   3.110   3.524  12.248 -0.5541 -0.0393 -0.7547
   40DOPE   C22 5055   2.874   3.492  12.271 -0.2665  0.1010  0.1573
   40DOPE   H2R 5056   2.814   3.427  12.205  1.2655 -2.9104  1.5236
   40DOPE   H2S 5057   2.813   3.579  12.304 -0.5005  0.0032 -0.0180
   40DOPE    C3 5058   3.074   3.855  12.121  0.2019 -0.6090  0.1237
   40DOPE    HX 5059   2.976   3.907  12.122  0.6513  0.2539  0.2667
   40DOPE    HY 5060   3.144   3.912  12.057 -0.5379  0.8500  0.5788
   40DOPE   O31 5061   3.128   3.838  12.258 -0.3261  0.5096  0.4717
   40DOPE   C31 5062   3.029   3.842  12.349  0.4661 -0.4233  0.4527
   40DOPE   O32 5063   2.914   3.869  12.326  0.3139 -0.1818 -0.2510
   40DOPE   C32 5064   3.076   3.788  12.481 -0.5764 -0.4583 -0.1723
   40DOPE   H2X 5065   3.094   3.680  12.462  0.4830 -0.0513 -1.6621
   40DOPE   H2Y 5066   3.176   3.835  12.495 -0.8852  0.7568 -1.7955
   40DOPE   C23 5067   2.912   3.405  12.405  1.0802 -0.1840 -0.0423
   40DOPE   H3R 5068   2.990   3.457  12.465  0.1868  2.6694 -1.1600
   40DOPE   H3S 5069   2.951   3.311  12.361 -0.0655 -0.4122 -0.6341
   40DOPE   C24 5070   2.784   3.383  12.488  0.0262  0.4376  0.8530
   40DOPE   H4R 5071   2.717   3.308  12.440 -0.5937  1.0311  0.7777
   40DOPE   H4S 5072   2.727   3.478  12.487  1.9007  1.6058 -1.0189
   40DOPE   C25 5073   2.820   3.345  12.635 -0.6936 -0.6086 -0.7090
   40DOPE   H5R 5074   2.887   3.423  12.677 -0.6738 -1.2892  0.5741
   40DOPE   H5S 5075   2.888   3.257  12.628 -0.7123 -0.6454 -0.4504
   40DOPE   C26 5076   2.696   3.334  12.722  0.3023 -0.7381  0.4079
   40DOPE   H6R 5077   2.637   3.244  12.694 -0.4781  0.2612 -1.3193
   40DOPE   H6S 5078   2.635   3.419  12.683  2.0439  0.7496  0.7790
   40DOPE   C27 5079   2.709   3.376  12.867 -0.5591  0.2751 -0.3483
   40DOPE   H7R 5080   2.604   3.403  12.890 -0.7693 -0.9575  0.2705
   40DOPE   H7S 5081   2.776   3.464  12.870  0.3955 -0.4456  2.5081
   40DOPE   C28 5082   2.742   3.260  12.966 -0.2405  0.3759  0.0548
   40DOPE   H8R 5083   2.750   3.310  13.065  0.9215  2.0760 -0.8421
   40DOPE   H8S 5084   2.844   3.218  12.953 -0.3916 -0.6211  1.7004
   40DOPE   C29 5085   2.641   3.143  12.955  0.0158  0.0703 -0.2364
   40DOPE   H9R 5086   2.665   3.082  12.867 -1.9053 -1.1380  0.0134
   40DOPE  C210 5087   2.551   3.110  13.048 -0.2651  0.1257 -0.4150
   40DOPE  H10R 5088   2.490   3.025  13.014  0.9482 -0.3408 -1.5017
   40DOPE  C211 5089   2.514   3.166  13.190  0.0948  1.1375 -0.3092
   40DOPE  H11R 5090   2.411   3.207  13.197  0.8059  2.6478  2.7150
   40DOPE  H11S 5091   2.590   3.245  13.212  2.5600 -1.0131 -0.6091
   40DOPE  C212 5092   2.512   3.053  13.299  0.4747  0.1581 -0.2992
   40DOPE  H12R 5093   2.602   2.993  13.277 -0.2647 -0.8817 -0.5762
   40DOPE  H12S 5094   2.436   2.973  13.287  0.0988  0.4826 -0.1169
   40DOPE  C213 5095   2.516   3.117  13.439 -0.0278  0.4043 -0.1843
   40DOPE  H13R 5096   2.427   3.182  13.454  0.4354  1.6623 -2.3920
   40DOPE  H13S 5097   2.606   3.180  13.458  0.9601 -1.2218  0.8111
   40DOPE  C214 5098   2.519   3.009  13.549 -0.6592 -0.0250  0.3585
   40DOPE  H14R 5099   2.608   2.942  13.542 -2.9622 -3.1760 -0.7776
   40DOPE  H14S 5100   2.432   2.944  13.528 -0.4010 -0.2776  0.0744
   40DOPE  C215 5101   2.523   3.054  13.698  0.6319  0.6298  0.4165
   40DOPE  H15R 5102   2.439   3.124  13.716  0.2354  0.6789 -1.3688
   40DOPE  H15S 5103   2.607   3.123  13.717 -0.8725  2.1875  1.7218
   40DOPE  C216 5104   2.535   2.929  13.796 -0.3809 -0.1335 -0.1872
   40DOPE  H16R 5105   2.614   2.863  13.754 -1.5177 -1.4655 -0.3016
   40DOPE  H16S 5106   2.438   2.874  13.800 -0.6879  0.4553  0.7097
   40DOPE  C217 5107   2.564   2.964  13.945  0.6001  0.1304 -0.1301
   40DOPE  H17R 5108   2.666   3.009  13.948  0.1914  1.0117  1.0726
   40DOPE  H17S 5109   2.572   2.868  14.001 -0.6621 -0.1706 -0.4249
   40DOPE  C218 5110   2.454   3.055  14.003  0.2160 -1.4682  0.6396
   40DOPE  H18R 5111   2.482   3.082  14.107  1.2605 -1.2571  0.3107
   40DOPE  H18S 5112   2.358   2.999  14.002 -0.8983  0.3371  0.1944
   40DOPE  H18T 5113   2.445   3.150  13.945  0.2574 -1.0589  1.3000
   40DOPE   C33 5114   2.985   3.793  12.605  0.0819 -0.7570  0.7159
   40DOPE   H3X 5115   2.903   3.718  12.606  1.3956 -2.2305  0.5055
   40DOPE   H3Y 5116   2.940   3.894  12.619  0.9446 -0.1133 -0.8609
   40DOPE   C34 5117   3.079   3.777  12.727 -0.0985 -0.4398 -0.6613
   40DOPE   H4X 5118   3.115   3.672  12.733 -0.6013 -0.6604 -1.3716
   40DOPE   H4Y 5119   3.167   3.844  12.720  0.3046 -0.8533  0.3381
   40DOPE   C35 5120   3.008   3.819  12.863  0.3307 -0.2844  0.0136
   40DOPE   H5X 5121   2.941   3.902  12.833  0.2035 -1.1951 -2.5108
   40DOPE   H5Y 5122   3.084   3.850  12.938  1.8076 -1.0857 -1.0867
   40DOPE   C36 5123   2.930   3.696  12.910 -0.3314  0.8696  0.7483
   40DOPE   H6X 5124   2.997   3.607  12.917  0.5488  1.4989  0.5025
   40DOPE   H6Y 5125   2.858   3.670  12.830  1.6392  0.4316 -0.9799
   40DOPE   C37 5126   2.875   3.711  13.049 -0.1114 -0.1367  0.1258
   40DOPE   H7X 5127   2.833   3.814  13.055  0.9751  0.3323 -0.1424
   40DOPE   H7Y 5128   2.795   3.635  13.059 -1.4511  0.8442 -2.3620
   40DOPE   C38 5129   2.982   3.689  13.156 -0.3542 -0.2324  0.1021
   40DOPE   H8X 5130   3.078   3.732  13.119  0.6929 -1.6922  1.0044
   40DOPE   H8Y 5131   3.003   3.581  13.166  1.5555  0.1718  0.9786
   40DOPE   C39 5132   2.944   3.750  13.289  0.5486 -0.0143 -0.2280
   40DOPE   H9X 5133   2.957   3.860  13.292  2.7252 -0.2370  1.0175
   40DOPE  C310 5134   2.907   3.674  13.399  0.1112  0.2422  0.0682
   40DOPE  H10X 5135   2.868   3.725  13.489  2.2435  1.1095  0.5684
   40DOPE  C311 5136   2.890   3.526  13.417  0.2384 -0.1103  0.3897
   40DOPE  H11X 5137   2.956   3.479  13.342  0.6597  0.2941  0.5011
   40DOPE  H11Y 5138   2.923   3.488  13.516 -1.2629 -0.6809  0.7027
   40DOPE  C312 5139   2.744   3.486  13.407 -0.2586 -0.5827  0.1350
   40DOPE  H12X 5140   2.753   3.377  13.391 -0.3035 -0.4382 -0.9488
   40DOPE  H12Y 5141   2.701   3.520  13.310  1.4610 -1.1046 -0.8443
   40DOPE  C313 5142   2.660   3.516  13.526  0.4171  0.1592 -0.1962
   40DOPE  H13X 5143   2.680   3.620  13.559  0.5091  0.3918 -0.9688
   40DOPE  H13Y 5144   2.553   3.522  13.498  0.8486  2.8823 -1.5830
   40DOPE  C314 5145   2.688   3.415  13.647  0.2952  0.3842  0.9051
   40DOPE  H14X 5146   2.797   3.419  13.667  0.9157 -0.8074 -1.7760
   40DOPE  H14Y 5147   2.649   3.315  13.619 -2.1456  0.9176  2.0763
   40DOPE  C315 5148   2.597   3.446  13.768  0.1912  0.1335 -0.1391
   40DOPE  H15X 5149   2.494   3.407  13.756  0.7886 -1.5911 -0.0574
   40DOPE  H15Y 5150   2.586   3.556  13.774 -0.3249  0.0264  1.1326
   40DOPE  C316 5151   2.651   3.392  13.903  0.3503  0.2923  0.0293
   40DOPE  H16X 5152   2.758   3.417  13.919  0.1346 -0.3588  2.9649
   40DOPE  H16Y 5153   2.639   3.281  13.904 -1.8778  0.3263 -3.7643
   40DOPE  C317 5154   2.572   3.458  14.013 -0.3562  0.4824 -0.5630
   40DOPE  H17X 5155   2.578   3.568  13.998  0.8205  0.5146  0.0323
   40DOPE  H17Y 5156   2.471   3.426  13.980  1.0697 -2.9799 -2.0677
   40DOPE  C318 5157   2.597   3.411  14.155 -0.4608  0.5898 -0.3324
   40DOPE  H18X 5158   2.703   3.435  14.176 -0.7116  3.3287 -1.6769
   40DOPE  H18Y 5159   2.539   3.474  14.226 -0.2385  1.5806 -1.0008
   40DOPE  H18Z 5160   2.582   3.302  14.167 -0.2895  0.7193  1.2557
   41DOPE     N 5161   2.465   3.898  12.078 -0.1942 -0.1583  0.0428
   41DOPE   HN1 5162   2.534   3.945  12.016  1.2822 -0.9666  1.0077
   41DOPE   HN2 5163   2.515   3.829  12.139  0.4302 -0.1080 -0.3988
   41DOPE   HN3 5164   2.398   3.835  12.030 -0.5161  0.3891 -0.2354
   41DOPE   C12 5165   2.396   4.004  12.164 -0.5530  0.5676  0.5458
   41DOPE  H12A 5166   2.453   4.099  12.154 -0.7194  0.5138 -1.3007
   41DOPE  H12B 5167   2.398   3.965  12.268 -0.5351 -1.1346 -0.0680
   41DOPE   C11 5168   2.238   4.020  12.132  0.1257  0.2505 -0.4071
   41DOPE  H11A 5169   2.187   4.071  12.217 -0.3008 -0.5562 -0.1656
   41DOPE  H11B 5170   2.200   3.916  12.130  2.0374 -0.4707 -1.2492
   41DOPE     P 5171   2.207   4.233  11.984 -0.2485 -0.4024 -0.2253
   41DOPE   O13 5172   2.063   4.261  11.959  0.2021 -0.1546  0.1086
   41DOPE   O14 5173   2.303   4.269  11.881  0.1740 -0.4878  0.2018
   41DOPE   O11 5174   2.257   4.290  12.121 -0.5046 -0.1568 -0.6857
   41DOPE   O12 5175   2.204   4.073  12.004  0.2629 -0.1933 -0.6178
   41DOPE    C1 5176   2.162   4.348  12.216  0.1437  0.1324 -0.1138
   41DOPE    HA 5177   2.067   4.296  12.240 -0.3620  0.7356 -0.7553
   41DOPE    HB 5178   2.134   4.452  12.188 -0.9217 -0.3201 -0.8127
   41DOPE    C2 5179   2.226   4.363  12.361  0.4134  0.0366 -0.2634
   41DOPE    HS 5180   2.336   4.379  12.360  0.9846 -3.2853 -1.6071
   41DOPE   O21 5181   2.197   4.238  12.423 -0.4152  0.0816 -0.0125
   41DOPE   C21 5182   2.252   4.221  12.540 -0.3612  0.6017 -0.3271
   41DOPE   O22 5183   2.341   4.289  12.584  0.4302  0.2192 -0.1903
   41DOPE   C22 5184   2.183   4.093  12.603 -0.1009 -0.1890  0.4720
   41DOPE   H2R 5185   2.209   4.006  12.540 -0.6918 -2.0121  2.6421
   41DOPE   H2S 5186   2.073   4.104  12.603 -0.1100  0.0852 -1.5050
   41DOPE    C3 5187   2.155   4.487  12.433 -0.0929  0.1617 -0.0996
   41DOPE    HX 5188   2.159   4.580  12.372 -3.8335  1.4875  1.4436
   41DOPE    HY 5189   2.213   4.499  12.526 -0.7359 -0.1575  0.3485
   41DOPE   O31 5190   2.017   4.457  12.457 -0.0008 -0.2374  0.0463
   41DOPE   C31 5191   1.989   4.449  12.588  0.2376  0.5105  0.1258
   41DOPE   O32 5192   2.070   4.466  12.683 -0.3697  0.0151  0.0442
   41DOPE   C32 5193   1.836   4.440  12.597 -0.1030 -0.1679  0.0364
   41DOPE   H2X 5194   1.810   4.540  12.638  2.1208 -0.8895  3.7430
   41DOPE   H2Y 5195   1.796   4.414  12.497 -1.2211 -1.1064  0.6943
   41DOPE   C23 5196   2.234   4.052  12.744  0.2520  0.3663 -0.2936
   41DOPE   H3R 5197   2.342   4.077  12.755  0.3677  0.0238 -0.6256
   41DOPE   H3S 5198   2.217   3.944  12.765  0.3022  0.1706 -1.2193
   41DOPE   C24 5199   2.160   4.134  12.847 -0.6505 -0.1945  0.1894
   41DOPE   H4R 5200   2.052   4.131  12.820 -0.3639 -0.5181 -0.9344
   41DOPE   H4S 5201   2.188   4.241  12.837 -2.7676  0.4430  0.5364
   41DOPE   C25 5202   2.175   4.083  12.996 -0.1384 -0.7083 -0.1305
   41DOPE   H5R 5203   2.276   4.038  13.000  0.8361  1.4361  1.1107
   41DOPE   H5S 5204   2.101   4.004  13.021  1.6123 -2.9311 -1.5357
   41DOPE   C26 5205   2.185   4.204  13.097  0.4032  0.2768  0.6067
   41DOPE   H6R 5206   2.093   4.265  13.087  0.3294  0.5094  2.3892
   41DOPE   H6S 5207   2.276   4.266  13.086  0.3466  0.4593  1.1691
   41DOPE   C27 5208   2.192   4.142  13.236  0.6791 -0.3686  0.4084
   41DOPE   H7R 5209   2.283   4.078  13.236  1.0420  0.1437 -0.2950
   41DOPE   H7S 5210   2.097   4.084  13.239  0.2845  0.2157 -0.3977
   41DOPE   C28 5211   2.180   4.240  13.353  0.3007 -0.1650  0.2868
   41DOPE   H8R 5212   2.090   4.299  13.328  0.3367 -0.4504 -0.5617
   41DOPE   H8S 5213   2.273   4.301  13.360  0.7570 -0.5536 -1.6394
   41DOPE   C29 5214   2.149   4.180  13.488 -0.0474  0.1021  0.3408
   41DOPE   H9R 5215   2.086   4.091  13.476 -0.3004  0.5078 -1.7551
   41DOPE  C210 5216   2.176   4.233  13.606 -0.2448 -0.4295  0.2911
   41DOPE  H10R 5217   2.153   4.180  13.699  0.5276 -1.2322  0.0389
   41DOPE  C211 5218   2.249   4.366  13.622 -0.1004 -0.2123  0.3025
   41DOPE  H11R 5219   2.205   4.435  13.697 -0.9674 -0.8750  0.4196
   41DOPE  H11S 5220   2.252   4.429  13.531  1.6457  0.2501  0.6457
   41DOPE  C212 5221   2.398   4.346  13.659 -0.0675 -0.1710 -0.1392
   41DOPE  H12R 5222   2.441   4.269  13.593 -0.4784  0.5249 -1.2448
   41DOPE  H12S 5223   2.415   4.294  13.756  1.1889 -0.8381 -0.6955
   41DOPE  C213 5224   2.473   4.478  13.645 -0.1901  0.7004 -0.4658
   41DOPE  H13R 5225   2.461   4.523  13.544  1.4103 -1.0149 -1.4775
   41DOPE  H13S 5226   2.583   4.466  13.656 -0.2094 -1.0490 -1.6722
   41DOPE  C214 5227   2.437   4.584  13.754  0.5040 -0.3507 -0.1302
   41DOPE  H14R 5228   2.458   4.547  13.857  1.1985 -0.0937 -0.1747
   41DOPE  H14S 5229   2.330   4.613  13.746  1.1255  1.9285 -0.8142
   41DOPE  C215 5230   2.533   4.707  13.743 -0.0812  0.3163  0.3309
   41DOPE  H15R 5231   2.513   4.756  13.644 -2.0731  0.4149  0.7411
   41DOPE  H15S 5232   2.641   4.686  13.758  0.2691  2.7307  1.7527
   41DOPE  C216 5233   2.500   4.822  13.850 -0.4220 -0.0695  0.2329
   41DOPE  H16R 5234   2.404   4.812  13.905  0.4875  1.1505  2.1981
   41DOPE  H16S 5235   2.499   4.921  13.800  0.4646  0.4297  1.1605
   41DOPE  C217 5236   2.615   4.830  13.943  0.4646  0.7835 -0.9542
   41DOPE  H17R 5237   2.710   4.867  13.899  0.7970  2.2020  0.8109
   41DOPE  H17S 5238   2.629   4.724  13.970  0.3560  0.9496 -0.2286
   41DOPE  C218 5239   2.572   4.911  14.063 -0.3925 -0.1318  0.3209
   41DOPE  H18R 5240   2.641   4.897  14.149 -1.7092  0.3519  1.5072
   41DOPE  H18S 5241   2.472   4.879  14.100 -0.1500 -2.7579 -1.0342
   41DOPE  H18T 5242   2.565   5.019  14.039 -0.2244  0.2281  1.7964
   41DOPE   C33 5243   1.775   4.340  12.694  0.5077  0.0759 -0.2088
   41DOPE   H3X 5244   1.818   4.239  12.677  0.6026 -0.6079  3.3190
   41DOPE   H3Y 5245   1.664   4.330  12.692  0.3056  1.9653 -0.6844
   41DOPE   C34 5246   1.807   4.378  12.838 -0.4278 -0.1104  0.3693
   41DOPE   H4X 5247   1.917   4.389  12.843 -0.5385  1.4691 -0.2376
   41DOPE   H4Y 5248   1.772   4.478  12.869  3.1833  1.0365  1.2657
   41DOPE   C35 5249   1.764   4.268  12.939  0.8574 -0.6398  1.2592
   41DOPE   H5X 5250   1.843   4.193  12.963  1.6999 -0.1174  0.1918
   41DOPE   H5Y 5251   1.678   4.215  12.891  1.0690  0.6843 -0.7064
   41DOPE   C36 5252   1.707   4.324  13.071  0.2362  0.1659 -1.0028
   41DOPE   H6X 5253   1.641   4.242  13.108 -0.3159  0.2288 -1.8289
   41DOPE   H6Y 5254   1.642   4.411  13.048  1.8666  2.1319  1.3085
   41DOPE   C37 5255   1.815   4.366  13.166 -0.4073 -0.4833  0.5521
   41DOPE   H7X 5256   1.883   4.280  13.185 -1.1833 -0.6953  2.6307
   41DOPE   H7Y 5257   1.879   4.441  13.115 -1.2954  1.3376  2.0097
   41DOPE   C38 5258   1.769   4.422  13.298 -0.1068 -0.1497 -0.0152
   41DOPE   H8X 5259   1.693   4.501  13.280  0.3585  0.6495  1.3398
   41DOPE   H8Y 5260   1.854   4.478  13.344  2.6293 -1.6602 -2.8458
   41DOPE   C39 5261   1.700   4.317  13.384 -0.7539 -0.4282 -0.6148
   41DOPE   H9X 5262   1.655   4.228  13.338 -0.8668 -2.3367  2.8463
   41DOPE  C310 5263   1.720   4.310  13.513  0.2112 -0.2749 -0.5875
   41DOPE  H10X 5264   1.657   4.234  13.561 -1.2769  0.8973 -0.5990
   41DOPE  C311 5265   1.815   4.385  13.602  0.0924 -0.5790  0.6175
   41DOPE  H11X 5266   1.893   4.429  13.536 -1.5730  1.5191 -0.0704
   41DOPE  H11Y 5267   1.752   4.466  13.646  0.3124  0.8141 -1.4593
   41DOPE  C312 5268   1.871   4.302  13.718  0.2633  0.1159  0.1855
   41DOPE  H12X 5269   1.946   4.367  13.767  1.9183 -1.2543 -0.4236
   41DOPE  H12Y 5270   1.916   4.218  13.662 -1.5300  0.6509 -2.2180
   41DOPE  C313 5271   1.768   4.255  13.825  0.2600  0.1977 -0.3570
   41DOPE  H13X 5272   1.707   4.168  13.794  2.1503 -2.3681  2.4833
   41DOPE  H13Y 5273   1.831   4.208  13.904 -0.3836  1.2484  0.8102
   41DOPE  C314 5274   1.689   4.361  13.896 -0.0641 -0.3949 -0.2511
   41DOPE  H14X 5275   1.653   4.307  13.986  2.1409 -1.6698 -0.0435
   41DOPE  H14Y 5276   1.599   4.387  13.836 -2.0217  0.1383  2.7087
   41DOPE  C315 5277   1.767   4.487  13.942  0.8384 -0.3982 -0.4244
   41DOPE  H15X 5278   1.791   4.552  13.855 -0.8325 -1.3973 -1.6714
   41DOPE  H15Y 5279   1.864   4.475  13.997 -0.4691  1.8849  2.6773
   41DOPE  C316 5280   1.668   4.564  14.034  0.7277 -0.1349  0.8279
   41DOPE  H16X 5281   1.581   4.590  13.970  0.4105 -3.9828 -0.5326
   41DOPE  H16Y 5282   1.722   4.657  14.063  0.8939 -0.7511  2.6419
   41DOPE  C317 5283   1.626   4.502  14.171 -0.2961 -0.0125 -0.0401
   41DOPE  H17X 5284   1.583   4.401  14.154 -1.7722  0.5165  0.3298
   41DOPE  H17Y 5285   1.722   4.497  14.226 -0.5982  0.8265  0.5786
   41DOPE  C318 5286   1.524   4.587  14.248 -0.4505  0.3524 -0.1925
   41DOPE  H18X 5287   1.490   4.532  14.338  0.2727 -0.8446 -0.6304
   41DOPE  H18Y 5288   1.567   4.683  14.283 -0.7920 -0.0616  1.4424
   41DOPE  H18Z 5289   1.436   4.610  14.185 -0.1761  1.5807 -0.1598
   42DOPE     N 5290   1.011   3.261  11.615  0.0421  0.0232  0.0813
   42DOPE   HN1 5291   0.973   3.325  11.542  0.2662  0.8633  0.6878
   42DOPE   HN2 5292   1.093   3.306  11.659  0.2117  1.2718 -1.4316
   42DOPE   HN3 5293   1.045   3.173  11.572 -2.7735 -1.7324  1.1612
   42DOPE   C12 5294   0.909   3.218  11.720 -0.2981 -0.6838  0.6818
   42DOPE  H12A 5295   0.817   3.273  11.690  0.6012  0.4874 -0.0493
   42DOPE  H12B 5296   0.941   3.261  11.818  0.5690  3.9681 -1.3633
   42DOPE   C11 5297   0.881   3.069  11.728 -0.3814  0.0567 -0.3057
   42DOPE  H11A 5298   0.827   3.027  11.641  2.2903 -3.7073 -0.3764
   42DOPE  H11B 5299   0.814   3.045  11.814  0.9553 -0.8848  0.5218
   42DOPE     P 5300   1.078   2.917  11.630  0.0489  0.0292 -0.2293
   42DOPE   O13 5301   1.102   3.020  11.529 -0.1142  0.1395 -0.1289
   42DOPE   O14 5302   0.987   2.806  11.594 -0.4069 -0.2774  0.3804
   42DOPE   O11 5303   1.218   2.852  11.676  0.2095  0.1408  0.5119
   42DOPE   O12 5304   0.997   2.991  11.752 -0.4435  0.1471  0.7306
   42DOPE    C1 5305   1.219   2.744  11.768 -0.6221  0.0237  0.0950
   42DOPE    HA 5306   1.265   2.654  11.722  5.1185  2.1843  0.8625
   42DOPE    HB 5307   1.116   2.711  11.793 -0.5212 -0.3287  0.0400
   42DOPE    C2 5308   1.300   2.767  11.901 -0.4718 -0.6040 -0.5430
   42DOPE    HS 5309   1.247   2.707  11.978 -1.4712 -0.0811 -0.8071
   42DOPE   O21 5310   1.292   2.905  11.933 -0.3346  0.0313  0.1162
   42DOPE   C21 5311   1.183   2.950  11.996  0.8609  0.7672  0.6589
   42DOPE   O22 5312   1.096   2.873  12.041  0.4432  0.6260 -0.0021
   42DOPE   C22 5313   1.180   3.104  12.018  0.4860  0.0973  0.2192
   42DOPE   H2R 5314   1.175   3.152  11.918 -0.0628  0.1194  0.2565
   42DOPE   H2S 5315   1.276   3.139  12.060  0.4680  1.3713 -0.7369
   42DOPE    C3 5316   1.451   2.726  11.904  0.0640  0.6135 -0.3947
   42DOPE    HX 5317   1.510   2.785  11.830 -0.9339  0.6444 -1.1813
   42DOPE    HY 5318   1.461   2.619  11.879 -1.3957  0.3862 -0.0969
   42DOPE   O31 5319   1.497   2.737  12.042 -0.3262 -0.2392  0.1959
   42DOPE   C31 5320   1.599   2.810  12.061 -0.2479 -0.1629  0.1193
   42DOPE   O32 5321   1.655   2.879  11.979  0.6444  0.4301  0.3876
   42DOPE   C32 5322   1.617   2.838  12.210  0.2544 -0.1384 -0.4417
   42DOPE   H2X 5323   1.623   2.736  12.254 -0.2489  0.1163  0.2360
   42DOPE   H2Y 5324   1.714   2.893  12.220  0.3998 -0.5092  0.2901
   42DOPE   C23 5325   1.068   3.173  12.103  0.0185 -0.1345  0.5590
   42DOPE   H3R 5326   0.968   3.158  12.055 -1.0226 -0.2074  2.6416
   42DOPE   H3S 5327   1.100   3.279  12.102 -0.7696  0.1259 -1.3166
   42DOPE   C24 5328   1.046   3.116  12.244  0.2753  0.1932  0.3995
   42DOPE   H4R 5329   1.150   3.107  12.282  0.4859 -1.1727 -0.4310
   42DOPE   H4S 5330   1.003   3.016  12.223  0.5395  0.3657 -1.0788
   42DOPE   C25 5331   0.958   3.201  12.333 -0.4601 -0.2566 -0.6483
   42DOPE   H5R 5332   0.853   3.191  12.298 -0.1787 -1.1890 -1.2703
   42DOPE   H5S 5333   0.992   3.306  12.329  1.3944 -0.4200  4.2703
   42DOPE   C26 5334   0.978   3.159  12.482 -0.7844  0.0607  0.3464
   42DOPE   H6R 5335   1.085   3.177  12.506 -1.0292 -1.3536  2.8303
   42DOPE   H6S 5336   0.949   3.052  12.478  3.8988 -1.3535 -2.5831
   42DOPE   C27 5337   0.901   3.244  12.586 -0.4780  0.5645  0.3590
   42DOPE   H7R 5338   0.803   3.264  12.537 -0.8186 -0.3873  0.6275
   42DOPE   H7S 5339   0.955   3.339  12.601  0.8604  0.0365 -0.9253
   42DOPE   C28 5340   0.877   3.157  12.717  0.0233 -0.2253  0.3497
   42DOPE   H8R 5341   0.973   3.111  12.750 -0.6635 -2.7453 -0.9274
   42DOPE   H8S 5342   0.827   3.063  12.684  0.8469 -0.4924 -0.1701
   42DOPE   C29 5343   0.810   3.235  12.826  0.4531  0.6665  0.3308
   42DOPE   H9R 5344   0.707   3.270  12.809  0.5127 -0.0634 -1.8232
   42DOPE  C210 5345   0.861   3.253  12.948  0.1120  0.0173 -0.0127
   42DOPE  H10R 5346   0.802   3.310  13.022  0.8316 -1.5250  1.8333
   42DOPE  C211 5347   0.995   3.214  13.008  0.0543 -0.3317 -0.7044
   42DOPE  H11R 5348   1.042   3.302  13.057 -2.1224 -0.4809  1.8952
   42DOPE  H11S 5349   1.055   3.151  12.939  0.1478 -0.9769 -0.0436
   42DOPE  C212 5350   0.966   3.131  13.136 -0.3800  0.0576 -0.7126
   42DOPE  H12R 5351   1.065   3.087  13.163 -0.3229 -0.0349 -1.0713
   42DOPE  H12S 5352   0.892   3.049  13.121 -0.3188  0.4864 -4.0046
   42DOPE  C213 5353   0.922   3.210  13.262 -0.1531 -0.3157  0.2214
   42DOPE  H13R 5354   0.814   3.231  13.244 -0.5434 -1.4992  1.0426
   42DOPE  H13S 5355   0.966   3.312  13.259 -1.7706  0.3990 -1.8986
   42DOPE  C214 5356   0.951   3.138  13.391  0.0599  0.1473 -0.5583
   42DOPE  H14R 5357   0.960   3.029  13.369  0.9006  0.1443 -0.2541
   42DOPE  H14S 5358   0.869   3.164  13.461  1.4854 -0.3033  1.3650
   42DOPE  C215 5359   1.084   3.185  13.465 -0.0733 -0.0401 -0.3089
   42DOPE  H15R 5360   1.086   3.296  13.468 -0.0065 -0.0343 -0.5941
   42DOPE  H15S 5361   1.170   3.154  13.402  0.7733 -0.4965  1.0295
   42DOPE  C216 5362   1.092   3.131  13.608 -0.0508 -0.2183 -0.3566
   42DOPE  H16R 5363   1.097   3.020  13.605 -2.5523 -0.3814 -0.8359
   42DOPE  H16S 5364   1.001   3.161  13.665  1.4774  3.0343  0.5995
   42DOPE  C217 5365   1.221   3.188  13.671 -0.2697  0.0526  0.0683
   42DOPE  H17R 5366   1.202   3.297  13.682  0.3134  0.0535  1.1425
   42DOPE  H17S 5367   1.312   3.176  13.608 -2.5230 -2.3002 -3.0948
   42DOPE  C218 5368   1.248   3.133  13.805  0.3280  0.0914 -0.3352
   42DOPE  H18R 5369   1.330   3.193  13.850 -0.2379 -0.2545  1.2154
   42DOPE  H18S 5370   1.275   3.026  13.805  0.9424  0.1991 -2.3005
   42DOPE  H18T 5371   1.166   3.148  13.879 -0.4471 -1.1093 -0.9088
   42DOPE   C33 5372   1.500   2.925  12.266  0.1193  0.4882  0.5925
   42DOPE   H3X 5373   1.405   2.868  12.260  0.5696 -0.4093  1.6663
   42DOPE   H3Y 5374   1.489   3.014  12.199 -0.0270 -0.4943 -0.7240
   42DOPE   C34 5375   1.520   2.969  12.414  0.4050 -0.2991 -0.1690
   42DOPE   H4X 5376   1.512   2.885  12.486 -0.2299  0.0170  0.1372
   42DOPE   H4Y 5377   1.623   3.010  12.419  1.5169 -2.9581  4.2001
   42DOPE   C35 5378   1.424   3.072  12.475 -0.0549 -0.0175  0.6391
   42DOPE   H5X 5379   1.321   3.039  12.453  0.7629 -0.8018 -2.4595
   42DOPE   H5Y 5380   1.444   3.169  12.425 -0.5727 -0.3452 -0.2077
   42DOPE   C36 5381   1.457   3.105  12.624  0.0939 -0.4021  0.0164
   42DOPE   H6X 5382   1.564   3.133  12.622 -0.2612  1.1168 -2.1693
   42DOPE   H6Y 5383   1.434   3.009  12.675  1.1437  0.0202  1.3232
   42DOPE   C37 5384   1.373   3.217  12.674  0.4472  0.2480  0.2806
   42DOPE   H7X 5385   1.394   3.304  12.609  0.8055 -0.6766 -0.8787
   42DOPE   H7Y 5386   1.265   3.192  12.677  0.6675 -0.6743  1.1624
   42DOPE   C38 5387   1.411   3.250  12.825  0.1483 -0.2002  0.2762
   42DOPE   H8X 5388   1.362   3.337  12.872  0.4991 -0.2431  0.7348
   42DOPE   H8Y 5389   1.520   3.273  12.820  0.0490  0.0173 -2.1785
   42DOPE   C39 5390   1.397   3.128  12.920  0.1338  0.0214  0.1680
   42DOPE   H9X 5391   1.304   3.073  12.900  0.3434  0.3089 -1.7586
   42DOPE  C310 5392   1.491   3.081  13.008  0.0477 -0.3543  0.3269
   42DOPE  H10X 5393   1.481   2.987  13.064  1.1266  0.0363  1.1981
   42DOPE  C311 5394   1.629   3.136  13.027  0.6431  0.1949  0.4186
   42DOPE  H11X 5395   1.699   3.058  13.064 -0.8266 -0.3806  2.1427
   42DOPE  H11Y 5396   1.666   3.169  12.928 -0.2614 -3.0926 -1.1058
   42DOPE  C312 5397   1.632   3.262  13.121  0.1989  0.0207  0.0944
   42DOPE  H12X 5398   1.559   3.342  13.095  0.8384  0.5085 -0.2202
   42DOPE  H12Y 5399   1.731   3.312  13.124  0.4223 -0.4041 -0.1528
   42DOPE  C313 5400   1.604   3.238  13.274  0.0515 -0.3006  0.0173
   42DOPE  H13X 5401   1.618   3.334  13.328 -1.9738 -0.7202  1.4530
   42DOPE  H13Y 5402   1.499   3.203  13.289 -0.6718  1.7343 -0.0386
   42DOPE  C314 5403   1.692   3.141  13.344 -0.1099  0.1603 -0.6701
   42DOPE  H14X 5404   1.799   3.172  13.334  0.7180 -1.3273  2.3908
   42DOPE  H14Y 5405   1.670   3.035  13.321 -1.4396  0.0370  1.0027
   42DOPE  C315 5406   1.679   3.151  13.500 -0.5133 -0.2544  0.3957
   42DOPE  H15X 5407   1.570   3.140  13.519 -0.8281  1.5238 -0.2373
   42DOPE  H15Y 5408   1.694   3.258  13.527 -2.4986  0.1477  0.0955
   42DOPE  C316 5409   1.760   3.056  13.583 -0.0533  0.2922  0.0803
   42DOPE  H16X 5410   1.868   3.082  13.580  0.0233 -0.0333 -0.0131
   42DOPE  H16Y 5411   1.746   2.952  13.548 -1.3232  0.6819 -0.6525
   42DOPE  C317 5412   1.723   3.076  13.728  0.0808 -0.6640 -0.5558
   42DOPE  H17X 5413   1.743   3.182  13.753  0.6363 -0.8928  0.0207
   42DOPE  H17Y 5414   1.615   3.061  13.748  0.2995  0.8503  2.4342
   42DOPE  C318 5415   1.799   2.989  13.825  0.6008 -0.3744  0.5162
   42DOPE  H18X 5416   1.770   2.996  13.932  0.0276  0.9344  0.2968
   42DOPE  H18Y 5417   1.796   2.884  13.789 -2.5501  0.1615 -1.1356
   42DOPE  H18Z 5418   1.900   3.035  13.823 -0.5296  2.3022 -1.2604
   43DOPE     N 5419   1.134   1.160  12.437  1.0178 -0.1340  0.1207
   43DOPE   HN1 5420   1.082   1.234  12.489 -1.3127 -1.4303 -0.1869
   43DOPE   HN2 5421   1.094   1.136  12.344  1.3635 -1.2423  0.2338
   43DOPE   HN3 5422   1.125   1.074  12.495  1.6670  0.8369  1.7038
   43DOPE   C12 5423   1.276   1.210  12.420 -0.4110 -0.1634 -0.3069
   43DOPE  H12A 5424   1.329   1.140  12.352  0.1092  0.3351 -0.4247
   43DOPE  H12B 5425   1.325   1.201  12.519 -0.8193 -0.0011 -0.0857
   43DOPE   C11 5426   1.296   1.358  12.378  0.2530  0.7797 -0.1091
   43DOPE  H11A 5427   1.244   1.427  12.448 -0.2339  1.1633 -0.8348
   43DOPE  H11B 5428   1.268   1.378  12.272  0.9529  1.7667 -0.1191
   43DOPE     P 5429   1.519   1.481  12.319  0.4043 -0.0124 -0.4750
   43DOPE   O13 5430   1.496   1.481  12.172 -0.3441  0.0805 -0.0770
   43DOPE   O14 5431   1.660   1.474  12.364  0.1716 -0.4530  0.4413
   43DOPE   O11 5432   1.454   1.613  12.375 -0.0967  0.4204  0.2966
   43DOPE   O12 5433   1.438   1.368  12.390  0.7725 -0.3062  0.2271
   43DOPE    C1 5434   1.515   1.688  12.472  0.0409  0.3103 -0.1753
   43DOPE    HA 5435   1.453   1.778  12.493  0.7651  0.9554 -0.7497
   43DOPE    HB 5436   1.607   1.730  12.427 -0.8204  0.2785 -2.1053
   43DOPE    C2 5437   1.543   1.626  12.609 -0.2360 -0.0810  0.2106
   43DOPE    HS 5438   1.620   1.546  12.602  0.0226  0.1607  0.2793
   43DOPE   O21 5439   1.422   1.568  12.668 -0.3299  0.4603 -0.0188
   43DOPE   C21 5440   1.438   1.456  12.735  0.1578 -0.1984  0.1195
   43DOPE   O22 5441   1.545   1.401  12.757  0.6570  0.4142  0.1125
   43DOPE   C22 5442   1.304   1.406  12.791 -0.3811  0.0569  0.5295
   43DOPE   H2R 5443   1.233   1.408  12.705 -3.6048 -0.5339  2.9830
   43DOPE   H2S 5444   1.262   1.482  12.860 -0.6529  1.0404 -0.6868
   43DOPE    C3 5445   1.606   1.730  12.708  0.0081 -0.0333  0.3733
   43DOPE    HX 5446   1.528   1.809  12.717  0.0089 -0.1734  1.7640
   43DOPE    HY 5447   1.684   1.789  12.654  0.3718  0.8278  1.7794
   43DOPE   O31 5448   1.650   1.680  12.831  0.6989 -0.3396 -0.3423
   43DOPE   C31 5449   1.769   1.615  12.847  0.6144 -0.1043 -0.0498
   43DOPE   O32 5450   1.839   1.580  12.752 -0.4882 -0.7139 -0.4181
   43DOPE   C32 5451   1.791   1.573  12.991 -0.3567  0.3387 -0.0459
   43DOPE   H2X 5452   1.710   1.502  13.019  0.5500 -1.0786 -0.8755
   43DOPE   H2Y 5453   1.885   1.514  12.984 -0.7026 -0.1005 -1.0728
   43DOPE   C23 5454   1.317   1.267  12.857  1.1071 -0.4705 -0.6691
   43DOPE   H3R 5455   1.390   1.269  12.941 -0.9975  1.2530  1.2835
   43DOPE   H3S 5456   1.344   1.186  12.787 -0.5188 -2.1409  0.5272
   43DOPE   C24 5457   1.187   1.217  12.923  0.1261  0.1795 -0.3990
   43DOPE   H4R 5458   1.181   1.109  12.951 -5.9996  0.0503 -0.7407
   43DOPE   H4S 5459   1.117   1.236  12.839  2.5041  0.3445 -2.4551
   43DOPE   C25 5460   1.154   1.297  13.049 -0.1558  0.4238 -0.0224
   43DOPE   H5R 5461   1.103   1.387  13.010 -3.2805 -0.3431  1.8955
   43DOPE   H5S 5462   1.243   1.324  13.109 -0.9649  0.3465  1.2522
   43DOPE   C26 5463   1.062   1.215  13.141 -0.6717  0.1712 -0.0574
   43DOPE   H6R 5464   1.127   1.160  13.212 -2.5300 -2.3391 -0.1343
   43DOPE   H6S 5465   1.017   1.139  13.074  1.3942 -0.5368 -0.7004
   43DOPE   C27 5466   0.956   1.305  13.217 -0.1262  1.0119  0.0381
   43DOPE   H7R 5467   0.896   1.250  13.293 -2.3785 -0.1611 -2.4352
   43DOPE   H7S 5468   0.881   1.330  13.139 -1.9207 -1.2910  0.8770
   43DOPE   C28 5469   1.018   1.437  13.278 -0.1766  0.9267 -0.3076
   43DOPE   H8R 5470   1.099   1.471  13.210  0.2849  0.2829 -0.0826
   43DOPE   H8S 5471   1.068   1.419  13.375 -1.9383  1.8006  0.8208
   43DOPE   C29 5472   0.914   1.546  13.291  0.1147  0.4389  0.1847
   43DOPE   H9R 5473   0.856   1.545  13.197  1.4064  0.2836 -0.6316
   43DOPE  C210 5474   0.888   1.634  13.387  0.4419  0.0112  0.7175
   43DOPE  H10R 5475   0.815   1.714  13.366  1.6659  1.1652  0.6775
   43DOPE  C211 5476   0.971   1.657  13.505 -0.3334  0.6676 -0.4266
   43DOPE  H11R 5477   1.027   1.567  13.538 -1.5132 -0.0639 -0.3499
   43DOPE  H11S 5478   0.900   1.678  13.589  0.1768  1.3827 -0.1715
   43DOPE  C212 5479   1.065   1.775  13.492 -0.0467 -0.0659  0.4183
   43DOPE  H12R 5480   1.013   1.872  13.475 -0.2924 -0.0089  1.4598
   43DOPE  H12S 5481   1.126   1.760  13.400 -0.6582  1.6660 -0.3088
   43DOPE  C213 5482   1.170   1.799  13.605 -0.0077  0.1528 -0.4285
   43DOPE  H13R 5483   1.274   1.792  13.567 -0.3390 -0.6486 -1.2437
   43DOPE  H13S 5484   1.158   1.725  13.687 -1.0546  0.1022 -0.6033
   43DOPE  C214 5485   1.161   1.943  13.663 -0.1014 -0.1278 -0.8155
   43DOPE  H14R 5486   1.156   2.025  13.589  0.7607  1.5685  0.9050
   43DOPE  H14S 5487   1.267   1.959  13.696 -0.0079 -3.6034  1.0555
   43DOPE  C215 5488   1.052   1.957  13.771  0.1887  0.2359  0.8919
   43DOPE  H15R 5489   1.075   1.874  13.842  2.6171 -0.7678 -0.9116
   43DOPE  H15S 5490   0.951   1.938  13.727 -0.2936 -0.1857  2.1517
   43DOPE  C216 5491   1.065   2.091  13.839  0.0092 -0.4510  0.1824
   43DOPE  H16R 5492   1.075   2.170  13.762  1.3129 -1.8567 -1.1609
   43DOPE  H16S 5493   1.167   2.087  13.882  1.8477  0.4138 -3.6566
   43DOPE  C217 5494   0.962   2.121  13.955  0.0630  0.1538  0.6350
   43DOPE  H17R 5495   0.951   2.042  14.032 -0.5068 -0.9229 -0.5250
   43DOPE  H17S 5496   0.863   2.128  13.905  0.7780 -1.1689 -1.0637
   43DOPE  C218 5497   1.004   2.245  14.034 -0.2643 -0.0315  0.7559
   43DOPE  H18R 5498   1.008   2.328  13.960 -2.2233 -2.4585 -2.2963
   43DOPE  H18S 5499   1.107   2.223  14.071  0.8817 -2.5852 -3.3014
   43DOPE  H18T 5500   0.932   2.258  14.118 -2.8494 -0.2643 -1.3014
   43DOPE   C33 5501   1.796   1.690  13.086  0.2630  0.0039  0.1035
   43DOPE   H3X 5502   1.687   1.701  13.104 -0.0504 -0.4592 -1.3870
   43DOPE   H3Y 5503   1.836   1.778  13.031 -0.6389  0.8732  0.7831
   43DOPE   C34 5504   1.874   1.666  13.217 -0.0954  0.1999  0.7350
   43DOPE   H4X 5505   1.857   1.562  13.251  0.9632  0.2757  1.5448
   43DOPE   H4Y 5506   1.981   1.671  13.188 -0.0282 -0.1627  0.9204
   43DOPE   C35 5507   1.841   1.767  13.330  0.3770  0.2743 -0.2632
   43DOPE   H5X 5508   1.737   1.806  13.336  1.0866  2.6922 -2.1060
   43DOPE   H5Y 5509   1.900   1.857  13.303  1.6676 -0.6219 -0.5375
   43DOPE   C36 5510   1.888   1.721  13.470  0.0094  0.1211 -0.7928
   43DOPE   H6X 5511   1.991   1.680  13.465  0.2643  0.4330  1.1283
   43DOPE   H6Y 5512   1.820   1.639  13.502  0.0133 -0.0835 -1.3048
   43DOPE   C37 5513   1.878   1.832  13.576  0.6339  0.5361 -0.3001
   43DOPE   H7X 5514   1.926   1.920  13.527  1.7236  0.5642  0.7796
   43DOPE   H7Y 5515   1.772   1.856  13.598  0.0822 -0.2363 -1.9068
   43DOPE   C38 5516   1.954   1.775  13.699 -0.1041 -0.2592  0.5308
   43DOPE   H8X 5517   1.994   1.869  13.744 -0.3881  0.3479 -0.4502
   43DOPE   H8Y 5518   2.038   1.712  13.663 -0.6324 -0.4903 -0.3319
   43DOPE   C39 5519   1.879   1.689  13.793  0.1157 -0.0258 -0.1542
   43DOPE   H9X 5520   1.808   1.628  13.736  0.0943  0.9150 -1.1678
   43DOPE  C310 5521   1.913   1.655  13.918 -0.1193  0.1909  0.8475
   43DOPE  H10X 5522   1.840   1.587  13.963 -0.4957 -0.1999 -0.3029
   43DOPE  C311 5523   2.007   1.715  14.012  0.5053  1.0881 -0.1208
   43DOPE  H11X 5524   2.093   1.644  14.003 -1.0194 -0.7311 -0.8831
   43DOPE  H11Y 5525   2.043   1.816  13.983  0.2234  1.4912  0.8924
   43DOPE  C312 5526   1.950   1.716  14.152 -0.8468 -0.5455  0.1980
   43DOPE  H12X 5527   2.031   1.748  14.221  0.2156 -0.3409 -1.1017
   43DOPE  H12Y 5528   1.929   1.615  14.194  0.6954 -0.3689  1.5035
   43DOPE  C313 5529   1.845   1.836  14.174  0.0068  0.1690  0.1071
   43DOPE  H13X 5530   1.911   1.926  14.172 -1.7700  1.5181  0.2823
   43DOPE  H13Y 5531   1.776   1.841  14.087 -0.8628 -0.2004  0.7626
   43DOPE  C314 5532   1.763   1.820  14.304  0.5390 -0.5465 -0.0560
   43DOPE  H14X 5533   1.679   1.749  14.287 -0.4582  0.7878 -0.9222
   43DOPE  H14Y 5534   1.717   1.921  14.310 -0.1186 -0.8377 -0.1482
   43DOPE  C315 5535   1.837   1.774  14.426  0.9572  0.3748 -0.0104
   43DOPE  H15X 5536   1.925   1.840  14.443  1.9919 -1.5709  2.9208
   43DOPE  H15Y 5537   1.874   1.672  14.404 -2.2421 -1.3107  1.7999
   43DOPE  C316 5538   1.747   1.763  14.545  0.4110 -0.0080  0.3519
   43DOPE  H16X 5539   1.648   1.716  14.523 -0.0354  1.3361 -0.6513
   43DOPE  H16Y 5540   1.731   1.867  14.579  0.7433  0.3529 -0.5718
   43DOPE  C317 5541   1.800   1.681  14.669  0.1284 -0.3815 -0.3696
   43DOPE  H17X 5542   1.833   1.583  14.628  2.2572  0.6700 -1.3351
   43DOPE  H17Y 5543   1.883   1.729  14.725 -2.0395  1.1135  1.7751
   43DOPE  C318 5544   1.680   1.661  14.769  0.3066  0.3207  0.0853
   43DOPE  H18X 5545   1.602   1.601  14.717 -0.3552 -0.3884  1.8049
   43DOPE  H18Y 5546   1.708   1.608  14.863  0.3281 -0.9537 -0.6183
   43DOPE  H18Z 5547   1.636   1.757  14.804 -1.8459 -0.1914 -1.0207
   44DOPE     N 5548   2.663   0.099  12.353 -0.3907 -0.5087 -0.0213
   44DOPE   HN1 5549   2.702   0.017  12.302  1.9447  2.0491 -2.6970
   44DOPE   HN2 5550   2.687   0.094  12.454  1.9912  0.9088 -0.4409
   44DOPE   HN3 5551   2.560   0.104  12.339 -0.3972  0.7885  0.4260
   44DOPE   C12 5552   2.727   0.224  12.297 -0.2137  0.0425 -0.2203
   44DOPE  H12A 5553   2.822   0.194  12.247 -1.0464 -0.7138 -1.3998
   44DOPE  H12B 5554   2.766   0.286  12.381  1.2247 -0.4365 -0.4966
   44DOPE   C11 5555   2.634   0.300  12.202  0.4025 -0.1178  0.7610
   44DOPE  H11A 5556   2.633   0.234  12.112  1.4720 -0.4957  1.0058
   44DOPE  H11B 5557   2.681   0.396  12.171  0.4221 -0.2433  0.3964
   44DOPE     P 5558   2.391   0.384  12.176 -0.3923  0.0515  0.5948
   44DOPE   O13 5559   2.325   0.264  12.118  0.0372 -0.3918 -0.1310
   44DOPE   O14 5560   2.431   0.493  12.078 -0.2486 -0.3937  0.1758
   44DOPE   O11 5561   2.303   0.450  12.285  1.0466  0.4348  0.3383
   44DOPE   O12 5562   2.504   0.322  12.263 -0.4881 -0.4080 -0.3692
   44DOPE    C1 5563   2.342   0.523  12.396  0.3461  0.4228 -0.9679
   44DOPE    HA 5564   2.270   0.606  12.413  2.1985  2.4676 -2.5660
   44DOPE    HB 5565   2.440   0.574  12.386  0.5191  0.5240  0.9244
   44DOPE    C2 5566   2.362   0.431  12.523  0.8194 -0.4929  0.1090
   44DOPE    HS 5567   2.396   0.329  12.496  0.3104 -1.5438  3.0912
   44DOPE   O21 5568   2.232   0.438  12.591 -0.0969 -0.3387  0.3038
   44DOPE   C21 5569   2.204   0.340  12.673  0.3006  0.5675 -0.5680
   44DOPE   O22 5570   2.275   0.241  12.695 -0.1783 -0.3982 -0.0574
   44DOPE   C22 5571   2.066   0.364  12.739  0.1953 -0.1230  0.6133
   44DOPE   H2R 5572   2.035   0.267  12.782  1.0508 -0.5617  0.2779
   44DOPE   H2S 5573   2.002   0.395  12.654 -0.8255 -0.7592  1.1439
   44DOPE    C3 5574   2.475   0.485  12.613  0.2597  0.4479  0.3211
   44DOPE    HX 5575   2.577   0.466  12.573  1.2224  0.1259  2.7731
   44DOPE    HY 5576   2.485   0.421  12.703  1.0279  1.4553  0.9703
   44DOPE   O31 5577   2.464   0.623  12.637  0.1640  0.0105 -0.4251
   44DOPE   C31 5578   2.422   0.661  12.759  0.9068  0.6055  0.4632
   44DOPE   O32 5579   2.404   0.586  12.856  0.0055 -0.2443  0.5975
   44DOPE   C32 5580   2.396   0.806  12.753  0.5532 -0.5324  0.6109
   44DOPE   H2X 5581   2.482   0.873  12.732  1.1314 -1.6185 -0.5842
   44DOPE   H2Y 5582   2.313   0.817  12.680  0.9353 -1.6173 -0.0182
   44DOPE   C23 5583   2.080   0.482  12.838  0.9059 -0.4924 -0.6609
   44DOPE   H3R 5584   1.977   0.525  12.842  0.4925 -1.3390 -1.7058
   44DOPE   H3S 5585   2.150   0.565  12.814  0.3568  0.1964  0.0555
   44DOPE   C24 5586   2.109   0.440  12.982  0.0636 -0.5001  0.6855
   44DOPE   H4R 5587   2.212   0.399  12.983 -0.9733 -3.2953  1.1036
   44DOPE   H4S 5588   2.040   0.365  13.025  0.1940 -2.0296 -1.5545
   44DOPE   C25 5589   2.127   0.569  13.069  0.2073 -0.2447 -0.1434
   44DOPE   H5R 5590   2.037   0.631  13.052 -0.7979 -2.1912 -2.5335
   44DOPE   H5S 5591   2.215   0.628  13.035 -0.0296  1.2454  1.6695
   44DOPE   C26 5592   2.147   0.554  13.220  0.2772  0.5943 -0.4603
   44DOPE   H6R 5593   2.056   0.513  13.269 -0.4548 -0.0174 -2.2354
   44DOPE   H6S 5594   2.164   0.652  13.269  0.2106  0.9188 -1.0729
   44DOPE   C27 5595   2.258   0.458  13.273 -0.5822 -0.2533 -0.5514
   44DOPE   H7R 5596   2.352   0.485  13.219 -0.4500 -0.0774 -0.2370
   44DOPE   H7S 5597   2.230   0.352  13.263  1.4209 -1.0330  1.3162
   44DOPE   C28 5598   2.280   0.475  13.424 -0.8347  0.0384  0.4006
   44DOPE   H8R 5599   2.314   0.580  13.439  0.3899 -0.1699 -0.7038
   44DOPE   H8S 5600   2.367   0.412  13.452  1.1319  1.4870 -2.0407
   44DOPE   C29 5601   2.164   0.451  13.521  0.3322  0.3525  0.3059
   44DOPE   H9R 5602   2.063   0.462  13.481 -0.6844  1.9665  3.0115
   44DOPE  C210 5603   2.184   0.430  13.651  0.3031  0.0442 -0.2012
   44DOPE  H10R 5604   2.099   0.439  13.719  0.8833 -0.0805  0.5559
   44DOPE  C211 5605   2.318   0.437  13.714  0.2251  0.1010  0.3987
   44DOPE  H11R 5606   2.360   0.539  13.696 -2.0840  0.8689 -1.0697
   44DOPE  H11S 5607   2.394   0.362  13.683  1.3127  0.5128  1.9554
   44DOPE  C212 5608   2.304   0.415  13.865 -0.9687 -0.1888  0.0341
   44DOPE  H12R 5609   2.404   0.411  13.915 -0.4177 -2.1247 -1.1275
   44DOPE  H12S 5610   2.244   0.325  13.894  0.1386 -0.9897 -0.0805
   44DOPE  C213 5611   2.239   0.535  13.936 -0.2404 -0.6773  0.0030
   44DOPE  H13R 5612   2.135   0.539  13.899 -0.0336 -1.8909 -0.7811
   44DOPE  H13S 5613   2.301   0.623  13.907 -0.2191 -0.7829 -0.2788
   44DOPE  C214 5614   2.238   0.534  14.084 -0.2797 -0.6583  0.4076
   44DOPE  H14R 5615   2.181   0.624  14.117  0.0112 -0.8517  1.4905
   44DOPE  H14S 5616   2.341   0.536  14.126 -1.0905 -1.2136  2.5542
   44DOPE  C215 5617   2.168   0.417  14.155  0.1585 -0.1074 -0.4485
   44DOPE  H15R 5618   2.217   0.328  14.111  1.9053  0.6915 -0.2232
   44DOPE  H15S 5619   2.064   0.432  14.120  0.3644 -0.0336 -1.0314
   44DOPE  C216 5620   2.178   0.420  14.309 -0.4061  1.2819 -0.2076
   44DOPE  H16R 5621   2.121   0.339  14.359 -0.0205  0.8672 -0.4355
   44DOPE  H16S 5622   2.149   0.521  14.345  1.9333  0.8567  3.3945
   44DOPE  C217 5623   2.320   0.402  14.363  0.1894 -0.0200  0.1542
   44DOPE  H17R 5624   2.402   0.434  14.297  0.1098 -0.2856 -0.0733
   44DOPE  H17S 5625   2.345   0.297  14.387  0.3478 -0.1947 -0.7544
   44DOPE  C218 5626   2.331   0.470  14.498  0.7861 -0.0434 -0.5450
   44DOPE  H18R 5627   2.422   0.425  14.545 -0.6342  0.6976  3.3235
   44DOPE  H18S 5628   2.252   0.425  14.562  2.7387 -1.9873  0.6571
   44DOPE  H18T 5629   2.317   0.580  14.492  0.4555 -0.0279  0.3030
   44DOPE   C33 5630   2.332   0.862  12.880 -0.7012 -0.1104  0.6116
   44DOPE   H3X 5631   2.255   0.792  12.921  0.1313 -2.0802 -1.0590
   44DOPE   H3Y 5632   2.277   0.958  12.866 -0.6401  0.1134  1.7879
   44DOPE   C34 5633   2.443   0.894  12.985 -0.9357 -0.6380  0.2360
   44DOPE   H4X 5634   2.520   0.815  12.979  1.5328  1.5974  0.2476
   44DOPE   H4Y 5635   2.493   0.989  12.956 -2.4534 -0.0781 -0.6322
   44DOPE   C35 5636   2.384   0.894  13.128 -0.0083 -0.9209 -0.1542
   44DOPE   H5X 5637   2.358   0.788  13.148 -0.7011 -0.9591 -1.1728
   44DOPE   H5Y 5638   2.284   0.942  13.121 -1.4943 -3.2240  2.9915
   44DOPE   C36 5639   2.474   0.961  13.231  0.0684 -0.4168 -0.3397
   44DOPE   H6X 5640   2.531   1.035  13.171  1.3148 -2.3052 -1.5834
   44DOPE   H6Y 5641   2.538   0.888  13.285  0.1964 -0.3152 -0.3546
   44DOPE   C37 5642   2.387   1.024  13.344 -0.8703 -0.2536 -0.3441
   44DOPE   H7X 5643   2.312   1.093  13.301  1.1275  2.5540  0.4361
   44DOPE   H7Y 5644   2.330   0.952  13.407  1.9133 -0.7051  1.8839
   44DOPE   C38 5645   2.479   1.105  13.446 -0.1413  0.0836  0.2410
   44DOPE   H8X 5646   2.409   1.166  13.506  0.3420  0.4817  0.4164
   44DOPE   H8Y 5647   2.541   1.171  13.382  1.2889 -1.6136 -0.2060
   44DOPE   C39 5648   2.575   1.021  13.528  0.8736  0.7464  0.0306
   44DOPE   H9X 5649   2.665   0.988  13.474  0.1347 -1.2555 -0.0555
   44DOPE  C310 5650   2.560   0.978  13.654  0.1082  1.0548 -0.1994
   44DOPE  H10X 5651   2.626   0.909  13.709 -0.3137  2.1317  1.7585
   44DOPE  C311 5652   2.440   1.008  13.740 -0.0988 -0.5787 -0.1696
   44DOPE  H11X 5653   2.456   1.103  13.795  1.9136 -0.8301 -0.2694
   44DOPE  H11Y 5654   2.347   1.034  13.684  0.3575 -0.9994 -1.1393
   44DOPE  C312 5655   2.411   0.897  13.842  0.1762  1.1726 -0.5231
   44DOPE  H12X 5656   2.412   0.798  13.791  1.5775  0.3080  1.0717
   44DOPE  H12Y 5657   2.319   0.912  13.903  0.2043  1.0408 -0.4475
   44DOPE  C313 5658   2.523   0.890  13.960  0.0832 -0.3215 -0.2127
   44DOPE  H13X 5659   2.621   0.866  13.913 -0.2665 -1.2706 -0.4850
   44DOPE  H13Y 5660   2.533   0.996  13.993  0.3042 -0.3713 -0.1195
   44DOPE  C314 5661   2.478   0.805  14.077 -0.5633 -0.3804 -0.2515
   44DOPE  H14X 5662   2.487   0.694  14.071  0.8553 -0.4040  1.3630
   44DOPE  H14Y 5663   2.372   0.828  14.100  0.0442  0.2662  2.2022
   44DOPE  C315 5664   2.559   0.851  14.204 -0.4263 -0.7309  0.5442
   44DOPE  H15X 5665   2.535   0.958  14.224  1.2800 -0.3765  0.8662
   44DOPE  H15Y 5666   2.668   0.834  14.192 -0.6394 -1.6287 -0.1479
   44DOPE  C316 5667   2.528   0.766  14.332 -0.1633 -0.1235 -0.5619
   44DOPE  H16X 5668   2.572   0.664  14.325  0.1313 -0.0038 -0.4699
   44DOPE  H16Y 5669   2.418   0.755  14.337 -0.1812  0.4788  0.8403
   44DOPE  C317 5670   2.582   0.842  14.457  0.3076 -0.2144 -0.0929
   44DOPE  H17X 5671   2.687   0.877  14.453 -0.2529  1.5853  0.0158
   44DOPE  H17Y 5672   2.512   0.928  14.460  1.0073  0.4007 -0.9818
   44DOPE  C318 5673   2.559   0.767  14.590  0.1909 -0.3288  0.3624
   44DOPE  H18X 5674   2.629   0.681  14.585 -1.1529 -1.3680 -2.7365
   44DOPE  H18Y 5675   2.580   0.831  14.679  1.8064  0.0758 -0.2766
   44DOPE  H18Z 5676   2.453   0.736  14.590 -0.3638  1.4239 -0.7940
   45DOPE     N 5677   2.426   6.347  12.386  0.2444  0.4739 -0.3068
   45DOPE   HN1 5678   2.401   6.275  12.315  1.7084 -0.9651  0.5492
   45DOPE   HN2 5679   2.404   6.294  12.473  1.3095 -0.5067 -0.6069
   45DOPE   HN3 5680   2.369   6.429  12.357  1.3460  1.6154  0.6411
   45DOPE   C12 5681   2.575   6.388  12.373  0.7158 -0.0801 -0.3618
   45DOPE  H12A 5682   2.589   6.479  12.435 -0.1541 -0.2435  0.0956
   45DOPE  H12B 5683   2.601   6.419  12.270  0.2431 -0.9718 -0.7617
   45DOPE   C11 5684   2.657   6.279  12.432 -0.3999 -0.1205 -0.3394
   45DOPE  H11A 5685   2.625   6.261  12.537 -1.3699  1.8071 -0.2735
   45DOPE  H11B 5686   2.764   6.308  12.431 -0.7231  1.1529  0.2018
   45DOPE     P 5687   2.707   6.023  12.400  0.1876 -0.1899 -0.1415
   45DOPE   O13 5688   2.743   5.950  12.274  0.4168 -0.5298  0.0138
   45DOPE   O14 5689   2.610   5.952  12.489  0.7383  0.0605  0.7523
   45DOPE   O11 5690   2.831   6.057  12.491  0.4349  0.4586  0.4538
   45DOPE   O12 5691   2.645   6.158  12.359  0.1449 -0.3032  0.3602
   45DOPE    C1 5692   2.917   5.952  12.533  0.6642  0.3763  0.1971
   45DOPE    HA 5693   3.023   5.983  12.529  0.4930  1.6080  2.8835
   45DOPE    HB 5694   2.913   5.869  12.459 -0.1337  1.7592 -1.4012
   45DOPE    C2 5695   2.885   5.910  12.680  0.0860  0.8207  0.6642
   45DOPE    HS 5696   2.983   5.884  12.725  0.6689 -1.4391 -1.6658
   45DOPE   O21 5697   2.794   5.794  12.689 -0.0564  0.3738  0.0225
   45DOPE   C21 5698   2.858   5.678  12.686  0.2736  0.0601  0.5658
   45DOPE   O22 5699   2.982   5.665  12.681  0.0711  0.0753  0.4712
   45DOPE   C22 5700   2.753   5.566  12.699  0.0098 -0.1588 -0.1284
   45DOPE   H2R 5701   2.742   5.504  12.607 -0.7219 -2.9812  1.7270
   45DOPE   H2S 5702   2.652   5.599  12.733 -0.1069 -1.6389  1.0444
   45DOPE    C3 5703   2.812   6.019  12.770 -0.2603  0.1555  0.9565
   45DOPE    HX 5704   2.713   6.048  12.731 -0.2500  1.2159  1.6513
   45DOPE    HY 5705   2.871   6.110  12.743  2.3832 -2.2603 -2.2134
   45DOPE   O31 5706   2.819   5.980  12.916 -0.1485 -0.5682 -0.2038
   45DOPE   C31 5707   2.695   5.959  12.961  0.2311 -0.0441  0.4557
   45DOPE   O32 5708   2.590   5.966  12.899  0.2578  0.2304 -0.2157
   45DOPE   C32 5709   2.717   5.900  13.100  0.7783 -0.5673  0.0483
   45DOPE   H2X 5710   2.784   5.811  13.098  0.6169 -0.6737 -0.5266
   45DOPE   H2Y 5711   2.777   5.972  13.160  0.3432 -0.4409  0.3363
   45DOPE   C23 5712   2.800   5.481  12.819  0.2107 -0.1421  0.0713
   45DOPE   H3R 5713   2.903   5.440  12.808  0.5182  0.1788  1.6061
   45DOPE   H3S 5714   2.739   5.389  12.829 -1.3597  1.0630  2.2379
   45DOPE   C24 5715   2.800   5.554  12.953 -0.1732  0.0751 -1.1078
   45DOPE   H4R 5716   2.694   5.586  12.962 -0.3587 -0.8554  0.3349
   45DOPE   H4S 5717   2.872   5.638  12.955 -0.2450  0.1648  1.6393
   45DOPE   C25 5718   2.828   5.465  13.073  0.1513  1.0835  0.4519
   45DOPE   H5R 5719   2.926   5.413  13.081 -0.0897 -0.0187 -2.4561
   45DOPE   H5S 5720   2.751   5.385  13.067  0.1005  0.9965  1.8801
   45DOPE   C26 5721   2.821   5.536  13.208  0.2596  0.0264  0.3933
   45DOPE   H6R 5722   2.732   5.600  13.223 -1.7077 -2.7556  1.2257
   45DOPE   H6S 5723   2.913   5.600  13.207  0.4490 -0.2069 -1.4593
   45DOPE   C27 5724   2.821   5.442  13.329  0.3598 -0.0825 -0.4526
   45DOPE   H7R 5725   2.902   5.366  13.316  1.2291  0.0497  3.2689
   45DOPE   H7S 5726   2.727   5.383  13.333  0.6571 -0.4964  1.1883
   45DOPE   C28 5727   2.833   5.512  13.470 -0.1529 -1.0233  0.2226
   45DOPE   H8R 5728   2.776   5.457  13.548  0.3897  0.3722  1.6655
   45DOPE   H8S 5729   2.778   5.609  13.458  2.0733  0.0812 -1.9171
   45DOPE   C29 5730   2.979   5.542  13.501  0.9975 -0.2094  0.4344
   45DOPE   H9R 5731   3.049   5.457  13.500  0.0160 -1.0595 -1.9583
   45DOPE  C210 5732   3.039   5.657  13.545 -0.5715  0.0478  0.3477
   45DOPE  H10R 5733   3.147   5.661  13.563 -0.3514  1.7004 -1.0531
   45DOPE  C211 5734   2.965   5.781  13.565 -0.2458 -0.2053 -0.0205
   45DOPE  H11R 5735   3.020   5.828  13.649  0.4233 -1.7896  0.4789
   45DOPE  H11S 5736   2.856   5.760  13.572 -0.2029 -0.9418 -1.2468
   45DOPE  C212 5737   2.972   5.878  13.440  0.1913 -0.2073  0.4626
   45DOPE  H12R 5738   2.916   5.971  13.463 -0.6028 -0.6267  0.2999
   45DOPE  H12S 5739   2.906   5.830  13.364  0.0782  1.6421 -0.6522
   45DOPE  C213 5740   3.114   5.908  13.399 -0.1658  0.3356 -0.1901
   45DOPE  H13R 5741   3.191   5.828  13.399 -1.6306 -1.2119  2.5855
   45DOPE  H13S 5742   3.156   5.975  13.477  2.7029 -0.6426 -0.7604
   45DOPE  C214 5743   3.119   5.982  13.265  0.5935 -0.5179  0.3460
   45DOPE  H14R 5744   3.217   6.032  13.246 -1.2152  3.0429 -0.6166
   45DOPE  H14S 5745   3.056   6.074  13.265  1.9960  0.4871  0.2837
   45DOPE  C215 5746   3.085   5.888  13.153 -0.0950 -0.0039 -0.3820
   45DOPE  H15R 5747   2.980   5.852  13.154  0.0124 -0.3173  1.2127
   45DOPE  H15S 5748   3.152   5.799  13.155 -0.3598 -0.1877  1.0835
   45DOPE  C216 5749   3.101   5.949  13.010  0.5258  0.1593 -0.4261
   45DOPE  H16R 5750   3.022   6.027  13.010 -1.4145 -1.7423 -0.1831
   45DOPE  H16S 5751   3.066   5.866  12.946  1.4707 -1.8886  1.5593
   45DOPE  C217 5752   3.244   5.993  12.972  0.2711 -0.0302 -0.2808
   45DOPE  H17R 5753   3.305   5.903  12.991  0.5992  0.2317 -0.0875
   45DOPE  H17S 5754   3.272   6.081  13.035  0.2225 -0.5955  0.5481
   45DOPE  C218 5755   3.265   6.035  12.823  0.2453 -0.2260  0.0588
   45DOPE  H18R 5756   3.369   6.065  12.796 -0.6028  1.1516 -1.9658
   45DOPE  H18S 5757   3.190   6.109  12.789  0.1718 -0.1371  0.4117
   45DOPE  H18T 5758   3.240   5.947  12.760 -1.1976 -0.8349  1.4356
   45DOPE   C33 5759   2.594   5.863  13.182 -0.0579 -0.2721 -0.6102
   45DOPE   H3X 5760   2.556   5.760  13.167 -1.7963  0.2452  0.0099
   45DOPE   H3Y 5761   2.504   5.925  13.164 -0.3984 -0.9450 -1.2489
   45DOPE   C34 5762   2.619   5.866  13.337  0.6465  0.0779 -0.1197
   45DOPE   H4X 5763   2.687   5.784  13.366  2.7585  1.5040 -0.7351
   45DOPE   H4Y 5764   2.682   5.957  13.353  3.1492 -1.4609 -0.7087
   45DOPE   C35 5765   2.489   5.864  13.413 -0.0272  0.1386  0.5009
   45DOPE   H5X 5766   2.425   5.777  13.388  1.2122 -0.7450  0.3279
   45DOPE   H5Y 5767   2.419   5.944  13.382 -0.2642  0.4324  1.7192
   45DOPE   C36 5768   2.500   5.852  13.567  0.0287 -0.4491  0.6749
   45DOPE   H6X 5769   2.555   5.937  13.613  0.9671 -1.1498  0.8879
   45DOPE   H6Y 5770   2.554   5.765  13.611 -0.0899 -1.2143 -0.6525
   45DOPE   C37 5771   2.361   5.870  13.635 -1.1264  0.1272 -0.2389
   45DOPE   H7X 5772   2.309   5.960  13.596 -4.3192 -1.1349  0.8016
   45DOPE   H7Y 5773   2.309   5.775  13.611  1.3681 -1.0198 -1.4863
   45DOPE   C38 5774   2.352   5.879  13.789  0.1198 -0.7846  0.3025
   45DOPE   H8X 5775   2.248   5.863  13.824  0.2846 -2.1927  0.1987
   45DOPE   H8Y 5776   2.391   5.974  13.831  0.9297 -1.0058  0.0741
   45DOPE   C39 5777   2.427   5.770  13.860 -0.4631  0.0998 -0.0740
   45DOPE   H9X 5778   2.529   5.742  13.827 -0.6152  1.0128 -1.3973
   45DOPE  C310 5779   2.397   5.705  13.975  0.9597 -0.2161  0.4063
   45DOPE  H10X 5780   2.473   5.642  14.023 -0.1201  0.4407  3.2423
   45DOPE  C311 5781   2.271   5.743  14.056 -0.6041 -0.2556  0.8310
   45DOPE  H11X 5782   2.285   5.849  14.087  2.9172 -0.1527 -0.6053
   45DOPE  H11Y 5783   2.187   5.750  13.985  0.1291 -2.6090 -0.3713
   45DOPE  C312 5784   2.236   5.653  14.180  0.4208 -0.1695  0.2530
   45DOPE  H12X 5785   2.324   5.653  14.248  2.5194  1.3851 -2.2427
   45DOPE  H12Y 5786   2.219   5.548  14.149  1.6285 -0.0834 -0.7923
   45DOPE  C313 5787   2.109   5.696  14.260  0.0222 -0.8192 -0.7476
   45DOPE  H13X 5788   2.020   5.702  14.194 -0.1871  0.7696 -0.3608
   45DOPE  H13Y 5789   2.092   5.621  14.340  1.9391  1.2056  1.7401
   45DOPE  C314 5790   2.108   5.838  14.326 -0.3062 -0.4912 -0.1622
   45DOPE  H14X 5791   2.141   5.913  14.251  0.2216 -1.6340 -1.1071
   45DOPE  H14Y 5792   2.187   5.839  14.405 -0.7269 -1.8423  0.3020
   45DOPE  C315 5793   1.977   5.868  14.397 -0.9763  0.0263  0.5813
   45DOPE  H15X 5794   1.943   5.783  14.460 -1.4054  1.3245  2.1498
   45DOPE  H15Y 5795   1.897   5.865  14.320  1.3133  1.5584 -2.0451
   45DOPE  C316 5796   1.990   6.004  14.463 -0.0787 -1.0273 -0.4366
   45DOPE  H16X 5797   2.016   6.080  14.387 -0.4244 -0.9766 -0.5090
   45DOPE  H16Y 5798   2.072   6.004  14.538 -0.6568  1.6626  0.3122
   45DOPE  C317 5799   1.865   6.050  14.538  0.1512 -0.0110  0.6015
   45DOPE  H17X 5800   1.771   6.014  14.490  0.5618 -0.9556  0.4951
   45DOPE  H17Y 5801   1.873   5.998  14.635  0.3534  0.0358  0.6107
   45DOPE  C318 5802   1.848   6.203  14.563  0.5830  0.6819 -0.1645
   45DOPE  H18X 5803   1.769   6.217  14.640  0.7818  0.8162  0.0190
   45DOPE  H18Y 5804   1.941   6.249  14.604  0.8406 -0.5881  0.7325
   45DOPE  H18Z 5805   1.827   6.255  14.467  1.3380  0.0491 -0.6834
   46DOPE     N 5806   2.861   4.143  11.438  0.7391 -0.7395 -0.5522
   46DOPE   HN1 5807   2.816   4.165  11.346  0.1006 -1.3284 -0.3932
   46DOPE   HN2 5808   2.959   4.177  11.437  0.7605 -0.4681  2.2964
   46DOPE   HN3 5809   2.866   4.040  11.447  0.9035 -0.5473  2.6210
   46DOPE   C12 5810   2.793   4.201  11.560  0.1563 -0.1104 -0.2186
   46DOPE  H12A 5811   2.741   4.113  11.605  0.2449 -0.6336 -1.1131
   46DOPE  H12B 5812   2.706   4.265  11.534  0.4121 -0.5269 -2.2923
   46DOPE   C11 5813   2.889   4.278  11.656 -0.3288 -0.1769 -0.1962
   46DOPE  H11A 5814   2.827   4.322  11.736  2.4270  0.7356  1.5690
   46DOPE  H11B 5815   2.912   4.367  11.594  0.6509 -0.6942 -0.6044
   46DOPE     P 5816   2.996   4.114  11.806 -0.0131 -0.1555 -0.1745
   46DOPE   O13 5817   3.136   4.078  11.846  1.0088  0.5888  0.1298
   46DOPE   O14 5818   2.913   4.004  11.770  0.0628 -0.0850  0.0863
   46DOPE   O11 5819   2.926   4.187  11.927  0.2090 -0.7996  0.5977
   46DOPE   O12 5820   3.008   4.218  11.697 -0.3494 -0.0119 -0.2232
   46DOPE    C1 5821   2.980   4.298  11.998 -0.6076  0.5489 -1.0220
   46DOPE    HA 5822   2.912   4.383  11.979 -2.8157 -0.7263  0.6082
   46DOPE    HB 5823   3.084   4.323  11.968  0.2148  0.0421  1.2140
   46DOPE    C2 5824   2.975   4.282  12.156  0.9652 -0.6704  0.1380
   46DOPE    HS 5825   2.992   4.384  12.198  0.0027 -0.5133  0.1601
   46DOPE   O21 5826   3.084   4.192  12.196  0.3523 -0.1370 -0.1688
   46DOPE   C21 5827   3.195   4.247  12.241 -0.2751 -0.2450 -0.1329
   46DOPE   O22 5828   3.219   4.366  12.250  0.4493  0.3396 -0.4514
   46DOPE   C22 5829   3.301   4.139  12.246 -0.1470 -0.0382 -0.1550
   46DOPE   H2R 5830   3.401   4.179  12.223 -0.3942 -0.1607 -1.5026
   46DOPE   H2S 5831   3.286   4.070  12.160 -0.8667 -0.1237  0.0293
   46DOPE    C3 5832   2.838   4.231  12.197  0.2897  0.6211 -0.5053
   46DOPE    HX 5833   2.826   4.126  12.161 -1.0972  0.6141 -0.0656
   46DOPE    HY 5834   2.763   4.294  12.146 -1.9586 -0.9676  0.6650
   46DOPE   O31 5835   2.826   4.233  12.342  0.1985 -0.4162  0.0249
   46DOPE   C31 5836   2.721   4.155  12.371  0.3932 -0.5154  1.0472
   46DOPE   O32 5837   2.648   4.109  12.286  0.5815 -0.4644  0.4411
   46DOPE   C32 5838   2.707   4.151  12.524 -0.2559 -0.0605  0.5417
   46DOPE   H2X 5839   2.812   4.135  12.557  0.0280  1.0775  0.2590
   46DOPE   H2Y 5840   2.660   4.245  12.561  0.0051  0.6304 -0.8209
   46DOPE   C23 5841   3.296   4.057  12.379 -0.1030  0.3188  0.4810
   46DOPE   H3R 5842   3.318   3.948  12.373 -1.4174  0.0816 -0.5903
   46DOPE   H3S 5843   3.194   4.061  12.422 -0.0241 -3.0322  1.2268
   46DOPE   C24 5844   3.393   4.124  12.476 -0.6415 -0.3228  0.3736
   46DOPE   H4R 5845   3.378   4.234  12.482  2.1095  0.3895 -2.9483
   46DOPE   H4S 5846   3.498   4.114  12.441 -0.4236  1.4129  0.4276
   46DOPE   C25 5847   3.374   4.071  12.625 -0.3750 -0.6186 -0.3368
   46DOPE   H5R 5848   3.420   3.971  12.642  0.2596 -0.2154  0.3618
   46DOPE   H5S 5849   3.267   4.072  12.656  0.3620  0.4302  2.4706
   46DOPE   C26 5850   3.445   4.169  12.729  0.3116 -0.2064 -0.0169
   46DOPE   H6R 5851   3.406   4.147  12.831  1.8996 -2.0360  0.2424
   46DOPE   H6S 5852   3.417   4.272  12.697  1.5414 -0.5737 -2.5595
   46DOPE   C27 5853   3.591   4.140  12.722 -1.1279  0.6267  0.6189
   46DOPE   H7R 5854   3.628   4.203  12.638 -0.5421  0.5106  0.7880
   46DOPE   H7S 5855   3.615   4.038  12.687 -0.8232  2.1997 -4.5428
   46DOPE   C28 5856   3.668   4.163  12.853 -0.6841 -0.1950  0.4265
   46DOPE   H8R 5857   3.777   4.142  12.840 -0.6608  1.2328 -2.4114
   46DOPE   H8S 5858   3.633   4.084  12.923 -0.5253  1.0638  1.9995
   46DOPE   C29 5859   3.652   4.302  12.906 -0.8684  0.4487 -0.0702
   46DOPE   H9R 5860   3.696   4.380  12.842  0.6209 -0.5242 -0.2669
   46DOPE  C210 5861   3.627   4.330  13.035 -0.7716 -0.4753 -0.7665
   46DOPE  H10R 5862   3.615   4.434  13.066  1.1711  0.1374 -1.8860
   46DOPE  C211 5863   3.608   4.229  13.144  0.6563 -0.5616 -0.4939
   46DOPE  H11R 5864   3.633   4.125  13.112  0.1583 -1.7048  2.4902
   46DOPE  H11S 5865   3.505   4.219  13.184  0.2233  0.1766 -1.4032
   46DOPE  C212 5866   3.701   4.261  13.265  0.3007  0.3157 -0.6104
   46DOPE  H12R 5867   3.677   4.363  13.302 -1.2137  1.0041 -3.2610
   46DOPE  H12S 5868   3.808   4.257  13.235  0.4447 -1.7075  0.0171
   46DOPE  C213 5869   3.669   4.164  13.385  0.8666  0.5364 -0.0129
   46DOPE  H13R 5870   3.700   4.061  13.357 -1.0483 -0.3955  1.0725
   46DOPE  H13S 5871   3.559   4.164  13.399  0.6525 -0.0786 -1.4476
   46DOPE  C214 5872   3.739   4.196  13.517 -0.1541  0.0666  0.0703
   46DOPE  H14R 5873   3.728   4.304  13.540 -0.4514 -0.2172  1.3512
   46DOPE  H14S 5874   3.846   4.172  13.498 -0.2746  0.4448 -1.1950
   46DOPE  C215 5875   3.694   4.098  13.630 -0.2550 -0.1783  0.7750
   46DOPE  H15R 5876   3.694   3.995  13.591  1.0135 -0.3812  1.2730
   46DOPE  H15S 5877   3.584   4.110  13.645 -0.3849 -1.3760  0.8178
   46DOPE  C216 5878   3.771   4.108  13.762  1.1542 -0.1033  0.5332
   46DOPE  H16R 5879   3.769   4.212  13.802  2.9806  0.2184 -0.1130
   46DOPE  H16S 5880   3.878   4.086  13.743  0.6173 -1.2000 -1.4954
   46DOPE  C217 5881   3.717   4.020  13.877  0.3670  0.0352 -0.3248
   46DOPE  H17R 5882   3.705   3.920  13.830  1.5996  0.2644 -1.2137
   46DOPE  H17S 5883   3.616   4.052  13.908 -0.0899  0.6765 -2.2973
   46DOPE  C218 5884   3.812   4.018  13.996 -0.0670 -0.6880  0.8556
   46DOPE  H18R 5885   3.900   3.961  13.959  0.5232  0.7137  0.0530
   46DOPE  H18S 5886   3.779   3.953  14.080  0.5524 -0.1024  1.5601
   46DOPE  H18T 5887   3.833   4.123  14.024 -0.5813 -0.5444  0.7119
   46DOPE   C33 5888   2.621   4.028  12.562  0.4225 -0.6922  0.3019
   46DOPE   H3X 5889   2.644   3.930  12.516 -1.4115 -0.2930 -1.6640
   46DOPE   H3Y 5890   2.517   4.041  12.525  0.5520 -1.1372 -0.2411
   46DOPE   C34 5891   2.612   4.005  12.713 -0.2382 -0.7645  0.4712
   46DOPE   H4X 5892   2.511   3.961  12.730 -1.9933  2.3647 -1.0244
   46DOPE   H4Y 5893   2.693   3.937  12.747 -0.7785 -1.0070  1.3022
   46DOPE   C35 5894   2.624   4.135  12.797 -0.3818 -0.3827  0.1096
   46DOPE   H5X 5895   2.554   4.217  12.771 -0.1065 -0.0592  0.3766
   46DOPE   H5Y 5896   2.726   4.178  12.783 -0.0801 -1.6384 -1.9020
   46DOPE   C36 5897   2.596   4.102  12.941  0.1404  0.0460 -0.3883
   46DOPE   H6X 5898   2.652   4.007  12.956 -1.9806 -1.5307 -1.8559
   46DOPE   H6Y 5899   2.489   4.073  12.941  0.1502  0.0107 -0.3199
   46DOPE   C37 5900   2.606   4.214  13.041 -0.5196  0.0871  0.2458
   46DOPE   H7X 5901   2.705   4.265  13.037  0.0260 -0.8286  1.4117
   46DOPE   H7Y 5902   2.537   4.299  13.024 -1.0880 -0.2671  0.7607
   46DOPE   C38 5903   2.592   4.170  13.189  0.5583 -0.3370 -0.1028
   46DOPE   H8X 5904   2.504   4.105  13.210  0.5523 -0.0723  0.7293
   46DOPE   H8Y 5905   2.569   4.264  13.243 -2.1990 -1.2249  0.4501
   46DOPE   C39 5906   2.723   4.107  13.239  0.2226 -0.3241 -0.2183
   46DOPE   H9X 5907   2.790   4.081  13.156 -0.6570  1.4211 -1.5516
   46DOPE  C310 5908   2.769   4.106  13.363 -0.2540 -0.0116 -0.6270
   46DOPE  H10X 5909   2.876   4.084  13.371  0.0038  1.6104  0.8334
   46DOPE  C311 5910   2.710   4.156  13.496 -0.7540  0.2664 -0.0502
   46DOPE  H11X 5911   2.732   4.262  13.522  1.1520  0.1111 -0.9248
   46DOPE  H11Y 5912   2.600   4.141  13.495 -0.9554  1.6375 -1.2253
   46DOPE  C312 5913   2.765   4.072  13.613  0.5738  0.1414  0.3920
   46DOPE  H12X 5914   2.875   4.069  13.620  0.5795  0.6682  0.5822
   46DOPE  H12Y 5915   2.749   3.963  13.596  1.4381  0.2062 -1.0609
   46DOPE  C313 5916   2.707   4.108  13.749 -0.6990 -0.3345 -0.1650
   46DOPE  H13X 5917   2.602   4.144  13.739 -0.4738 -0.1167 -2.3470
   46DOPE  H13Y 5918   2.711   4.037  13.834  0.8411 -0.8501 -0.6462
   46DOPE  C314 5919   2.793   4.225  13.811  0.3646  0.2685 -0.8490
   46DOPE  H14X 5920   2.804   4.314  13.746  0.1660  0.0926 -1.1222
   46DOPE  H14Y 5921   2.894   4.184  13.834  0.0157  0.4844  1.2688
   46DOPE  C315 5922   2.719   4.284  13.936 -0.3398 -0.0012 -0.0490
   46DOPE  H15X 5923   2.732   4.218  14.024 -1.0350  0.7535  0.6361
   46DOPE  H15Y 5924   2.614   4.296  13.903 -0.4345 -0.2078  0.1773
   46DOPE  C316 5925   2.761   4.424  13.980 -0.0538 -0.6472  0.7467
   46DOPE  H16X 5926   2.711   4.477  14.064  4.0072  2.8991  1.2621
   46DOPE  H16Y 5927   2.743   4.482  13.887 -0.7038 -1.9706  0.0060
   46DOPE  C317 5928   2.904   4.447  14.003 -0.9492  0.4024  0.4798
   46DOPE  H17X 5929   2.928   4.369  14.078  1.3995 -0.7004 -1.3065
   46DOPE  H17Y 5930   2.955   4.414  13.911 -2.5590 -2.2442  0.4510
   46DOPE  C318 5931   2.951   4.589  14.047  0.1811 -0.4059  0.0263
   46DOPE  H18X 5932   3.061   4.604  14.042  0.4024 -1.2836  1.6279
   46DOPE  H18Y 5933   2.904   4.656  13.972  0.2875  0.3405  0.6287
   46DOPE  H18Z 5934   2.912   4.623  14.145 -4.2600  0.8150 -1.9266
   47DOPE     N 5935   0.429   3.905  11.509  0.8519 -0.1299  0.0215
   47DOPE   HN1 5936   0.511   3.967  11.515  1.3199 -0.8690  2.5838
   47DOPE   HN2 5937   0.395   3.888  11.412 -2.1029 -1.1735  1.1131
   47DOPE   HN3 5938   0.348   3.955  11.552  2.0179  0.0958  2.0951
   47DOPE   C12 5939   0.467   3.781  11.588 -0.6096  0.1112 -0.0591
   47DOPE  H12A 5940   0.538   3.733  11.518 -0.1777  2.1428 -1.0976
   47DOPE  H12B 5941   0.373   3.722  11.593 -1.6174  1.7400  1.5915
   47DOPE   C11 5942   0.524   3.809  11.729  0.0335 -0.2506 -0.4720
   47DOPE  H11A 5943   0.545   3.714  11.781  0.8758 -0.3018 -0.8762
   47DOPE  H11B 5944   0.443   3.851  11.792  0.9668  0.8219  0.0494
   47DOPE     P 5945   0.766   3.863  11.679  0.0028 -0.0373  0.2832
   47DOPE   O13 5946   0.874   3.954  11.720  0.2607  0.0208  0.2010
   47DOPE   O14 5947   0.754   3.841  11.533  0.1599 -0.0777  0.2905
   47DOPE   O11 5948   0.788   3.716  11.737  0.2074  0.0170 -0.0577
   47DOPE   O12 5949   0.628   3.912  11.729  0.5387  0.2781  0.1662
   47DOPE    C1 5950   0.816   3.717  11.881 -0.0786 -0.0407  0.1280
   47DOPE    HA 5951   0.743   3.780  11.937  0.0272  1.3016 -1.1653
   47DOPE    HB 5952   0.917   3.759  11.901  0.0968 -0.1259 -0.5513
   47DOPE    C2 5953   0.814   3.571  11.939  0.5208  0.1724  0.0803
   47DOPE    HS 5954   0.843   3.503  11.856  0.6741 -0.4797  0.6559
   47DOPE   O21 5955   0.680   3.542  11.984 -0.2165 -0.2367  0.7040
   47DOPE   C21 5956   0.650   3.411  11.995 -0.1018  0.3737 -0.3089
   47DOPE   O22 5957   0.718   3.312  11.970 -0.0874  0.1000 -0.0114
   47DOPE   C22 5958   0.513   3.394  12.061 -0.7727 -0.1687 -0.4401
   47DOPE   H2R 5959   0.443   3.444  11.990 -0.4247 -0.7160 -1.1861
   47DOPE   H2S 5960   0.522   3.461  12.149 -1.1930  1.0085 -1.2701
   47DOPE    C3 5961   0.903   3.540  12.064  0.1381  0.0982 -0.0921
   47DOPE    HX 5962   1.006   3.544  12.023 -0.7313 -0.7460 -2.5849
   47DOPE    HY 5963   0.897   3.444  12.120  0.6887  1.6112  2.7241
   47DOPE   O31 5964   0.880   3.641  12.159 -0.0812 -0.9224  0.1662
   47DOPE   C31 5965   0.803   3.621  12.259  1.1057 -0.9527  0.3776
   47DOPE   O32 5966   0.725   3.525  12.271 -0.8033 -0.0758 -0.6824
   47DOPE   C32 5967   0.822   3.736  12.360  0.4478  0.1822  0.1086
   47DOPE   H2X 5968   0.929   3.742  12.387  0.6549 -0.3092 -0.5774
   47DOPE   H2Y 5969   0.799   3.828  12.302  0.1740 -0.7579 -1.3369
   47DOPE   C23 5970   0.482   3.247  12.089  0.6519 -0.5641  0.6438
   47DOPE   H3R 5971   0.559   3.198  12.152  1.5787 -1.1330 -0.8624
   47DOPE   H3S 5972   0.481   3.184  11.997 -2.6336 -0.3572  0.4039
   47DOPE   C24 5973   0.332   3.237  12.153  0.5622  0.6321  0.2851
   47DOPE   H4R 5974   0.279   3.182  12.072  1.8110  0.6654 -0.5791
   47DOPE   H4S 5975   0.295   3.337  12.183 -1.5119  0.0829 -0.2764
   47DOPE   C25 5976   0.334   3.139  12.273  0.1414 -0.0645 -0.8585
   47DOPE   H5R 5977   0.404   3.055  12.253 -0.2232 -1.0165  1.5904
   47DOPE   H5S 5978   0.236   3.097  12.302  0.1083  0.3467 -0.3797
   47DOPE   C26 5979   0.365   3.214  12.404  0.3802 -0.3185 -0.2495
   47DOPE   H6R 5980   0.301   3.303  12.417  1.5284  0.4314  0.4524
   47DOPE   H6S 5981   0.472   3.242  12.395  0.1327  0.6570 -0.2105
   47DOPE   C27 5982   0.355   3.121  12.525 -0.3621 -0.0362 -0.3056
   47DOPE   H7R 5983   0.405   3.026  12.497  1.1048  1.0546 -1.5699
   47DOPE   H7S 5984   0.252   3.095  12.558  0.2185 -1.1818  0.6496
   47DOPE   C28 5985   0.442   3.183  12.636  0.5874 -0.0012 -0.1236
   47DOPE   H8R 5986   0.548   3.195  12.605  0.6144  2.4344  0.6686
   47DOPE   H8S 5987   0.441   3.102  12.713 -0.6689  1.4225  1.4328
   47DOPE   C29 5988   0.397   3.313  12.687 -0.1493 -0.8160  0.0639
   47DOPE   H9R 5989   0.362   3.375  12.603  0.0138 -2.3496 -1.1685
   47DOPE  C210 5990   0.382   3.351  12.816 -0.2183 -0.3897 -0.0933
   47DOPE  H10R 5991   0.333   3.440  12.857  1.4651  0.9190 -0.8447
   47DOPE  C211 5992   0.443   3.283  12.929 -0.1875 -0.4978 -0.2052
   47DOPE  H11R 5993   0.527   3.353  12.953  0.0592  1.0264 -4.5830
   47DOPE  H11S 5994   0.488   3.185  12.903 -0.6736 -0.6719 -0.4066
   47DOPE  C212 5995   0.338   3.286  13.051 -0.2337  0.5416 -0.0218
   47DOPE  H12R 5996   0.253   3.218  13.026  0.1455  0.2882 -0.6413
   47DOPE  H12S 5997   0.288   3.384  13.067 -3.3777 -1.3295  3.1394
   47DOPE  C213 5998   0.407   3.240  13.184  0.0115  0.6147  0.0921
   47DOPE  H13R 5999   0.503   3.297  13.194  1.5320 -1.8769  0.5735
   47DOPE  H13S 6000   0.435   3.133  13.177  0.5362  0.5629  2.2074
   47DOPE  C214 6001   0.306   3.247  13.300 -0.9453  0.3203 -0.4036
   47DOPE  H14R 6002   0.234   3.163  13.288 -2.6549  1.4865  1.0450
   47DOPE  H14S 6003   0.256   3.346  13.299  1.8078  1.8191 -0.3598
   47DOPE  C215 6004   0.377   3.232  13.441 -0.1346  0.4679 -0.4820
   47DOPE  H15R 6005   0.445   3.316  13.463  0.4671 -0.6402  2.2358
   47DOPE  H15S 6006   0.448   3.147  13.445  1.0671  1.5141  2.4002
   47DOPE  C216 6007   0.283   3.216  13.562 -0.2277  0.0993  0.4403
   47DOPE  H16R 6008   0.202   3.149  13.526 -1.2109  0.6129  1.6444
   47DOPE  H16S 6009   0.235   3.314  13.582  0.4244  0.4318  0.4134
   47DOPE  C217 6010   0.345   3.162  13.686 -0.4770  0.4240  0.0930
   47DOPE  H17R 6011   0.425   3.230  13.722 -1.2571  1.1205  0.5497
   47DOPE  H17S 6012   0.400   3.066  13.674  1.7852  1.2075  2.8503
   47DOPE  C218 6013   0.250   3.143  13.800  0.0068 -0.6244  0.0006
   47DOPE  H18R 6014   0.291   3.084  13.885 -1.5992 -1.1127  0.4560
   47DOPE  H18S 6015   0.159   3.087  13.770  0.2274 -1.0370  0.0900
   47DOPE  H18T 6016   0.229   3.243  13.841  0.1898 -1.1000  1.2888
   47DOPE   C33 6017   0.724   3.730  12.480 -0.4148  0.1847 -0.0745
   47DOPE   H3X 6018   0.714   3.628  12.521 -0.3875  0.7353  1.3533
   47DOPE   H3Y 6019   0.616   3.753  12.461 -0.4153  2.1454  1.8595
   47DOPE   C34 6020   0.755   3.826  12.597 -0.4470  1.0320  0.8376
   47DOPE   H4X 6021   0.863   3.822  12.623 -0.9507 -1.1555  2.9983
   47DOPE   H4Y 6022   0.715   3.926  12.570 -2.0565  0.0351 -0.6837
   47DOPE   C35 6023   0.672   3.795  12.724 -0.5465  0.4517 -0.4783
   47DOPE   H5X 6024   0.568   3.769  12.697 -0.6141 -0.1617  0.3290
   47DOPE   H5Y 6025   0.677   3.882  12.793 -0.1061 -0.8586  1.2215
   47DOPE   C36 6026   0.735   3.682  12.810 -0.4186 -0.2519  0.1641
   47DOPE   H6X 6027   0.832   3.726  12.840  0.8964 -1.9763 -1.3108
   47DOPE   H6Y 6028   0.740   3.597  12.739 -1.4662  1.3308 -1.9264
   47DOPE   C37 6029   0.645   3.650  12.934 -0.0656 -0.3106  0.0809
   47DOPE   H7X 6030   0.603   3.748  12.967 -0.7079 -0.0841 -1.3719
   47DOPE   H7Y 6031   0.566   3.574  12.917  0.1671 -0.9808  1.7600
   47DOPE   C38 6032   0.729   3.600  13.049 -0.1432  0.6306 -0.7824
   47DOPE   H8X 6033   0.788   3.688  13.083  1.0288 -0.2773 -0.3975
   47DOPE   H8Y 6034   0.807   3.526  13.021 -0.3614 -0.1087  0.4548
   47DOPE   C39 6035   0.654   3.536  13.171 -1.0231  0.1988 -0.0027
   47DOPE   H9X 6036   0.559   3.493  13.135 -1.4559  2.5017 -1.8715
   47DOPE  C310 6037   0.693   3.542  13.299 -0.2491  0.7781 -0.3273
   47DOPE  H10X 6038   0.625   3.497  13.373 -0.2794 -0.2918 -0.9889
   47DOPE  C311 6039   0.806   3.618  13.362  0.0827  0.5496 -0.0038
   47DOPE  H11X 6040   0.877   3.653  13.284  0.0301 -2.0155 -1.3227
   47DOPE  H11Y 6041   0.761   3.711  13.401  0.6445  0.9510 -0.2985
   47DOPE  C312 6042   0.870   3.527  13.472  0.5404  0.0971 -0.5918
   47DOPE  H12X 6043   0.962   3.574  13.512  0.0549 -1.4628  2.6992
   47DOPE  H12Y 6044   0.903   3.429  13.430 -1.3351 -2.9421  4.1463
   47DOPE  C313 6045   0.777   3.491  13.588  1.1445  0.6792  0.6882
   47DOPE  H13X 6046   0.728   3.585  13.620 -1.0247 -0.2582  0.3271
   47DOPE  H13Y 6047   0.699   3.417  13.560 -0.2013  2.6711 -1.1670
   47DOPE  C314 6048   0.845   3.446  13.706 -0.2006  0.4073 -0.4025
   47DOPE  H14X 6049   0.934   3.383  13.684 -0.8955 -1.9403  2.9087
   47DOPE  H14Y 6050   0.783   3.372  13.760  2.3870 -2.2374 -0.8243
   47DOPE  C315 6051   0.893   3.552  13.801 -0.6417 -0.1291 -0.7714
   47DOPE  H15X 6052   0.804   3.604  13.841  1.1474  3.1338 -0.7514
   47DOPE  H15Y 6053   0.953   3.624  13.741 -2.3271  1.4783 -0.5791
   47DOPE  C316 6054   0.991   3.509  13.915  0.2581  0.3163 -0.5573
   47DOPE  H16X 6055   1.009   3.601  13.975  2.9603  0.2412 -1.1293
   47DOPE  H16Y 6056   1.089   3.468  13.880 -0.4403 -1.3145 -0.7013
   47DOPE  C317 6057   0.920   3.399  13.989  0.0402 -0.0051 -0.6291
   47DOPE  H17X 6058   0.819   3.431  14.022 -0.6642 -2.6377  0.0099
   47DOPE  H17Y 6059   0.908   3.300  13.940  1.3158 -0.3019 -0.3890
   47DOPE  C318 6060   1.003   3.366  14.111  0.4927 -0.0955 -0.7237
   47DOPE  H18X 6061   1.053   3.450  14.164 -0.0509  0.5554 -1.2246
   47DOPE  H18Y 6062   0.937   3.305  14.177 -1.9510  0.8002 -2.1960
   47DOPE  H18Z 6063   1.082   3.302  14.066 -0.7759 -1.8591 -0.5780
   48DOPE     N 6064   5.924   5.808  11.449 -0.1413 -0.9114 -0.2408
   48DOPE   HN1 6065   5.941   5.752  11.363  1.2341 -1.1397  0.1577
   48DOPE   HN2 6066   5.909   5.743  11.530 -2.2363  1.3466  1.3130
   48DOPE   HN3 6067   5.828   5.848  11.444 -0.1911 -1.1842 -2.0158
   48DOPE   C12 6068   6.021   5.915  11.487  0.1483  0.0656  0.0675
   48DOPE  H12A 6069   6.030   5.992  11.407 -0.6442  2.0636  1.7952
   48DOPE  H12B 6070   6.120   5.869  11.508  1.0792  1.8005 -0.2887
   48DOPE   C11 6071   5.976   5.992  11.611 -0.3319 -0.4342 -0.2654
   48DOPE  H11A 6072   6.042   6.080  11.628 -1.7102  0.4680  0.5829
   48DOPE  H11B 6073   5.998   5.917  11.690 -0.9878 -0.7961 -0.4183
   48DOPE     P 6074   5.751   6.055  11.739 -0.0740 -0.0014  0.3907
   48DOPE   O13 6075   5.721   5.928  11.799  0.3166  0.0293 -0.3669
   48DOPE   O14 6076   5.631   6.140  11.708  0.4172 -0.1651 -0.4206
   48DOPE   O11 6077   5.843   6.135  11.836 -0.8244 -0.3152 -0.5772
   48DOPE   O12 6078   5.836   6.030  11.603  0.3096  0.1381  0.1872
   48DOPE    C1 6079   5.929   6.077  11.942  0.7921 -0.5092  0.5600
   48DOPE    HA 6080   6.026   6.130  11.947  0.5366  0.2312 -1.2656
   48DOPE    HB 6081   5.949   5.973  11.909 -3.3377 -1.3636  0.2529
   48DOPE    C2 6082   5.862   6.065  12.084 -0.7166 -0.2040 -0.2197
   48DOPE    HS 6083   5.795   5.976  12.083  0.3082 -1.0165  0.5731
   48DOPE   O21 6084   5.800   6.184  12.124  0.4434  0.2448  0.2347
   48DOPE   C21 6085   5.715   6.179  12.229  0.3761 -0.2030 -0.0259
   48DOPE   O22 6086   5.670   6.073  12.265  0.0413  0.2873  0.0171
   48DOPE   C22 6087   5.687   6.325  12.280 -0.2526  0.2117 -0.0410
   48DOPE   H2R 6088   5.594   6.357  12.228 -0.1631  2.3310  0.9922
   48DOPE   H2S 6089   5.779   6.377  12.245  1.8940 -2.0238  1.8963
   48DOPE    C3 6090   5.969   6.026  12.186 -0.1311 -0.4188  0.3923
   48DOPE    HX 6091   6.034   6.112  12.214 -0.3006  0.1038 -0.7268
   48DOPE    HY 6092   6.042   5.960  12.134 -0.7145 -0.1111 -0.8818
   48DOPE   O31 6093   5.919   5.954  12.304 -0.2321  0.0407  0.7363
   48DOPE   C31 6094   5.912   6.018  12.417  0.3466  0.1494  0.1764
   48DOPE   O32 6095   5.940   6.135  12.430 -0.0434  0.0317 -1.1216
   48DOPE   C32 6096   5.849   5.926  12.522 -0.1264 -0.3783  0.1427
   48DOPE   H2X 6097   5.830   5.995  12.607  2.1501  0.4419  0.0614
   48DOPE   H2Y 6098   5.754   5.889  12.477  1.6122 -1.4777 -2.8686
   48DOPE   C23 6099   5.682   6.347  12.434  0.3514 -0.5305 -0.1738
   48DOPE   H3R 6100   5.784   6.331  12.474  0.1702  1.1499  1.0747
   48DOPE   H3S 6101   5.602   6.279  12.470  0.5051  0.3700  1.9773
   48DOPE   C24 6102   5.648   6.490  12.465 -0.9412  0.1626  0.0806
   48DOPE   H4R 6103   5.546   6.512  12.429 -1.7728 -0.5309  1.8764
   48DOPE   H4S 6104   5.718   6.560  12.415 -0.5706  0.1441  0.5726
   48DOPE   C25 6105   5.660   6.511  12.617  0.5753  0.8527 -0.1938
   48DOPE   H5R 6106   5.764   6.481  12.645  0.2351  1.4357  1.8371
   48DOPE   H5S 6107   5.601   6.434  12.671  3.4871  0.2048  2.3874
   48DOPE   C26 6108   5.645   6.660  12.650  0.1288 -0.1066  0.2638
   48DOPE   H6R 6109   5.545   6.705  12.631  0.5602  0.8553  0.1819
   48DOPE   H6S 6110   5.711   6.717  12.581 -0.8510  0.4144 -0.2797
   48DOPE   C27 6111   5.689   6.679  12.798  0.7826  0.5662 -0.0491
   48DOPE   H7R 6112   5.786   6.630  12.823 -0.0224 -0.3868  1.3593
   48DOPE   H7S 6113   5.612   6.634  12.864  0.4855  1.6995  0.4136
   48DOPE   C28 6114   5.676   6.828  12.838  0.4972 -0.3470  0.2909
   48DOPE   H8R 6115   5.597   6.864  12.769  1.1700  0.3386 -0.1444
   48DOPE   H8S 6116   5.766   6.882  12.801  0.8141 -1.1297 -0.0892
   48DOPE   C29 6117   5.645   6.882  12.976  0.0726  0.0320  0.1308
   48DOPE   H9R 6118   5.634   6.992  12.978  1.4498  0.1758  0.5599
   48DOPE  C210 6119   5.633   6.808  13.091 -0.1151  0.0961 -0.3545
   48DOPE  H10R 6120   5.595   6.864  13.177 -3.0745 -1.4024 -0.5646
   48DOPE  C211 6121   5.654   6.659  13.112 -0.2788 -0.9834  0.1139
   48DOPE  H11R 6122   5.728   6.613  13.044 -0.8828 -1.8233 -0.0016
   48DOPE  H11S 6123   5.555   6.611  13.094 -0.1067 -1.7511  1.1316
   48DOPE  C212 6124   5.698   6.617  13.256  0.0562 -0.5130  0.0796
   48DOPE  H12R 6125   5.793   6.665  13.285  0.4868 -1.4223  0.2054
   48DOPE  H12S 6126   5.712   6.507  13.244  1.0674 -0.4831  0.9111
   48DOPE  C213 6127   5.597   6.625  13.377 -0.0067  0.0965  0.8863
   48DOPE  H13R 6128   5.498   6.586  13.346  1.3064 -2.5055 -0.4611
   48DOPE  H13S 6129   5.581   6.732  13.400 -0.4330  0.5433 -1.2919
   48DOPE  C214 6130   5.642   6.551  13.502  0.8145  0.8650 -0.3072
   48DOPE  H14R 6131   5.739   6.601  13.520 -0.5515  3.5793  0.2016
   48DOPE  H14S 6132   5.660   6.443  13.486  0.5791  0.8790 -0.6846
   48DOPE  C215 6133   5.547   6.563  13.628 -0.9984  0.0006 -0.3017
   48DOPE  H15R 6134   5.452   6.506  13.615 -1.1796 -1.0109  3.9390
   48DOPE  H15S 6135   5.524   6.668  13.656 -3.0050 -0.7773  1.2026
   48DOPE  C216 6136   5.610   6.497  13.752 -1.3224  0.0471  0.4576
   48DOPE  H16R 6137   5.711   6.540  13.770 -0.8196 -0.3758 -1.2210
   48DOPE  H16S 6138   5.608   6.387  13.733 -0.3234  0.0052  0.5497
   48DOPE  C217 6139   5.530   6.518  13.878 -0.1748 -0.3526  0.4587
   48DOPE  H17R 6140   5.422   6.516  13.853  0.0388  0.7225 -0.6307
   48DOPE  H17S 6141   5.546   6.621  13.918 -0.3967 -0.3870  0.6416
   48DOPE  C218 6142   5.558   6.425  13.999 -0.2349 -0.2694  0.0696
   48DOPE  H18R 6143   5.669   6.421  14.005  0.1277  3.5484 -1.6382
   48DOPE  H18S 6144   5.521   6.322  13.978 -0.2130 -0.5360  1.2533
   48DOPE  H18T 6145   5.517   6.465  14.095  1.5965  1.4244  0.2151
   48DOPE   C33 6146   5.933   5.813  12.576  0.2690 -0.5179 -0.1359
   48DOPE   H3X 6147   6.040   5.836  12.594 -0.2802  0.5414  2.0234
   48DOPE   H3Y 6148   5.928   5.724  12.509  0.8967 -0.2710 -0.5286
   48DOPE   C34 6149   5.889   5.782  12.718 -0.5137 -0.0415  0.0332
   48DOPE   H4X 6150   5.943   5.702  12.772  0.6301  0.1505 -0.7761
   48DOPE   H4Y 6151   5.901   5.878  12.772  1.9127 -0.8036  0.9624
   48DOPE   C35 6152   5.736   5.742  12.734 -0.5067 -0.0289 -0.1813
   48DOPE   H5X 6153   5.724   5.648  12.678  0.0949 -0.2621  0.0632
   48DOPE   H5Y 6154   5.673   5.820  12.686  1.9622  1.7201 -0.7858
   48DOPE   C36 6155   5.688   5.742  12.880  0.1693  0.0712  1.7795
   48DOPE   H6X 6156   5.581   5.716  12.877  0.3897 -1.0042 -1.6842
   48DOPE   H6Y 6157   5.674   5.848  12.909  1.7626  0.4215  1.4124
   48DOPE   C37 6158   5.767   5.659  12.979 -0.6375 -0.0951 -0.1569
   48DOPE   H7X 6159   5.783   5.566  12.920  1.7863  0.0481  0.1639
   48DOPE   H7Y 6160   5.870   5.693  13.005 -0.5884  1.4816 -2.1619
   48DOPE   C38 6161   5.680   5.630  13.106 -0.3105  0.3157  0.3706
   48DOPE   H8X 6162   5.732   5.546  13.158  0.3690 -0.0204 -0.8088
   48DOPE   H8Y 6163   5.585   5.582  13.073  1.0703 -0.5649 -2.7308
   48DOPE   C39 6164   5.658   5.759  13.185  0.0349 -0.1500  0.3317
   48DOPE   H9X 6165   5.612   5.840  13.127  0.8682 -1.1738 -1.8890
   48DOPE  C310 6166   5.671   5.780  13.316  0.1577  0.0415 -0.9144
   48DOPE  H10X 6167   5.640   5.871  13.370  1.5470 -0.8308  1.4993
   48DOPE  C311 6168   5.708   5.675  13.416 -0.6382  0.8748  0.8273
   48DOPE  H11X 6169   5.701   5.566  13.396  0.8872  0.8229  0.4165
   48DOPE  H11Y 6170   5.814   5.700  13.440  0.4767  0.3910 -2.9620
   48DOPE  C312 6171   5.633   5.686  13.556  0.4695 -0.0497  0.0994
   48DOPE  H12X 6172   5.530   5.719  13.534  0.5954  0.5428  0.3869
   48DOPE  H12Y 6173   5.676   5.778  13.600  0.3177  0.2626 -0.4021
   48DOPE  C313 6174   5.651   5.564  13.646 -0.3032  0.3184 -0.5738
   48DOPE  H13X 6175   5.590   5.477  13.611  1.8477 -1.7458  0.5239
   48DOPE  H13Y 6176   5.758   5.533  13.649 -0.1394  0.9570  1.1558
   48DOPE  C314 6177   5.620   5.576  13.797  0.1293 -0.2216 -0.3740
   48DOPE  H14X 6178   5.704   5.638  13.834 -0.7132  1.8192 -1.7257
   48DOPE  H14Y 6179   5.619   5.475  13.843  1.2369  0.8833  2.2463
   48DOPE  C315 6180   5.480   5.639  13.828 -0.6027  0.1292 -1.0014
   48DOPE  H15X 6181   5.409   5.608  13.748 -1.9664  0.4503  0.0445
   48DOPE  H15Y 6182   5.496   5.749  13.821  1.3090 -0.0039  0.4106
   48DOPE  C316 6183   5.423   5.591  13.964  0.1659 -0.3105  0.0988
   48DOPE  H16X 6184   5.382   5.488  13.961 -0.8756 -0.1098  3.6606
   48DOPE  H16Y 6185   5.345   5.665  13.991  0.9259  1.1604 -1.4770
   48DOPE  C317 6186   5.528   5.597  14.080 -0.6087 -0.6222  0.1698
   48DOPE  H17X 6187   5.599   5.513  14.065 -1.5450 -1.2416 -1.0532
   48DOPE  H17Y 6188   5.586   5.690  14.068 -1.6663  0.1063  0.5367
   48DOPE  C318 6189   5.469   5.606  14.216 -0.0541 -0.6432 -0.1969
   48DOPE  H18X 6190   5.366   5.646  14.222 -0.1218 -0.8663  0.1555
   48DOPE  H18Y 6191   5.456   5.505  14.260  1.7165 -0.7781  0.0806
   48DOPE  H18Z 6192   5.532   5.663  14.288  0.5559 -1.0978 -0.3573
   49DOPE     N 6193   0.224   4.941  11.953 -0.0284  0.4680 -0.3378
   49DOPE   HN1 6194   0.220   4.837  11.964 -1.0749  0.5555  0.2483
   49DOPE   HN2 6195   0.270   4.978  12.038  1.0014  0.3682 -0.8267
   49DOPE   HN3 6196   0.122   4.958  11.952 -0.1141 -0.0324 -0.4746
   49DOPE   C12 6197   0.282   4.996  11.830 -0.5379  0.1268 -0.0166
   49DOPE  H12A 6198   0.268   5.107  11.828  0.0216  0.2925  2.0068
   49DOPE  H12B 6199   0.231   4.951  11.743 -0.9104  0.6465 -0.0712
   49DOPE   C11 6200   0.434   4.959  11.836  0.3805  0.0841  0.4132
   49DOPE  H11A 6201   0.480   4.977  11.737  1.3990 -0.6091  0.7494
   49DOPE  H11B 6202   0.434   4.848  11.846 -1.7225  0.0207  0.1995
   49DOPE     P 6203   0.653   5.028  11.954 -0.2068 -0.1472 -0.0191
   49DOPE   O13 6204   0.686   5.130  12.056 -0.2687 -0.2196  0.6291
   49DOPE   O14 6205   0.708   5.055  11.822 -0.2713 -0.0948  0.1006
   49DOPE   O11 6206   0.689   4.886  12.003 -0.2810  0.1170  0.0411
   49DOPE   O12 6207   0.497   5.024  11.942  0.5158  0.4144  0.2281
   49DOPE    C1 6208   0.612   4.816  12.105 -0.6221 -0.1011  0.3401
   49DOPE    HA 6209   0.644   4.710  12.106 -2.5623 -0.7299  0.2175
   49DOPE    HB 6210   0.501   4.824  12.105 -0.8108 -1.6368 -2.3614
   49DOPE    C2 6211   0.641   4.861  12.256 -0.3250  0.1230  0.1035
   49DOPE    HS 6212   0.615   4.969  12.262  0.5927  0.3429  0.1996
   49DOPE   O21 6213   0.787   4.832  12.277  0.2629 -0.0598  0.0339
   49DOPE   C21 6214   0.841   4.912  12.364 -0.3943  0.4459  0.4037
   49DOPE   O22 6215   0.785   5.002  12.425 -0.2960  0.0196  0.8366
   49DOPE   C22 6216   0.992   4.904  12.358  0.4957  0.3640 -0.0450
   49DOPE   H2R 6217   1.024   4.960  12.268 -0.7390  0.6580 -0.3136
   49DOPE   H2S 6218   1.018   4.796  12.361  1.3957  0.5815  0.0901
   49DOPE    C3 6219   0.552   4.785  12.360  0.4332 -0.3706  0.0044
   49DOPE    HX 6220   0.598   4.685  12.357 -0.7359 -1.0979  2.6305
   49DOPE    HY 6221   0.447   4.767  12.328  0.3199 -0.1086  0.2191
   49DOPE   O31 6222   0.563   4.833  12.504 -0.4383  0.0693 -0.4444
   49DOPE   C31 6223   0.475   4.924  12.531  0.3968 -0.3978  0.1017
   49DOPE   O32 6224   0.386   4.966  12.460 -0.2481 -0.3818 -0.4166
   49DOPE   C32 6225   0.515   4.987  12.659 -0.4380 -0.3624  0.2662
   49DOPE   H2X 6226   0.616   5.028  12.634 -0.7270 -0.2276 -0.7672
   49DOPE   H2Y 6227   0.451   5.074  12.687 -0.9666 -0.5263 -0.3899
   49DOPE   C23 6228   1.061   4.966  12.482 -0.0093 -0.4405  0.7783
   49DOPE   H3R 6229   1.028   5.072  12.487  0.4443 -0.2948  0.6697
   49DOPE   H3S 6230   1.169   4.981  12.459  0.7893 -2.1500  3.0523
   49DOPE   C24 6231   1.035   4.891  12.610  0.5013 -0.5465  0.6540
   49DOPE   H4R 6232   1.049   4.782  12.591  1.7925 -0.2763 -0.0507
   49DOPE   H4S 6233   0.933   4.891  12.654 -0.5000 -0.3398 -1.4900
   49DOPE   C25 6234   1.133   4.915  12.728  0.1029 -0.3596  0.2218
   49DOPE   H5R 6235   1.144   5.021  12.756  0.2330 -1.1111  3.3159
   49DOPE   H5S 6236   1.236   4.885  12.699  0.6266  0.1788  1.4606
   49DOPE   C26 6237   1.099   4.824  12.843 -0.7338 -0.3346 -0.1988
   49DOPE   H6R 6238   1.189   4.828  12.907  0.4725  0.9641 -1.9016
   49DOPE   H6S 6239   1.084   4.719  12.810  0.7497 -0.4372 -0.5891
   49DOPE   C27 6240   0.987   4.881  12.922 -0.2995 -0.0587 -0.2890
   49DOPE   H7R 6241   0.897   4.870  12.858  0.4257  0.3614 -1.4095
   49DOPE   H7S 6242   0.991   4.991  12.933 -3.0717 -0.0375  1.2792
   49DOPE   C28 6243   0.972   4.818  13.057  0.0585 -0.6308 -0.4050
   49DOPE   H8R 6244   0.995   4.711  13.043  1.2645 -0.2676 -1.4103
   49DOPE   H8S 6245   0.870   4.834  13.098  0.1564  0.9682 -0.7160
   49DOPE   C29 6246   1.068   4.871  13.158 -0.2635  0.0156  0.0308
   49DOPE   H9R 6247   1.152   4.925  13.111  0.6745 -0.0258  1.5911
   49DOPE  C210 6248   1.068   4.874  13.295 -0.0850 -0.5073  0.4863
   49DOPE  H10R 6249   1.162   4.905  13.343 -0.2293 -0.5540  0.8013
   49DOPE  C211 6250   0.964   4.808  13.380  0.0758  0.0369 -0.0408
   49DOPE  H11R 6251   0.871   4.820  13.320 -1.0521 -1.0951  1.3921
   49DOPE  H11S 6252   0.958   4.869  13.472 -0.7902 -0.4593  0.2436
   49DOPE  C212 6253   0.981   4.659  13.409 -0.4356  0.9059 -0.1632
   49DOPE  H12R 6254   1.080   4.630  13.450 -0.3351  0.2861 -0.8266
   49DOPE  H12S 6255   0.981   4.607  13.311 -1.0249 -1.3075  0.9207
   49DOPE  C213 6256   0.862   4.588  13.486 -0.4169  0.3993  0.1766
   49DOPE  H13R 6257   0.865   4.477  13.482 -3.1273  0.2420  0.7315
   49DOPE  H13S 6258   0.762   4.620  13.451  0.2204  1.2192 -0.9549
   49DOPE  C214 6259   0.870   4.638  13.632  0.1059 -0.0106  0.5455
   49DOPE  H14R 6260   0.843   4.746  13.642 -0.4067  0.1132 -1.7171
   49DOPE  H14S 6261   0.967   4.623  13.684  0.8193  2.5009  0.0734
   49DOPE  C215 6262   0.764   4.578  13.722  0.9874  0.0612 -0.2319
   49DOPE  H15R 6263   0.794   4.474  13.748 -2.2335 -1.2209 -1.1432
   49DOPE  H15S 6264   0.664   4.572  13.674  0.7873  1.3295 -0.0029
   49DOPE  C216 6265   0.767   4.656  13.854  0.2125  0.0254 -0.5718
   49DOPE  H16R 6266   0.719   4.755  13.837 -1.5455 -0.6160  0.4088
   49DOPE  H16S 6267   0.871   4.675  13.889  0.6820  2.4209 -2.9462
   49DOPE  C217 6268   0.692   4.586  13.972 -0.2088 -0.2424  0.5895
   49DOPE  H17R 6269   0.732   4.484  13.989  1.8648  0.5100  0.6041
   49DOPE  H17S 6270   0.584   4.597  13.951 -0.5214 -0.4921  1.9502
   49DOPE  C218 6271   0.707   4.666  14.109 -0.5475  0.7119  0.0410
   49DOPE  H18R 6272   0.791   4.624  14.168 -0.6559  1.1552  0.5216
   49DOPE  H18S 6273   0.614   4.660  14.169 -1.1906  0.5851 -0.9406
   49DOPE  H18T 6274   0.730   4.767  14.068 -0.6874  0.5362 -0.4749
   49DOPE   C33 6275   0.532   4.886  12.778 -0.1215  0.1153 -0.0674
   49DOPE   H3X 6276   0.614   4.812  12.770 -1.0553 -0.8574 -0.8780
   49DOPE   H3Y 6277   0.433   4.836  12.787 -0.3878  0.7369  0.4947
   49DOPE   C34 6278   0.539   4.957  12.922  0.0173 -0.6112 -0.0342
   49DOPE   H4X 6279   0.644   4.990  12.934 -0.7530  1.9489  0.1565
   49DOPE   H4Y 6280   0.468   5.041  12.937  0.5131  0.0811 -1.3946
   49DOPE   C35 6281   0.524   4.864  13.037 -0.3588  0.4850 -0.2841
   49DOPE   H5X 6282   0.579   4.772  13.009  1.2322  1.0916  0.7394
   49DOPE   H5Y 6283   0.416   4.840  13.047 -0.2357 -0.6394 -1.4441
   49DOPE   C36 6284   0.575   4.924  13.165  0.1156 -0.0016 -0.4878
   49DOPE   H6X 6285   0.528   5.024  13.181 -0.5384 -0.2218 -1.0071
   49DOPE   H6Y 6286   0.686   4.929  13.177  0.2509 -3.1481  0.2840
   49DOPE   C37 6287   0.535   4.846  13.292 -0.0211  0.1714  0.4308
   49DOPE   H7X 6288   0.424   4.837  13.292 -0.2756  2.4228  1.6532
   49DOPE   H7Y 6289   0.586   4.748  13.278  0.5222  0.6286 -0.9304
   49DOPE   C38 6290   0.584   4.906  13.429 -0.3504  0.3311  0.0676
   49DOPE   H8X 6291   0.695   4.907  13.425 -0.3238 -0.3632  0.5659
   49DOPE   H8Y 6292   0.554   4.826  13.499 -0.9665 -1.8733 -2.5409
   49DOPE   C39 6293   0.536   5.041  13.463 -0.0619 -0.3183 -0.0106
   49DOPE   H9X 6294   0.513   5.107  13.378 -1.4701 -0.2793  0.3897
   49DOPE  C310 6295   0.536   5.101  13.584  0.1856  0.3051  0.7457
   49DOPE  H10X 6296   0.482   5.197  13.582 -3.2734 -1.4198 -2.1722
   49DOPE  C311 6297   0.581   5.054  13.719  0.0135  0.1979  0.0656
   49DOPE  H11X 6298   0.632   4.955  13.719  0.6077  0.4918  0.6181
   49DOPE  H11Y 6299   0.656   5.125  13.761 -0.9050  1.6641 -0.7173
   49DOPE  C312 6300   0.459   5.050  13.815 -0.7358  0.3285  0.2853
   49DOPE  H12X 6301   0.376   4.994  13.767 -2.0257  0.9505  1.6984
   49DOPE  H12Y 6302   0.415   5.151  13.802 -1.0984  0.0227 -0.9477
   49DOPE  C313 6303   0.481   5.004  13.958  0.1047 -0.1900  0.2883
   49DOPE  H13X 6304   0.480   4.893  13.955  0.0978 -0.1747 -1.7257
   49DOPE  H13Y 6305   0.580   5.041  13.992 -0.3915 -0.3943  2.0248
   49DOPE  C314 6306   0.365   5.033  14.051 -0.3408  0.6513  0.5272
   49DOPE  H14X 6307   0.397   5.001  14.152  0.5328  0.5725  0.2321
   49DOPE  H14Y 6308   0.279   4.967  14.031  0.9719 -1.0005  0.1115
   49DOPE  C315 6309   0.322   5.181  14.068  0.1045 -0.3856 -0.7114
   49DOPE  H15X 6310   0.267   5.207  13.975  0.9634  0.0568 -1.1168
   49DOPE  H15Y 6311   0.412   5.245  14.052  0.0552  0.8575  2.9836
   49DOPE  C316 6312   0.225   5.201  14.191 -0.5956  0.2015 -0.6114
   49DOPE  H16X 6313   0.289   5.206  14.282 -0.9050  1.0405 -0.4341
   49DOPE  H16Y 6314   0.152   5.119  14.209 -1.7530  1.6000  1.5320
   49DOPE  C317 6315   0.155   5.333  14.188 -0.5244 -0.1427  0.2927
   49DOPE  H17X 6316   0.241   5.403  14.202 -0.1827 -0.8746  2.0379
   49DOPE  H17Y 6317   0.103   5.364  14.095 -0.7762  0.2346  0.5564
   49DOPE  C318 6318   0.057   5.360  14.302  0.3788 -0.0335 -0.5406
   49DOPE  H18X 6319   0.063   5.466  14.336 -0.7107  0.0293 -0.5053
   49DOPE  H18Y 6320  -0.045   5.331  14.271 -0.6012  2.5983 -0.0715
   49DOPE  H18Z 6321   0.097   5.310  14.393  1.6162  1.1220 -0.4203
   50DOPE     N 6322   1.288   1.529  11.975  0.6939  0.0493 -0.3786
   50DOPE   HN1 6323   1.308   1.568  11.880  0.6137 -1.6571 -1.1403
   50DOPE   HN2 6324   1.386   1.511  12.008  0.8754  0.5440 -0.6354
   50DOPE   HN3 6325   1.238   1.439  11.962 -0.3434  0.6127 -0.3310
   50DOPE   C12 6326   1.215   1.620  12.075 -1.1765  0.3663 -0.0865
   50DOPE  H12A 6327   1.294   1.693  12.104 -2.5284  1.8431 -0.0090
   50DOPE  H12B 6328   1.178   1.554  12.156  0.6693 -0.8659 -0.1717
   50DOPE   C11 6329   1.104   1.698  12.009  0.3559  0.3287 -0.1208
   50DOPE  H11A 6330   1.055   1.764  12.083 -1.1253 -0.6518 -0.2010
   50DOPE  H11B 6331   1.026   1.626  11.979  1.4767 -0.6039 -0.9218
   50DOPE     P 6332   1.195   1.927  11.913 -0.0484 -0.0617 -0.0901
   50DOPE   O13 6333   1.121   2.010  11.813 -0.1697  0.1403  0.5342
   50DOPE   O14 6334   1.341   1.917  11.890 -0.0365 -0.0795  0.2140
   50DOPE   O11 6335   1.175   1.958  12.070 -0.6883 -0.1381  0.7558
   50DOPE   O12 6336   1.135   1.779  11.897  0.6789 -0.2498  0.3969
   50DOPE    C1 6337   1.080   2.053  12.099  0.1378  0.1631 -0.0016
   50DOPE    HA 6338   1.060   2.042  12.208 -0.5943  2.0864  0.1038
   50DOPE    HB 6339   0.978   2.043  12.054 -2.3538  1.3947  4.7093
   50DOPE    C2 6340   1.131   2.197  12.088  0.0648  0.2916 -0.2420
   50DOPE    HS 6341   1.175   2.208  11.986 -0.4042  1.2422 -0.3512
   50DOPE   O21 6342   1.240   2.223  12.180  0.2838 -0.0182  0.1754
   50DOPE   C21 6343   1.311   2.330  12.153  0.4535  0.0092  0.2317
   50DOPE   O22 6344   1.310   2.392  12.046 -0.9167 -0.2884 -0.1258
   50DOPE   C22 6345   1.410   2.351  12.268  0.0694  0.2155  0.5032
   50DOPE   H2R 6346   1.495   2.282  12.247  1.2148  1.9278 -0.7720
   50DOPE   H2S 6347   1.363   2.320  12.364  0.2745  1.0455  0.8769
   50DOPE    C3 6348   1.020   2.301  12.109 -0.0621 -1.0396 -0.1168
   50DOPE    HX 6349   0.931   2.282  12.046  0.4141  1.0635 -1.5306
   50DOPE    HY 6350   1.055   2.400  12.073 -2.6112  0.1341  0.4228
   50DOPE   O31 6351   0.976   2.304  12.248 -0.1858  0.4807  0.1262
   50DOPE   C31 6352   0.866   2.377  12.274  0.3677 -0.7495 -0.1532
   50DOPE   O32 6353   0.817   2.459  12.196 -0.0179 -0.6452  0.4664
   50DOPE   C32 6354   0.811   2.341  12.416  0.2717  0.3130 -0.0648
   50DOPE   H2X 6355   0.707   2.381  12.409 -0.1435 -1.0368 -2.7778
   50DOPE   H2Y 6356   0.803   2.231  12.427 -0.3025  0.4601  1.1578
   50DOPE   C23 6357   1.444   2.499  12.278 -0.3254 -0.2828 -0.0206
   50DOPE   H3R 6358   1.486   2.541  12.184  1.2942 -0.3316  0.6481
   50DOPE   H3S 6359   1.517   2.512  12.361 -3.1847  0.1016  2.6381
   50DOPE   C24 6360   1.327   2.586  12.320 -0.5228 -0.2249 -0.2534
   50DOPE   H4R 6361   1.261   2.604  12.232 -1.6875  0.2232  0.6817
   50DOPE   H4S 6362   1.374   2.685  12.339  0.8615 -0.8365 -0.3950
   50DOPE   C25 6363   1.246   2.535  12.438  0.6008  0.1609 -1.0636
   50DOPE   H5R 6364   1.310   2.503  12.523 -0.8108  2.5628  1.0438
   50DOPE   H5S 6365   1.188   2.443  12.416 -2.7722  0.9943  3.0220
   50DOPE   C26 6366   1.159   2.643  12.507 -0.0184 -0.2574  0.1522
   50DOPE   H6R 6367   1.079   2.600  12.571 -2.8604  1.9611 -1.6721
   50DOPE   H6S 6368   1.110   2.690  12.419  0.6976  2.3823  1.0689
   50DOPE   C27 6369   1.242   2.745  12.577  0.0765 -0.5583 -0.0964
   50DOPE   H7R 6370   1.328   2.764  12.510 -0.4467 -1.1475 -0.9511
   50DOPE   H7S 6371   1.275   2.687  12.666  1.0296  0.5214  0.2767
   50DOPE   C28 6372   1.169   2.875  12.616 -0.1689 -0.2313 -0.1523
   50DOPE   H8R 6373   1.145   2.927  12.521  1.2192 -0.0998 -0.4576
   50DOPE   H8S 6374   1.231   2.939  12.683 -0.5614 -1.8483  1.8665
   50DOPE   C29 6375   1.046   2.830  12.696  0.4188 -0.1863  0.0901
   50DOPE   H9R 6376   0.957   2.825  12.633 -0.5737 -0.0431  1.4409
   50DOPE  C210 6377   1.043   2.789  12.820  0.6171  0.2769 -0.6686
   50DOPE  H10R 6378   0.951   2.757  12.870  0.9652 -1.4724 -1.0805
   50DOPE  C211 6379   1.164   2.771  12.913 -0.2932  0.3285  1.0473
   50DOPE  H11R 6380   1.253   2.819  12.867  0.0051  1.5065  2.7797
   50DOPE  H11S 6381   1.184   2.663  12.926 -0.0410  0.0532 -1.1301
   50DOPE  C212 6382   1.144   2.844  13.047  0.1499  0.0377 -0.1045
   50DOPE  H12R 6383   1.048   2.819  13.098  0.5055  1.1983  1.2038
   50DOPE  H12S 6384   1.150   2.952  13.021  2.0639  0.6924  2.6015
   50DOPE  C213 6385   1.261   2.809  13.144 -0.1518 -0.3324 -0.1041
   50DOPE  H13R 6386   1.356   2.811  13.086  0.0810  2.9034  0.1689
   50DOPE  H13S 6387   1.244   2.706  13.183 -2.1164  0.3308  0.9391
   50DOPE  C214 6388   1.278   2.911  13.261 -0.2208  0.2402  0.1488
   50DOPE  H14R 6389   1.175   2.916  13.303 -1.7469 -1.0885 -3.0993
   50DOPE  H14S 6390   1.308   3.012  13.225 -0.8832  0.9517  1.5072
   50DOPE  C215 6391   1.383   2.876  13.361  0.1135 -0.4660 -0.4526
   50DOPE  H15R 6392   1.420   2.969  13.410  2.1277 -1.0896 -0.6985
   50DOPE  H15S 6393   1.473   2.836  13.311  1.8078  1.2748  1.0158
   50DOPE  C216 6394   1.348   2.778  13.476 -0.5456 -0.2307  0.5877
   50DOPE  H16R 6395   1.321   2.680  13.430  0.2267 -0.1022 -0.1580
   50DOPE  H16S 6396   1.262   2.819  13.533 -1.5404 -0.2378 -0.8593
   50DOPE  C217 6397   1.464   2.746  13.568 -0.2956  0.2497  0.0163
   50DOPE  H17R 6398   1.499   2.837  13.622 -0.7017  0.0884  0.5594
   50DOPE  H17S 6399   1.544   2.700  13.506  0.8139  1.5257  0.4425
   50DOPE  C218 6400   1.424   2.641  13.673  0.6871 -0.2981 -0.0073
   50DOPE  H18R 6401   1.347   2.682  13.743 -1.5027 -2.8948 -0.7159
   50DOPE  H18S 6402   1.514   2.623  13.735  1.4755  1.7029 -0.4669
   50DOPE  H18T 6403   1.390   2.546  13.627  2.0391 -0.4161 -0.8017
   50DOPE   C33 6404   0.889   2.405  12.540 -0.3881  0.8433  0.4553
   50DOPE   H3X 6405   0.873   2.515  12.531  2.2949  1.3242  0.6942
   50DOPE   H3Y 6406   0.995   2.385  12.514 -0.1911  0.9204  1.1684
   50DOPE   C34 6407   0.840   2.372  12.680  0.1676 -0.1878  0.3236
   50DOPE   H4X 6408   0.732   2.395  12.695  0.0207 -0.1117 -0.7122
   50DOPE   H4Y 6409   0.849   2.262  12.686  1.0248 -0.1734 -0.5096
   50DOPE   C35 6410   0.920   2.438  12.789  0.1455  0.4401  0.5850
   50DOPE   H5X 6411   0.911   2.547  12.773  2.1721  0.5805  0.2295
   50DOPE   H5Y 6412   1.028   2.417  12.784 -0.6282 -4.6481  0.1725
   50DOPE   C36 6413   0.868   2.388  12.922 -0.7962 -0.3607  0.2314
   50DOPE   H6X 6414   0.892   2.281  12.941 -2.7213 -0.7903  0.3690
   50DOPE   H6Y 6415   0.758   2.401  12.927 -0.4765  2.9078  0.8123
   50DOPE   C37 6416   0.928   2.473  13.035 -0.8661  0.1260 -0.3425
   50DOPE   H7X 6417   1.038   2.459  13.039 -0.8958 -0.6088 -1.5560
   50DOPE   H7Y 6418   0.906   2.578  13.005 -2.3082  0.0661  0.4212
   50DOPE   C38 6419   0.873   2.460  13.178 -0.0177 -0.1792 -0.6679
   50DOPE   H8X 6420   0.772   2.504  13.191 -0.1965 -1.0226  1.1552
   50DOPE   H8Y 6421   0.941   2.531  13.231 -1.0016  2.2198 -2.4245
   50DOPE   C39 6422   0.877   2.317  13.218  0.4097  0.2357 -0.3824
   50DOPE   H9X 6423   0.778   2.278  13.190 -0.4585  1.7607  0.4150
   50DOPE  C310 6424   0.962   2.254  13.302  0.2712 -1.0349 -0.4976
   50DOPE  H10X 6425   0.962   2.145  13.317 -2.9513 -0.8107  2.6194
   50DOPE  C311 6426   1.084   2.324  13.353  0.1438 -0.5350 -0.4450
   50DOPE  H11X 6427   1.169   2.253  13.341 -1.1519 -2.1528 -0.4069
   50DOPE  H11Y 6428   1.106   2.419  13.299 -0.2109 -0.4657 -0.4691
   50DOPE  C312 6429   1.090   2.363  13.503 -0.1289 -0.1509 -0.0243
   50DOPE  H12X 6430   1.191   2.401  13.527 -1.1792  2.2692  0.8659
   50DOPE  H12Y 6431   1.050   2.286  13.572 -2.2540  0.7759 -0.1395
   50DOPE  C313 6432   1.016   2.491  13.531  0.0878  0.2847  0.1932
   50DOPE  H13X 6433   1.031   2.559  13.445 -0.7566 -1.2782 -1.2465
   50DOPE  H13Y 6434   0.910   2.458  13.531  0.0198  0.4503  1.3437
   50DOPE  C314 6435   1.057   2.560  13.662  0.7965  0.8990  0.3850
   50DOPE  H14X 6436   1.168   2.565  13.662  0.8071  0.7051  0.7825
   50DOPE  H14Y 6437   1.032   2.486  13.741  2.2728  0.4823  0.5017
   50DOPE  C315 6438   0.986   2.691  13.673  0.3204  0.3981 -0.5744
   50DOPE  H15X 6439   0.878   2.666  13.684  0.6765 -0.6825  0.7574
   50DOPE  H15Y 6440   1.013   2.757  13.588  1.5382  1.2050  0.4089
   50DOPE  C316 6441   1.046   2.774  13.791  0.0663  0.2821  0.1906
   50DOPE  H16X 6442   0.990   2.870  13.796  0.4204  0.4460  1.1473
   50DOPE  H16Y 6443   1.155   2.787  13.777  0.5140 -0.2745  2.6046
   50DOPE  C317 6444   1.039   2.707  13.935  0.1732 -0.0562 -0.5033
   50DOPE  H17X 6445   0.941   2.682  13.981  0.4049  1.7047  1.0752
   50DOPE  H17Y 6446   1.102   2.618  13.953  1.1742  0.8335  0.6273
   50DOPE  C318 6447   1.084   2.816  14.035 -0.2795  0.2805 -0.0158
   50DOPE  H18X 6448   1.094   2.775  14.138 -0.9135  0.5206  0.1478
   50DOPE  H18Y 6449   1.183   2.860  14.013 -0.2331  1.4216  2.1798
   50DOPE  H18Z 6450   1.011   2.899  14.046  0.4037  0.6630  2.1919
   51DOPE     N 6451   2.574   4.689  11.930  0.0854 -0.3056 -0.6897
   51DOPE   HN1 6452   2.653   4.674  11.864  2.9166 -2.2606  2.7869
   51DOPE   HN2 6453   2.542   4.597  11.965  0.7192 -1.2872 -2.5674
   51DOPE   HN3 6454   2.494   4.734  11.880 -1.3441  1.4432  2.7831
   51DOPE   C12 6455   2.616   4.769  12.048 -0.2599 -0.2605 -1.0891
   51DOPE  H12A 6456   2.524   4.783  12.108  0.5146 -1.5137  0.4805
   51DOPE  H12B 6457   2.643   4.872  12.017  0.0132  0.0966  0.2456
   51DOPE   C11 6458   2.722   4.699  12.133 -0.5216  0.0078  0.0714
   51DOPE  H11A 6459   2.679   4.620  12.197 -1.8288  1.5285  1.1284
   51DOPE  H11B 6460   2.754   4.769  12.213 -0.5588  0.6824 -0.4845
   51DOPE     P 6461   2.959   4.719  12.022 -0.2283 -0.3744  0.3502
   51DOPE   O13 6462   2.921   4.833  11.933  0.3565 -0.0496 -0.1201
   51DOPE   O14 6463   3.055   4.621  11.967  0.3500 -0.2862 -0.2379
   51DOPE   O11 6464   3.009   4.772  12.160  0.8969  0.4441  0.6289
   51DOPE   O12 6465   2.827   4.646  12.051  0.7759 -0.0524  0.0273
   51DOPE    C1 6466   3.024   4.696  12.271 -0.7466  0.3513  0.4781
   51DOPE    HA 6467   3.116   4.633  12.265  1.2138  2.6745  3.3112
   51DOPE    HB 6468   2.933   4.638  12.299 -0.2363  0.3123  2.1610
   51DOPE    C2 6469   3.050   4.799  12.387 -0.7953  0.9429 -0.3265
   51DOPE    HS 6470   3.136   4.867  12.367  0.0462  0.0662  0.2177
   51DOPE   O21 6471   3.066   4.723  12.517  0.2969  0.0183 -0.1626
   51DOPE   C21 6472   3.176   4.667  12.534  0.0225  0.8163 -0.4552
   51DOPE   O22 6473   3.279   4.680  12.468  0.7482  0.0014  0.2911
   51DOPE   C22 6474   3.176   4.580  12.663 -0.0380 -0.1670  0.4147
   51DOPE   H2R 6475   3.148   4.645  12.748  0.3821 -0.7126  0.9823
   51DOPE   H2S 6476   3.277   4.542  12.690 -0.6766 -1.1453  1.4901
   51DOPE    C3 6477   2.928   4.895  12.396 -0.3298 -0.3414 -0.9912
   51DOPE    HX 6478   2.835   4.841  12.426 -1.2276 -0.0103 -3.0071
   51DOPE    HY 6479   2.908   4.945  12.298 -2.6267  0.2727 -0.2741
   51DOPE   O31 6480   2.964   4.989  12.503  0.0389  0.5661 -0.2661
   51DOPE   C31 6481   2.872   5.081  12.527 -0.4336  0.2412 -1.0986
   51DOPE   O32 6482   2.766   5.085  12.471  0.3535  0.0691 -0.2711
   51DOPE   C32 6483   2.920   5.173  12.641 -0.0591 -0.5847  0.1087
   51DOPE   H2X 6484   2.941   5.268  12.588 -1.4516 -0.5166 -0.3906
   51DOPE   H2Y 6485   2.833   5.208  12.700  0.3348  2.2224 -0.8516
   51DOPE   C23 6486   3.085   4.461  12.661  0.6561 -0.5488  0.2274
   51DOPE   H3R 6487   3.128   4.396  12.582 -1.0788 -0.6213 -0.7039
   51DOPE   H3S 6488   2.985   4.485  12.618  0.3137 -1.5109  0.4426
   51DOPE   C24 6489   3.089   4.398  12.806  0.2637  0.8115 -0.9456
   51DOPE   H4R 6490   3.056   4.479  12.874 -1.4662 -0.8879  0.3673
   51DOPE   H4S 6491   3.195   4.371  12.824 -0.0103  0.0757 -0.3777
   51DOPE   C25 6492   2.999   4.276  12.808 -0.2125  0.2813 -0.4628
   51DOPE   H5R 6493   3.019   4.217  12.716  0.2380  0.1791 -0.3047
   51DOPE   H5S 6494   2.902   4.327  12.794  0.3062  0.4916 -4.6169
   51DOPE   C26 6495   2.994   4.200  12.939 -0.2247 -0.0922 -0.3611
   51DOPE   H6R 6496   2.923   4.115  12.933  0.7248 -0.8570 -1.0558
   51DOPE   H6S 6497   2.959   4.267  13.021 -0.4260 -1.7333  0.9412
   51DOPE   C27 6498   3.136   4.160  12.992  0.0513 -0.2668 -0.2096
   51DOPE   H7R 6499   3.194   4.253  13.012  2.7326 -1.1323 -3.1433
   51DOPE   H7S 6500   3.189   4.100  12.915 -0.0204  0.1570 -0.5928
   51DOPE   C28 6501   3.116   4.079  13.126 -0.3699  0.1469 -0.1882
   51DOPE   H8R 6502   3.040   4.002  13.100  0.0069 -0.5903  0.8196
   51DOPE   H8S 6503   3.070   4.146  13.202 -0.0838  0.0041  0.1154
   51DOPE   C29 6504   3.233   4.008  13.180 -0.0539  0.6687  0.2393
   51DOPE   H9R 6505   3.284   3.939  13.112  2.7497  1.2586  1.5961
   51DOPE  C210 6506   3.277   4.019  13.306 -0.2711 -0.2500 -0.2769
   51DOPE  H10R 6507   3.366   3.959  13.331  0.1729  1.0456  1.4798
   51DOPE  C211 6508   3.232   4.091  13.430  0.0911 -0.1193 -0.5163
   51DOPE  H11R 6509   3.129   4.129  13.415 -0.2685 -0.4160  1.0461
   51DOPE  H11S 6510   3.298   4.178  13.448  1.7492 -1.4340  0.0870
   51DOPE  C212 6511   3.233   3.997  13.548  0.1841 -0.0356  0.1174
   51DOPE  H12R 6512   3.334   3.955  13.565  0.8333  1.1017 -0.7937
   51DOPE  H12S 6513   3.162   3.914  13.525 -0.2240 -0.3032  2.1753
   51DOPE  C213 6514   3.196   4.064  13.680  0.1917  0.2195  0.1977
   51DOPE  H13R 6515   3.095   4.110  13.671  0.9720  1.9198 -0.3558
   51DOPE  H13S 6516   3.274   4.138  13.708  0.2810  1.1705 -2.3188
   51DOPE  C214 6517   3.189   3.967  13.798 -0.3935  0.8742  0.3709
   51DOPE  H14R 6518   3.281   3.905  13.807 -1.9085 -1.7015 -0.6906
   51DOPE  H14S 6519   3.116   3.887  13.770  0.2000  1.3077 -2.7857
   51DOPE  C215 6520   3.147   4.031  13.923  0.2113  0.2124 -0.6815
   51DOPE  H15R 6521   3.092   3.981  14.006 -1.2938  0.5789 -1.4050
   51DOPE  H15S 6522   3.082   4.118  13.898  0.1779  1.0041  1.8459
   51DOPE  C216 6523   3.273   4.092  13.994  0.2452  0.3429 -0.0000
   51DOPE  H16R 6524   3.324   4.158  13.921 -0.8151 -0.3093 -1.3790
   51DOPE  H16S 6525   3.345   4.013  14.024 -0.1877 -0.3095 -0.6225
   51DOPE  C217 6526   3.233   4.174  14.114  0.1498 -0.2576 -0.7327
   51DOPE  H17R 6527   3.168   4.104  14.171  0.7676  0.0846  0.4277
   51DOPE  H17S 6528   3.173   4.260  14.080 -0.6023 -0.0877  0.9240
   51DOPE  C218 6529   3.350   4.212  14.206 -0.8129 -0.9525 -0.0462
   51DOPE  H18R 6530   3.420   4.130  14.233  0.1261 -0.5879 -1.2250
   51DOPE  H18S 6531   3.315   4.270  14.293  0.9035 -0.1611  0.1634
   51DOPE  H18T 6532   3.409   4.280  14.140  0.2287 -0.6842  1.1089
   51DOPE   C33 6533   3.039   5.119  12.725  0.1013  0.5152  0.8773
   51DOPE   H3X 6534   3.136   5.128  12.671  0.5967 -1.5496  1.3350
   51DOPE   H3Y 6535   3.023   5.013  12.754 -1.4626  0.7937  1.1190
   51DOPE   C34 6536   3.048   5.188  12.862  0.0141 -0.5374 -0.0502
   51DOPE   H4X 6537   3.056   5.296  12.838 -0.0645 -0.5820 -0.2869
   51DOPE   H4Y 6538   2.957   5.170  12.923 -0.7392  0.4519 -0.8500
   51DOPE   C35 6539   3.177   5.152  12.946 -0.0683  0.0287 -0.5540
   51DOPE   H5X 6540   3.274   5.163  12.893  0.0275 -2.2815 -0.9335
   51DOPE   H5Y 6541   3.179   5.045  12.976  2.3991  0.6064  1.6538
   51DOPE   C36 6542   3.190   5.226  13.083 -0.0487 -0.5628 -0.2116
   51DOPE   H6X 6543   3.101   5.202  13.145  1.4718 -1.4905  1.7289
   51DOPE   H6Y 6544   3.186   5.335  13.064  1.1431 -0.3626  0.5978
   51DOPE   C37 6545   3.321   5.186  13.154 -0.3974 -0.8744 -0.0189
   51DOPE   H7X 6546   3.308   5.076  13.163  1.3509 -1.2597 -1.5332
   51DOPE   H7Y 6547   3.416   5.208  13.099 -0.5901 -0.4148 -0.1748
   51DOPE   C38 6548   3.346   5.241  13.292 -0.2083  0.1875  0.1612
   51DOPE   H8X 6549   3.426   5.180  13.340 -0.0530 -0.8361 -1.3183
   51DOPE   H8Y 6550   3.254   5.214  13.349  1.5545 -1.6604  2.3671
   51DOPE   C39 6551   3.373   5.395  13.293 -0.3866  0.4900 -0.0866
   51DOPE   H9X 6552   3.341   5.456  13.208 -1.0129 -1.1689 -1.0802
   51DOPE  C310 6553   3.424   5.453  13.402  0.5254  0.3111  0.0066
   51DOPE  H10X 6554   3.447   5.561  13.399 -1.9465  0.9096  0.1111
   51DOPE  C311 6555   3.471   5.386  13.533 -0.3717 -0.0400  0.1248
   51DOPE  H11X 6556   3.542   5.304  13.509  0.6478  0.7764  0.2979
   51DOPE  H11Y 6557   3.532   5.455  13.594 -0.9936 -0.5659  1.3710
   51DOPE  C312 6558   3.369   5.332  13.632  0.3439  0.4961  0.5869
   51DOPE  H12X 6559   3.425   5.263  13.698 -0.9390 -0.5824  0.5856
   51DOPE  H12Y 6560   3.285   5.272  13.590 -0.8186  0.1663  3.2013
   51DOPE  C313 6561   3.303   5.436  13.727  0.1782 -0.1696 -0.0596
   51DOPE  H13X 6562   3.379   5.493  13.784  0.1084 -0.5026  0.3622
   51DOPE  H13Y 6563   3.249   5.515  13.670  0.4815  1.3443  1.6530
   51DOPE  C314 6564   3.202   5.373  13.820  0.1364 -0.1593  0.1341
   51DOPE  H14X 6565   3.261   5.307  13.887 -0.6402 -0.9031  0.1047
   51DOPE  H14Y 6566   3.142   5.302  13.759  0.4844 -1.0341  0.7831
   51DOPE  C315 6567   3.094   5.466  13.881  0.3092 -0.2640 -0.1814
   51DOPE  H15X 6568   3.061   5.534  13.800 -0.0488 -1.1559 -0.7829
   51DOPE  H15Y 6569   3.135   5.536  13.958  0.9485  2.5915 -2.9302
   51DOPE  C316 6570   2.964   5.393  13.928 -0.2179 -0.5441 -0.1110
   51DOPE  H16X 6571   2.992   5.334  14.017 -1.3109 -1.8204 -0.5853
   51DOPE  H16Y 6572   2.939   5.326  13.843  0.9040 -0.4535 -0.5275
   51DOPE  C317 6573   2.839   5.483  13.955 -0.0234  0.3385 -0.3396
   51DOPE  H17X 6574   2.855   5.555  14.038  1.3909  0.6368 -0.8350
   51DOPE  H17Y 6575   2.820   5.546  13.866  1.2604 -0.8062 -1.4639
   51DOPE  C318 6576   2.714   5.394  13.978  0.2143 -0.2145  0.7703
   51DOPE  H18X 6577   2.703   5.315  13.900  0.6406 -1.5757  2.0448
   51DOPE  H18Y 6578   2.717   5.338  14.073 -2.5615 -1.4013  0.2773
   51DOPE  H18Z 6579   2.627   5.461  13.995  0.6710  0.8589 -0.8475
   52DOPE     N 6580   0.787   2.068  11.487 -0.4025 -0.1468  0.6307
   52DOPE   HN1 6581   0.863   2.088  11.419  0.4072 -1.4165  1.1312
   52DOPE   HN2 6582   0.839   2.035  11.570  3.6373  0.5611 -1.3987
   52DOPE   HN3 6583   0.748   1.979  11.450  0.7031  0.1446 -1.3958
   52DOPE   C12 6584   0.691   2.181  11.498  0.2196  0.7902 -0.1748
   52DOPE  H12A 6585   0.644   2.200  11.399  0.4082 -1.3527 -0.7226
   52DOPE  H12B 6586   0.748   2.264  11.544  1.1964  0.1115 -0.1289
   52DOPE   C11 6587   0.577   2.135  11.591  0.8848  0.3932 -0.0990
   52DOPE  H11A 6588   0.526   2.044  11.552 -1.2781  1.0043  1.1130
   52DOPE  H11B 6589   0.499   2.214  11.589 -0.2160 -0.6628 -1.4843
   52DOPE     P 6590   0.521   2.005  11.817  0.2662 -0.1190  0.4922
   52DOPE   O13 6591   0.573   1.991  11.953 -0.0183  0.2171  0.9168
   52DOPE   O14 6592   0.512   1.875  11.745 -0.2808 -0.4888 -0.0962
   52DOPE   O11 6593   0.376   2.067  11.823  0.1905  0.0083 -0.0094
   52DOPE   O12 6594   0.615   2.096  11.727 -0.1192  0.0750 -0.4391
   52DOPE    C1 6595   0.355   2.191  11.893  0.3029 -0.6929 -0.1623
   52DOPE    HA 6596   0.262   2.240  11.857  1.3761  0.1992 -1.8859
   52DOPE    HB 6597   0.442   2.259  11.883  0.2025 -0.6895 -1.0760
   52DOPE    C2 6598   0.326   2.165  12.044  0.5126 -0.9566  0.1275
   52DOPE    HS 6599   0.419   2.127  12.090  0.6834  0.9312  1.4524
   52DOPE   O21 6600   0.216   2.074  12.051  0.0039  0.3568 -0.0711
   52DOPE   C21 6601   0.239   1.964  12.119 -0.1993 -0.0246 -0.2011
   52DOPE   O22 6602   0.344   1.923  12.161 -0.2311  0.3632  0.0684
   52DOPE   C22 6603   0.109   1.880  12.108  0.4002 -0.9468 -0.3522
   52DOPE   H2R 6604   0.125   1.772  12.125 -3.6905 -1.5991  0.2449
   52DOPE   H2S 6605   0.061   1.898  12.010 -0.1841 -0.4812  0.0105
   52DOPE    C3 6606   0.294   2.297  12.114  0.0356 -1.0983 -0.5469
   52DOPE    HX 6607   0.201   2.335  12.067 -0.2851 -0.7148  0.3757
   52DOPE    HY 6608   0.376   2.368  12.089  0.0570 -1.9471 -3.2809
   52DOPE   O31 6609   0.267   2.288  12.260 -0.4715  0.8029 -0.4082
   52DOPE   C31 6610   0.378   2.275  12.329  0.1072  0.5918  0.2118
   52DOPE   O32 6611   0.490   2.271  12.279 -0.2172 -0.5870  0.0419
   52DOPE   C32 6612   0.339   2.265  12.477 -0.4755  0.0814 -0.3791
   52DOPE   H2X 6613   0.237   2.306  12.490 -0.9341 -1.5598  1.7637
   52DOPE   H2Y 6614   0.329   2.156  12.495  0.5981 -0.4471 -2.6767
   52DOPE   C23 6615   0.000   1.917  12.218  0.2742  0.1820  0.9401
   52DOPE   H3R 6616  -0.096   1.864  12.199 -0.4511  1.1262  1.8485
   52DOPE   H3S 6617  -0.013   2.028  12.210  1.8408  0.3339 -0.0352
   52DOPE   C24 6618   0.067   1.876  12.350 -0.3653  0.6961  0.0067
   52DOPE   H4R 6619   0.150   1.945  12.379  1.6609 -1.5788 -0.0141
   52DOPE   H4S 6620   0.103   1.771  12.355 -0.0638  0.7947 -0.0244
   52DOPE   C25 6621  -0.027   1.894  12.464 -0.2012 -0.6688  0.6035
   52DOPE   H5R 6622  -0.118   1.842  12.425  0.6972 -1.5556 -0.3971
   52DOPE   H5S 6623  -0.056   2.000  12.477 -0.8200 -0.8218  0.5361
   52DOPE   C26 6624   0.005   1.824  12.595 -0.2193 -0.0803  0.0971
   52DOPE   H6R 6625   0.058   1.730  12.569 -1.1789 -0.4360 -0.6128
   52DOPE   H6S 6626  -0.088   1.800  12.651  1.3924 -0.5217  2.7279
   52DOPE   C27 6627   0.094   1.914  12.684  0.0474  0.6269 -0.1460
   52DOPE   H7R 6628   0.032   2.003  12.711 -1.2720  0.4637 -2.3962
   52DOPE   H7S 6629   0.177   1.954  12.623 -1.9101  1.2858 -2.5234
   52DOPE   C28 6630   0.152   1.850  12.809 -0.3677  0.0651  0.1739
   52DOPE   H8R 6631   0.229   1.921  12.849 -2.0532  1.3204  1.3285
   52DOPE   H8S 6632   0.197   1.750  12.790 -1.4032 -0.2843 -0.5015
   52DOPE   C29 6633   0.047   1.832  12.920  0.6827  0.0621 -0.4524
   52DOPE   H9R 6634  -0.050   1.793  12.887  0.0785  0.8063  0.4020
   52DOPE  C210 6635   0.059   1.876  13.043 -0.2708  0.8018 -1.0616
   52DOPE  H10R 6636  -0.021   1.880  13.118 -1.0374 -1.7157 -1.6611
   52DOPE  C211 6637   0.184   1.939  13.098 -0.3107 -0.2366 -0.2908
   52DOPE  H11R 6638   0.200   2.036  13.048 -0.4324 -0.8834 -1.6198
   52DOPE  H11S 6639   0.275   1.879  13.075 -0.5947 -0.4446 -0.8819
   52DOPE  C212 6640   0.186   1.977  13.254  0.5803  0.6193  0.5831
   52DOPE  H12R 6641   0.094   2.040  13.259  0.5624  0.6463  0.0417
   52DOPE  H12S 6642   0.269   2.050  13.264  3.3009 -1.7550 -2.5293
   52DOPE  C213 6643   0.206   1.861  13.346  0.2557 -0.4477  0.2102
   52DOPE  H13R 6644   0.299   1.804  13.326 -2.1531 -4.2400 -1.3867
   52DOPE  H13S 6645   0.130   1.783  13.327  1.0234 -0.7188 -1.9667
   52DOPE  C214 6646   0.200   1.919  13.492  0.4109  0.5999  0.4676
   52DOPE  H14R 6647   0.099   1.957  13.518 -0.4148  0.1157 -1.7886
   52DOPE  H14S 6648   0.274   2.002  13.496  1.8143 -0.5792 -0.1843
   52DOPE  C215 6649   0.241   1.814  13.595 -0.5625 -1.0776 -0.3972
   52DOPE  H15R 6650   0.239   1.854  13.699 -1.4998 -2.4431  0.1403
   52DOPE  H15S 6651   0.344   1.783  13.565  0.4922  2.2118 -0.5471
   52DOPE  C216 6652   0.150   1.686  13.594 -0.2527 -0.2518  0.0839
   52DOPE  H16R 6653   0.167   1.643  13.493  1.6297 -0.5763  0.4938
   52DOPE  H16S 6654   0.045   1.721  13.601  0.1699  1.0244  0.3277
   52DOPE  C217 6655   0.203   1.573  13.684  0.4790  0.3444  0.3040
   52DOPE  H17R 6656   0.313   1.571  13.670  0.7560 -2.9341  1.8854
   52DOPE  H17S 6657   0.161   1.472  13.666  1.4095 -0.5541  2.7402
   52DOPE  C218 6658   0.179   1.570  13.835 -1.1852 -0.6516 -0.8747
   52DOPE  H18R 6659   0.217   1.663  13.881  0.9624 -0.8287 -2.1401
   52DOPE  H18S 6660   0.070   1.571  13.859 -1.0688 -0.3425 -0.3560
   52DOPE  H18T 6661   0.219   1.478  13.882 -1.3750 -0.3500 -0.1099
   52DOPE   C33 6662   0.440   2.321  12.586  0.4799 -0.0329  0.2363
   52DOPE   H3X 6663   0.461   2.423  12.549 -0.1217 -0.7965 -2.4965
   52DOPE   H3Y 6664   0.535   2.265  12.574 -1.1422 -2.8685 -0.3408
   52DOPE   C34 6665   0.378   2.320  12.733  0.6174  0.0137  0.6540
   52DOPE   H4X 6666   0.279   2.370  12.726  1.2369  1.4042  1.5141
   52DOPE   H4Y 6667   0.349   2.216  12.762  2.8091 -0.4785  1.2396
   52DOPE   C35 6668   0.458   2.391  12.847 -0.2443 -0.2110  0.4125
   52DOPE   H5X 6669   0.469   2.495  12.810  2.8318 -0.0823  1.3884
   52DOPE   H5Y 6670   0.561   2.351  12.850  0.2225  0.6938 -1.4892
   52DOPE   C36 6671   0.386   2.378  12.984  0.2362  0.9635 -0.6259
   52DOPE   H6X 6672   0.386   2.271  13.014 -0.5109  1.2445  0.4424
   52DOPE   H6Y 6673   0.278   2.403  12.975 -0.0308  0.2050  0.3469
   52DOPE   C37 6674   0.459   2.463  13.082 -0.8221 -0.9455  0.1933
   52DOPE   H7X 6675   0.567   2.438  13.081 -0.2357  1.3053 -0.4063
   52DOPE   H7Y 6676   0.453   2.572  13.056  0.3654 -0.8460  0.2768
   52DOPE   C38 6677   0.419   2.460  13.229  0.0717 -0.0238 -0.0965
   52DOPE   H8X 6678   0.312   2.489  13.230 -0.1209 -0.7113 -0.2820
   52DOPE   H8Y 6679   0.477   2.538  13.282  0.2425 -0.4588  0.3604
   52DOPE   C39 6680   0.436   2.329  13.301  0.5210  0.0438  0.3281
   52DOPE   H9X 6681   0.380   2.245  13.257  1.9708 -0.8797  0.1895
   52DOPE  C310 6682   0.508   2.298  13.411 -0.6926 -0.5482  0.6112
   52DOPE  H10X 6683   0.506   2.197  13.453  0.6347 -0.0227  2.0698
   52DOPE  C311 6684   0.597   2.387  13.493 -0.2065 -0.4926 -0.1613
   52DOPE  H11X 6685   0.701   2.384  13.455  0.1905  2.3612  0.4681
   52DOPE  H11Y 6686   0.553   2.488  13.477 -1.3845 -0.9663 -0.0050
   52DOPE  C312 6687   0.598   2.347  13.641  0.8477  0.1026  0.2395
   52DOPE  H12X 6688   0.620   2.238  13.641  0.5746  0.0483  0.6120
   52DOPE  H12Y 6689   0.498   2.364  13.686 -0.0117 -5.1076  0.9010
   52DOPE  C313 6690   0.705   2.426  13.725 -0.1130  0.8070 -0.2222
   52DOPE  H13X 6691   0.805   2.397  13.686  0.1630  2.8081 -1.1028
   52DOPE  H13Y 6692   0.683   2.533  13.709 -2.1406  0.6404  1.0742
   52DOPE  C314 6693   0.690   2.401  13.871  0.7728 -0.2366 -0.1772
   52DOPE  H14X 6694   0.720   2.300  13.906 -2.4725 -0.9174  0.9192
   52DOPE  H14Y 6695   0.583   2.404  13.900  1.0594 -0.4106  0.9575
   52DOPE  C315 6696   0.764   2.505  13.959 -0.3959 -0.4887 -0.5763
   52DOPE  H15X 6697   0.738   2.607  13.923 -0.3157 -0.3207 -0.1633
   52DOPE  H15Y 6698   0.874   2.492  13.962 -0.2240  0.6756 -0.9880
   52DOPE  C316 6699   0.710   2.489  14.102 -0.5007 -0.4798 -0.4361
   52DOPE  H16X 6700   0.741   2.391  14.145  1.1888  0.1509 -0.1426
   52DOPE  H16Y 6701   0.599   2.495  14.106 -0.4056  1.8823  0.4839
   52DOPE  C317 6702   0.766   2.592  14.199 -0.1235  0.2082  0.0837
   52DOPE  H17X 6703   0.771   2.685  14.139 -3.8500  1.0278  0.7402
   52DOPE  H17Y 6704   0.690   2.613  14.277 -1.4328 -0.9104 -0.8271
   52DOPE  C318 6705   0.899   2.566  14.250  0.1962  0.6733 -0.1181
   52DOPE  H18X 6706   0.971   2.550  14.166 -0.7950 -2.5541 -0.5187
   52DOPE  H18Y 6707   0.940   2.653  14.304 -0.1551  0.4513  0.5148
   52DOPE  H18Z 6708   0.901   2.469  14.305  0.2157  0.9285  0.3322
   53DOPE     N 6709   4.640   4.935  12.119 -0.2863 -0.3156  0.2395
   53DOPE   HN1 6710   4.654   5.012  12.188  1.9312 -1.7061  1.4574
   53DOPE   HN2 6711   4.677   4.962  12.026  1.4714 -1.1086  0.6625
   53DOPE   HN3 6712   4.537   4.922  12.109 -0.2865  0.0315 -0.2085
   53DOPE   C12 6713   4.693   4.801  12.162 -0.7850 -0.0578 -0.1701
   53DOPE  H12A 6714   4.797   4.825  12.195 -1.3943  0.2754  1.6460
   53DOPE  H12B 6715   4.689   4.729  12.078 -2.5757 -0.4796  0.2313
   53DOPE   C11 6716   4.610   4.747  12.282  0.6614  0.8620  0.2945
   53DOPE  H11A 6717   4.610   4.805  12.376 -0.6360  0.6790  0.4331
   53DOPE  H11B 6718   4.651   4.646  12.300  1.0382  1.1363  1.0168
   53DOPE     P 6719   4.406   4.606  12.163  0.1442  0.0964  0.1730
   53DOPE   O13 6720   4.509   4.518  12.101 -0.1643  0.4472  0.4240
   53DOPE   O14 6721   4.294   4.648  12.075 -0.0220 -0.3512  0.7799
   53DOPE   O11 6722   4.353   4.546  12.297  0.2763  0.7377  0.3334
   53DOPE   O12 6723   4.474   4.733  12.227  0.4009  0.1282 -0.4642
   53DOPE    C1 6724   4.244   4.605  12.374  0.0401 -0.3534  0.5513
   53DOPE    HA 6725   4.188   4.525  12.427 -0.7789 -0.8593 -1.0014
   53DOPE    HB 6726   4.173   4.644  12.298  0.4841 -2.5234 -1.0613
   53DOPE    C2 6727   4.289   4.710  12.482  0.0175 -0.2118  0.0739
   53DOPE    HS 6728   4.339   4.784  12.416  1.5867  0.5482  2.0286
   53DOPE   O21 6729   4.367   4.654  12.589  0.0211  0.0851 -0.4451
   53DOPE   C21 6730   4.451   4.740  12.642  0.4661 -0.3578  0.1525
   53DOPE   O22 6731   4.475   4.855  12.612 -0.0319  0.0319 -0.3189
   53DOPE   C22 6732   4.504   4.676  12.770  0.3017 -0.3567 -0.2865
   53DOPE   H2R 6733   4.570   4.588  12.754 -0.5472 -0.9023 -0.8582
   53DOPE   H2S 6734   4.420   4.637  12.832  0.4892  0.1980  0.3285
   53DOPE    C3 6735   4.164   4.772  12.546  0.5843 -0.3963  0.7982
   53DOPE    HX 6736   4.109   4.704  12.614 -0.1400 -1.5215 -0.8654
   53DOPE    HY 6737   4.104   4.785  12.453 -0.1561 -2.2207  0.9917
   53DOPE   O31 6738   4.190   4.910  12.600  0.1201 -0.6044  0.0918
   53DOPE   C31 6739   4.187   4.924  12.733 -0.2311  0.0514  0.0868
   53DOPE   O32 6740   4.180   4.826  12.811 -0.0747 -0.3053 -0.1927
   53DOPE   C32 6741   4.208   5.071  12.785  0.2720 -0.0546 -0.5936
   53DOPE   H2X 6742   4.313   5.095  12.759  0.8826 -2.7247 -0.9703
   53DOPE   H2Y 6743   4.136   5.126  12.721  0.3190 -0.6583 -1.1770
   53DOPE   C23 6744   4.580   4.776  12.866  0.3297 -0.3687 -0.2507
   53DOPE   H3R 6745   4.511   4.863  12.873 -1.6936 -1.7065 -2.1104
   53DOPE   H3S 6746   4.679   4.806  12.825  1.0826 -2.1890  0.1204
   53DOPE   C24 6747   4.603   4.705  12.999  0.3669  0.4025  0.1224
   53DOPE   H4R 6748   4.677   4.622  12.999 -0.1342 -0.0951  1.9920
   53DOPE   H4S 6749   4.511   4.650  13.028  0.5987  0.4902  1.0462
   53DOPE   C25 6750   4.646   4.803  13.107  0.3864  0.2421  0.3901
   53DOPE   H5R 6751   4.556   4.865  13.128 -0.9112 -1.7034  0.7571
   53DOPE   H5S 6752   4.725   4.869  13.066 -0.8101  2.2828  1.2001
   53DOPE   C26 6753   4.701   4.744  13.236  0.2038  0.6213 -0.7532
   53DOPE   H6R 6754   4.787   4.673  13.227  0.1736  0.5436 -0.4339
   53DOPE   H6S 6755   4.620   4.677  13.272  1.5170 -0.8669 -0.4634
   53DOPE   C27 6756   4.738   4.844  13.336  0.2557 -1.3234 -0.1794
   53DOPE   H7R 6757   4.656   4.918  13.331  0.3221 -1.3107 -1.4512
   53DOPE   H7S 6758   4.830   4.891  13.296 -1.1627  1.4178 -0.4283
   53DOPE   C28 6759   4.747   4.803  13.488 -0.1067  0.0256  0.4383
   53DOPE   H8R 6760   4.794   4.888  13.543  1.4363  0.4337 -1.4181
   53DOPE   H8S 6761   4.814   4.716  13.506 -0.4077 -0.2267  0.3500
   53DOPE   C29 6762   4.616   4.771  13.557  0.0953 -0.2056  0.0920
   53DOPE   H9R 6763   4.529   4.793  13.493 -0.0990  0.4157  0.5621
   53DOPE  C210 6764   4.600   4.741  13.683 -0.2585 -0.3365 -0.4922
   53DOPE  H10R 6765   4.500   4.743  13.730  0.0359  1.2786  0.1487
   53DOPE  C211 6766   4.709   4.725  13.783  0.1592  0.0634 -0.7013
   53DOPE  H11R 6767   4.794   4.795  13.772  2.1426 -1.9881  0.4688
   53DOPE  H11S 6768   4.749   4.621  13.783  1.1567  0.4406 -0.9103
   53DOPE  C212 6769   4.647   4.749  13.931 -0.4972 -0.6426  0.4821
   53DOPE  H12R 6770   4.564   4.675  13.945  0.3047 -1.4374  1.1335
   53DOPE  H12S 6771   4.607   4.852  13.933 -1.9423 -1.1828  0.9773
   53DOPE  C213 6772   4.755   4.736  14.030  0.3505 -0.0148  0.2409
   53DOPE  H13R 6773   4.707   4.774  14.122 -1.7127 -2.0588  0.1080
   53DOPE  H13S 6774   4.833   4.811  14.009 -0.3623  0.4201 -0.9480
   53DOPE  C214 6775   4.807   4.590  14.060  0.2661  0.0518  0.9146
   53DOPE  H14R 6776   4.857   4.535  13.976 -1.0671 -2.6408  1.7597
   53DOPE  H14S 6777   4.723   4.520  14.082 -1.1357  1.4976  0.3350
   53DOPE  C215 6778   4.906   4.576  14.176  0.2619 -0.2087 -0.3501
   53DOPE  H15R 6779   4.912   4.467  14.193 -2.5307 -0.2620  0.9281
   53DOPE  H15S 6780   4.863   4.624  14.267 -1.0898 -0.8950 -0.6008
   53DOPE  C216 6781   5.049   4.639  14.151  0.5226  0.1683 -0.5590
   53DOPE  H16R 6782   5.036   4.748  14.135 -1.6364  0.1348  0.5801
   53DOPE  H16S 6783   5.085   4.607  14.051 -1.7631  1.2788 -1.8176
   53DOPE  C217 6784   5.156   4.598  14.250  0.0881  0.3313 -0.2285
   53DOPE  H17R 6785   5.174   4.489  14.240  1.6205  0.4391  1.1143
   53DOPE  H17S 6786   5.119   4.598  14.355 -1.2503  1.8128 -0.6439
   53DOPE  C218 6787   5.289   4.674  14.235 -0.2737 -0.0002 -0.4256
   53DOPE  H18R 6788   5.296   4.768  14.294  1.4922  0.6622 -1.6002
   53DOPE  H18S 6789   5.309   4.690  14.127  2.3281 -1.7713 -0.2958
   53DOPE  H18T 6790   5.364   4.605  14.278  0.4776  2.6573  2.9736
   53DOPE   C33 6791   4.157   5.101  12.930 -0.1240  0.2207  0.1898
   53DOPE   H3X 6792   4.057   5.051  12.938 -1.2944  2.1345 -1.5574
   53DOPE   H3Y 6793   4.142   5.210  12.944  0.5956  0.4566 -0.8301
   53DOPE   C34 6794   4.263   5.044  13.032  0.1798 -0.4391  0.3289
   53DOPE   H4X 6795   4.280   4.939  13.001 -0.2285  0.0996 -1.9125
   53DOPE   H4Y 6796   4.353   5.108  13.026 -0.0289  0.1952  2.7995
   53DOPE   C35 6797   4.200   5.063  13.168  0.2099  0.6938 -0.4155
   53DOPE   H5X 6798   4.113   4.994  13.172  1.1659 -0.5029  0.7619
   53DOPE   H5Y 6799   4.163   5.167  13.181  0.1751  0.5730  0.5217
   53DOPE   C36 6800   4.296   5.043  13.291 -0.0990  0.5116  0.6696
   53DOPE   H6X 6801   4.360   5.131  13.315 -2.5518  2.4904  0.2871
   53DOPE   H6Y 6802   4.353   4.952  13.265 -0.3472  0.4870  0.2092
   53DOPE   C37 6803   4.197   5.015  13.406 -0.4343  0.2552  0.3003
   53DOPE   H7X 6804   4.123   5.096  13.427  0.1517  1.1567 -0.9646
   53DOPE   H7Y 6805   4.133   4.932  13.368 -0.8093  0.6178  0.1251
   53DOPE   C38 6806   4.257   4.947  13.536  0.6607 -0.3656  0.6222
   53DOPE   H8X 6807   4.320   4.860  13.508  0.6600  0.4675 -2.3637
   53DOPE   H8Y 6808   4.176   4.896  13.591 -0.0562 -0.0484 -0.1091
   53DOPE   C39 6809   4.339   5.058  13.600 -0.7475 -0.1550 -0.0834
   53DOPE   H9X 6810   4.443   5.061  13.567 -0.3624 -0.0494  1.0798
   53DOPE  C310 6811   4.303   5.138  13.693 -0.2724 -0.2246 -0.5517
   53DOPE  H10X 6812   4.376   5.214  13.726 -0.5779  0.7545 -2.0271
   53DOPE  C311 6813   4.172   5.140  13.764 -0.2551  0.4891 -0.5816
   53DOPE  H11X 6814   4.124   5.241  13.766 -0.5166  0.4280 -2.1878
   53DOPE  H11Y 6815   4.097   5.067  13.726  1.2733 -2.0110  0.9534
   53DOPE  C312 6816   4.192   5.097  13.917 -0.2006 -0.0827 -0.0006
   53DOPE  H12X 6817   4.095   5.124  13.963 -0.3041 -0.0113 -0.2576
   53DOPE  H12Y 6818   4.271   5.146  13.977  0.1695  1.0000 -1.3214
   53DOPE  C313 6819   4.211   4.941  13.941  0.4327  0.8336 -0.2405
   53DOPE  H13X 6820   4.130   4.880  13.895  0.2203  0.6270  0.3849
   53DOPE  H13Y 6821   4.299   4.908  13.882  0.9061 -2.8700  2.1481
   53DOPE  C314 6822   4.233   4.899  14.085 -0.1538  0.9045 -0.0348
   53DOPE  H14X 6823   4.139   4.918  14.140 -1.6839  0.0880 -2.1940
   53DOPE  H14Y 6824   4.319   4.961  14.118  3.1960 -3.2542 -0.0739
   53DOPE  C315 6825   4.258   4.746  14.083 -0.3462  0.4452  0.2335
   53DOPE  H15X 6826   4.343   4.737  14.013 -1.0389  0.0353 -0.5738
   53DOPE  H15Y 6827   4.179   4.683  14.037 -0.1945 -0.0495  0.6506
   53DOPE  C316 6828   4.320   4.703  14.218 -0.6178 -0.4376 -0.1331
   53DOPE  H16X 6829   4.237   4.707  14.292  0.1568 -2.8770  1.0029
   53DOPE  H16Y 6830   4.404   4.769  14.248  2.3384 -4.0191  0.2382
   53DOPE  C317 6831   4.371   4.561  14.203 -0.2668  0.2425 -0.4171
   53DOPE  H17X 6832   4.287   4.494  14.178 -0.2136 -0.5548  1.3993
   53DOPE  H17Y 6833   4.438   4.557  14.115  0.1372  3.4488 -0.3861
   53DOPE  C318 6834   4.447   4.517  14.330  0.3703  0.6331  0.0661
   53DOPE  H18X 6835   4.382   4.498  14.418 -0.3692  0.4442 -0.5121
   53DOPE  H18Y 6836   4.506   4.424  14.315  0.1407  0.2967  1.1460
   53DOPE  H18Z 6837   4.516   4.601  14.355 -1.2420  1.9494  0.2702
   54DOPE     N 6838   6.248   0.749  12.189  0.3537  0.1216  0.2957
   54DOPE   HN1 6839   6.184   0.831  12.193 -2.1103 -1.6809  0.1148
   54DOPE   HN2 6840   6.333   0.768  12.132 -0.2666  0.3406 -0.5757
   54DOPE   HN3 6841   6.202   0.672  12.137 -0.2806 -0.6277  1.9059
   54DOPE   C12 6842   6.279   0.689  12.320  0.3815  0.7130  0.1720
   54DOPE  H12A 6843   6.180   0.663  12.364  0.9658 -0.1678  0.9937
   54DOPE  H12B 6844   6.315   0.770  12.387  1.6164 -0.2223  0.6780
   54DOPE   C11 6845   6.369   0.571  12.310 -1.0563  0.1787 -0.1933
   54DOPE  H11A 6846   6.327   0.489  12.248  0.1568 -1.2235  0.7657
   54DOPE  H11B 6847   6.383   0.521  12.408 -1.8038  0.4004  0.0344
   54DOPE     P 6848   6.628   0.523  12.256  0.2240 -0.1298 -0.0474
   54DOPE   O13 6849   6.721   0.581  12.161  0.2512  0.5052  0.2197
   54DOPE   O14 6850   6.592   0.378  12.243 -0.2218  0.0944 -0.2766
   54DOPE   O11 6851   6.675   0.549  12.408  0.2243 -0.3156  0.1466
   54DOPE   O12 6852   6.493   0.605  12.247 -0.6579  0.6750  0.0056
   54DOPE    C1 6853   6.747   0.671  12.431  0.2868 -0.5724 -0.2409
   54DOPE    HA 6854   6.689   0.754  12.385 -0.9939 -1.7341 -0.8197
   54DOPE    HB 6855   6.849   0.664  12.388  0.2980 -0.3946 -0.2437
   54DOPE    C2 6856   6.759   0.696  12.586 -0.2341  0.1717 -0.1768
   54DOPE    HS 6857   6.657   0.690  12.629 -0.1740 -2.2051 -0.2609
   54DOPE   O21 6858   6.818   0.820  12.592  0.1416 -0.3590 -0.3823
   54DOPE   C21 6859   6.783   0.885  12.704  0.1952 -0.1036 -0.4479
   54DOPE   O22 6860   6.701   0.852  12.790 -0.3935 -0.8806  0.1312
   54DOPE   C22 6861   6.873   1.008  12.725 -0.4465 -0.5587 -0.9045
   54DOPE   H2R 6862   6.971   0.968  12.761 -0.5631 -0.2609 -0.2329
   54DOPE   H2S 6863   6.828   1.055  12.815  1.1746 -1.9756  0.7338
   54DOPE    C3 6864   6.847   0.583  12.658  0.2015  0.0698  0.2267
   54DOPE    HX 6865   6.936   0.580  12.592 -0.7524 -0.3877 -1.0778
   54DOPE    HY 6866   6.800   0.484  12.645  0.7964 -0.4309  1.6598
   54DOPE   O31 6867   6.885   0.609  12.790 -0.1373  0.3371  1.1704
   54DOPE   C31 6868   6.827   0.542  12.885  0.0460 -0.2316 -0.2551
   54DOPE   O32 6869   6.734   0.468  12.875  0.1899  0.2428  0.2507
   54DOPE   C32 6870   6.921   0.560  13.009  0.4220 -0.4639  0.2582
   54DOPE   H2X 6871   6.996   0.479  12.994  2.0046  1.2885 -2.0391
   54DOPE   H2Y 6872   6.981   0.652  12.995 -1.7414  0.7944 -1.4475
   54DOPE   C23 6873   6.907   1.111  12.613 -0.1371 -0.1388  0.1600
   54DOPE   H3R 6874   6.807   1.145  12.578 -0.7136 -0.8133  1.0960
   54DOPE   H3S 6875   6.950   1.045  12.535 -0.5315 -1.5881  1.1484
   54DOPE   C24 6876   7.011   1.220  12.659  0.4380  0.6167  0.5311
   54DOPE   H4R 6877   7.041   1.286  12.575  0.1132 -1.5380 -1.3788
   54DOPE   H4S 6878   7.100   1.161  12.691 -1.5072 -1.5731  2.2996
   54DOPE   C25 6879   6.957   1.309  12.767 -0.2362  0.2789  0.3148
   54DOPE   H5R 6880   6.939   1.251  12.861  2.9701  0.5868  1.2443
   54DOPE   H5S 6881   6.867   1.358  12.724 -0.4449 -0.3846 -0.0243
   54DOPE   C26 6882   7.056   1.420  12.813 -0.1409 -0.2903 -0.3007
   54DOPE   H6R 6883   7.049   1.495  12.731 -1.6316 -1.1371 -0.9897
   54DOPE   H6S 6884   7.156   1.371  12.810  0.3313  0.7132 -1.4175
   54DOPE   C27 6885   7.027   1.465  12.958 -0.3124  0.3868 -0.7237
   54DOPE   H7R 6886   7.005   1.374  13.018 -0.3971 -0.4102 -1.9300
   54DOPE   H7S 6887   6.927   1.514  12.956 -0.5150  0.0084 -0.0626
   54DOPE   C28 6888   7.149   1.544  13.009 -0.4538  0.1349  0.0283
   54DOPE   H8R 6889   7.161   1.632  12.942  1.4237 -0.4174 -0.4170
   54DOPE   H8S 6890   7.239   1.483  13.029 -1.2897 -1.4963 -0.9936
   54DOPE   C29 6891   7.129   1.590  13.144  0.2358 -0.4035 -0.7576
   54DOPE   H9R 6892   7.053   1.669  13.150 -0.5919 -1.1926 -0.6354
   54DOPE  C210 6893   7.203   1.566  13.254  0.5399 -0.4259  0.5631
   54DOPE  H10R 6894   7.170   1.626  13.341  0.0365  1.2854 -0.7410
   54DOPE  C211 6895   7.312   1.464  13.277  0.4874  0.1673  0.3049
   54DOPE  H11R 6896   7.403   1.493  13.220  0.6350 -1.1381 -0.1623
   54DOPE  H11S 6897   7.290   1.371  13.220 -0.5499  0.1384  0.7380
   54DOPE  C212 6898   7.351   1.421  13.416 -0.2223  0.0997  1.0177
   54DOPE  H12R 6899   7.387   1.512  13.469  1.7600  0.4134 -0.7301
   54DOPE  H12S 6900   7.441   1.357  13.402  0.8290  1.9682 -1.5074
   54DOPE  C213 6901   7.236   1.355  13.493 -0.1503 -0.2912  0.0342
   54DOPE  H13R 6902   7.221   1.263  13.433  0.4134  0.1188 -0.7634
   54DOPE  H13S 6903   7.143   1.415  13.480  1.6568  2.7049 -0.0384
   54DOPE  C214 6904   7.276   1.324  13.644 -0.4085 -0.5114  0.5330
   54DOPE  H14R 6905   7.275   1.422  13.698  1.2255  1.0723 -2.0627
   54DOPE  H14S 6906   7.385   1.305  13.648 -0.2093  0.6912  1.3977
   54DOPE  C215 6907   7.195   1.219  13.712  0.5928 -0.2708  0.3199
   54DOPE  H15R 6908   7.190   1.123  13.657  1.1126 -1.1603  1.7565
   54DOPE  H15S 6909   7.089   1.252  13.709  0.3439 -0.9410  1.2370
   54DOPE  C216 6910   7.239   1.194  13.854  0.3118  0.0841 -0.1796
   54DOPE  H16R 6911   7.350   1.191  13.864  0.1707 -0.1891  1.6605
   54DOPE  H16S 6912   7.209   1.092  13.886 -0.8342 -0.0643 -1.6329
   54DOPE  C217 6913   7.215   1.304  13.959 -0.1024 -0.6681 -0.1954
   54DOPE  H17R 6914   7.108   1.336  13.958 -0.4177 -1.5291 -2.8989
   54DOPE  H17S 6915   7.279   1.389  13.927 -0.3187 -0.7282 -0.8087
   54DOPE  C218 6916   7.245   1.267  14.104  0.4221  0.2988 -0.1679
   54DOPE  H18R 6917   7.349   1.232  14.122 -0.9712 -2.5775  3.4847
   54DOPE  H18S 6918   7.182   1.181  14.132  0.4794  0.5778  0.8621
   54DOPE  H18T 6919   7.228   1.352  14.173  1.1784 -0.1285  0.5642
   54DOPE   C33 6920   6.834   0.559  13.134 -0.5328  0.5958 -0.6829
   54DOPE   H3X 6921   6.762   0.475  13.146 -0.7128  0.9042  0.4697
   54DOPE   H3Y 6922   6.762   0.643  13.122 -0.4784  0.6281 -0.7907
   54DOPE   C34 6923   6.917   0.573  13.261  0.0013 -1.3297 -0.0863
   54DOPE   H4X 6924   6.993   0.492  13.261  0.7612 -0.7056  2.3194
   54DOPE   H4Y 6925   6.971   0.670  13.256  0.8681 -1.8626 -2.1827
   54DOPE   C35 6926   6.828   0.561  13.378  0.1099  0.7106  0.2420
   54DOPE   H5X 6927   6.804   0.454  13.392  0.8026  0.5148  0.0082
   54DOPE   H5Y 6928   6.729   0.605  13.354 -0.1671  0.6265  1.1934
   54DOPE   C36 6929   6.893   0.604  13.507 -0.9991 -0.0574  0.3457
   54DOPE   H6X 6930   6.949   0.699  13.492  0.9305 -1.3622 -1.1942
   54DOPE   H6Y 6931   6.975   0.535  13.538 -0.3072  0.1271 -0.9960
   54DOPE   C37 6932   6.786   0.609  13.623  0.4685 -0.4086 -0.5220
   54DOPE   H7X 6933   6.719   0.696  13.608  0.6669 -0.2021 -0.2328
   54DOPE   H7Y 6934   6.725   0.517  13.613 -2.0587  1.2738 -1.5705
   54DOPE   C38 6935   6.829   0.614  13.767 -0.7754 -0.6684 -0.2629
   54DOPE   H8X 6936   6.890   0.523  13.788  0.2463 -0.0218 -0.3278
   54DOPE   H8Y 6937   6.735   0.630  13.824 -0.6325 -0.3308 -0.1171
   54DOPE   C39 6938   6.930   0.725  13.761  0.1577  0.6828  0.0917
   54DOPE   H9X 6939   7.034   0.695  13.738  0.6972  0.2179  2.7804
   54DOPE  C310 6940   6.913   0.851  13.807  0.1085  0.3620  0.7728
   54DOPE  H10X 6941   7.000   0.918  13.799  0.2327  0.0091 -1.2949
   54DOPE  C311 6942   6.787   0.910  13.860  0.2664 -0.4235 -0.1132
   54DOPE  H11X 6943   6.767   1.012  13.821  0.2850 -0.4287 -0.1362
   54DOPE  H11Y 6944   6.700   0.847  13.832  0.3916 -0.8942  0.5347
   54DOPE  C312 6945   6.790   0.916  14.013 -0.2847 -0.2066  0.6186
   54DOPE  H12X 6946   6.703   0.976  14.048 -0.0295  0.0527  0.8109
   54DOPE  H12Y 6947   6.888   0.944  14.057  1.0147 -0.5298 -1.9002
   54DOPE  C313 6948   6.767   0.785  14.083 -0.2764 -0.3721  0.1750
   54DOPE  H13X 6949   6.672   0.735  14.053  0.3461 -1.4414 -0.0878
   54DOPE  H13Y 6950   6.840   0.713  14.041 -2.6700 -1.7230 -1.9733
   54DOPE  C314 6951   6.765   0.785  14.236  0.6478  0.0355  0.3753
   54DOPE  H14X 6952   6.690   0.710  14.268 -0.4181  0.8159 -0.2166
   54DOPE  H14Y 6953   6.719   0.880  14.270  0.5580  0.2318 -0.2859
   54DOPE  C315 6954   6.906   0.765  14.299 -0.6613  0.0160  0.5258
   54DOPE  H15X 6955   6.964   0.853  14.263 -1.8702  0.1415 -1.2473
   54DOPE  H15Y 6956   6.951   0.672  14.258  0.0903  1.2996 -1.7238
   54DOPE  C316 6957   6.900   0.755  14.460 -0.9364 -0.1341  0.9669
   54DOPE  H16X 6958   6.836   0.667  14.482  1.5196 -2.3006 -0.0593
   54DOPE  H16Y 6959   6.844   0.846  14.493 -1.0038  0.1280  0.1427
   54DOPE  C317 6960   7.038   0.731  14.527 -0.1376 -0.1469  0.2195
   54DOPE  H17X 6961   7.105   0.695  14.447 -0.1532 -1.6320  0.8443
   54DOPE  H17Y 6962   7.076   0.830  14.561  0.2789  0.1600 -1.1058
   54DOPE  C318 6963   7.049   0.632  14.641 -0.4275  0.1900 -0.7874
   54DOPE  H18X 6964   7.156   0.602  14.652 -0.3196  1.1845  1.1107
   54DOPE  H18Y 6965   7.000   0.667  14.734 -1.7300  1.8808 -2.0352
   54DOPE  H18Z 6966   7.008   0.531  14.617 -0.9015 -0.2115  1.5243
   55DOPE     N 6967   0.701   4.711  11.564 -0.1759  0.4823 -0.4112
   55DOPE   HN1 6968   0.703   4.805  11.520 -0.2261  0.9481  0.5655
   55DOPE   HN2 6969   0.794   4.672  11.541  0.2032  1.3850 -0.4310
   55DOPE   HN3 6970   0.625   4.663  11.511 -0.0760  3.2985 -3.4547
   55DOPE   C12 6971   0.665   4.706  11.711 -0.8158 -0.3617  0.0599
   55DOPE  H12A 6972   0.559   4.739  11.710 -1.4947 -2.3509 -0.6866
   55DOPE  H12B 6973   0.737   4.772  11.763 -0.1753 -0.6580 -0.4339
   55DOPE   C11 6974   0.681   4.567  11.764  0.8363 -0.2932  0.5101
   55DOPE  H11A 6975   0.667   4.556  11.874 -2.6569 -0.1607  0.1914
   55DOPE  H11B 6976   0.784   4.537  11.736  1.8749  2.0684  1.5924
   55DOPE     P 6977   0.447   4.447  11.699 -0.1138  0.3367  0.2433
   55DOPE   O13 6978   0.416   4.366  11.576 -0.5969 -0.2915  0.0258
   55DOPE   O14 6979   0.377   4.578  11.719  0.4337 -0.6279  0.4650
   55DOPE   O11 6980   0.448   4.361  11.835 -0.4071 -0.3696  0.2143
   55DOPE   O12 6981   0.591   4.489  11.690 -0.2111 -0.5783 -0.1342
   55DOPE    C1 6982   0.554   4.271  11.872  0.1850 -1.0183 -0.1134
   55DOPE    HA 6983   0.631   4.320  11.936 -0.5657  0.7074 -0.4900
   55DOPE    HB 6984   0.607   4.233  11.782  0.9191  1.8710 -0.9746
   55DOPE    C2 6985   0.484   4.146  11.938  0.1411 -0.0354 -0.5396
   55DOPE    HS 6986   0.436   4.087  11.857  5.1643 -4.1153 -1.0304
   55DOPE   O21 6987   0.396   4.197  12.039 -0.2473  0.4998  0.2604
   55DOPE   C21 6988   0.298   4.113  12.073 -0.2833  0.3558 -0.6853
   55DOPE   O22 6989   0.267   4.004  12.024 -0.0632  0.1733 -0.1026
   55DOPE   C22 6990   0.218   4.187  12.176  0.7335  0.7077 -0.6064
   55DOPE   H2R 6991   0.110   4.165  12.165  1.0807 -0.2623 -2.5835
   55DOPE   H2S 6992   0.224   4.298  12.167 -0.6930  0.7069 -1.8462
   55DOPE    C3 6993   0.578   4.049  12.004  0.3403 -0.4146  0.1793
   55DOPE    HX 6994   0.609   4.101  12.097 -1.2013  2.7523 -0.9291
   55DOPE    HY 6995   0.666   4.040  11.937  0.4422  1.8531 -0.0730
   55DOPE   O31 6996   0.516   3.924  12.028 -0.8344 -0.2979  0.3058
   55DOPE   C31 6997   0.520   3.864  12.147 -0.5861 -0.3713  0.3920
   55DOPE   O32 6998   0.573   3.902  12.249 -0.7964 -0.4100  0.6235
   55DOPE   C32 6999   0.432   3.733  12.142 -0.2042 -0.3991  0.1858
   55DOPE   H2X 7000   0.389   3.726  12.040  4.3188  0.2716 -2.0552
   55DOPE   H2Y 7001   0.494   3.646  12.171  0.0261  0.2455  1.7426
   55DOPE   C23 7002   0.279   4.154  12.315  0.0256  0.2720  0.0556
   55DOPE   H3R 7003   0.352   4.233  12.343  0.6629  0.1268 -1.1254
   55DOPE   H3S 7004   0.330   4.055  12.317  1.0460  0.7780 -0.1065
   55DOPE   C24 7005   0.166   4.133  12.413  0.4593 -0.1638  0.4569
   55DOPE   H4R 7006   0.112   4.039  12.392 -1.0317  0.7528 -0.0007
   55DOPE   H4S 7007   0.092   4.215  12.403  0.9457  0.3591  1.0408
   55DOPE   C25 7008   0.225   4.122  12.558 -0.1427 -0.2678  0.1098
   55DOPE   H5R 7009   0.270   4.223  12.572  3.0646 -1.2146 -2.1112
   55DOPE   H5S 7010   0.297   4.037  12.556  0.6800  0.4291 -0.3824
   55DOPE   C26 7011   0.121   4.095  12.666  0.5599 -0.0740  0.7879
   55DOPE   H6R 7012   0.090   3.988  12.658  0.8643 -0.3338  2.6817
   55DOPE   H6S 7013   0.043   4.173  12.673 -0.2148 -0.7424 -0.0621
   55DOPE   C27 7014   0.187   4.092  12.803  0.5975 -0.5751 -0.6479
   55DOPE   H7R 7015   0.229   4.194  12.812 -1.1149  0.2685 -1.6733
   55DOPE   H7S 7016   0.272   4.021  12.808  0.3494 -0.8518 -0.3535
   55DOPE   C28 7017   0.089   4.047  12.918 -0.4226  0.0902  0.3622
   55DOPE   H8R 7018   0.158   4.030  13.003  0.5155  2.7528  0.2416
   55DOPE   H8S 7019   0.060   3.942  12.898  0.3488 -0.1530  0.4821
   55DOPE   C29 7020  -0.021   4.144  12.954 -0.3587 -0.1745  0.5909
   55DOPE   H9R 7021  -0.081   4.179  12.868 -0.0090 -2.4538 -0.6458
   55DOPE  C210 7022  -0.021   4.211  13.069  0.6961 -0.6131  0.1915
   55DOPE  H10R 7023  -0.101   4.286  13.076  0.9576 -0.2515 -0.5872
   55DOPE  C211 7024   0.060   4.197  13.193 -0.3028  0.2835 -0.1182
   55DOPE  H11R 7025   0.155   4.254  13.190 -0.6687  0.9287  0.4036
   55DOPE  H11S 7026   0.084   4.088  13.199 -0.0386  0.4216  1.7277
   55DOPE  C212 7027  -0.031   4.232  13.317  0.5835 -0.3324  0.6447
   55DOPE  H12R 7028  -0.124   4.170  13.316 -0.1218  0.6877 -0.6038
   55DOPE  H12S 7029  -0.077   4.334  13.317 -2.6514 -1.6239  2.8768
   55DOPE  C213 7030   0.036   4.221  13.452 -0.4652  0.2881  0.5758
   55DOPE  H13R 7031   0.101   4.308  13.474  0.1735 -0.2656  0.9278
   55DOPE  H13S 7032   0.119   4.148  13.444  0.0402  0.9156  0.0834
   55DOPE  C214 7033  -0.057   4.181  13.564  0.3691  0.3362  0.0704
   55DOPE  H14R 7034  -0.135   4.114  13.523  0.6642  0.7383 -1.1949
   55DOPE  H14S 7035  -0.121   4.266  13.596 -3.6539 -1.2769 -2.8149
   55DOPE  C215 7036   0.008   4.089  13.668 -0.0378 -0.3887  0.8621
   55DOPE  H15R 7037   0.081   4.151  13.724 -0.2023  1.2737 -0.6915
   55DOPE  H15S 7038   0.062   4.003  13.622 -0.0453 -0.4000  0.8744
   55DOPE  C216 7039  -0.087   4.029  13.774  1.0960 -0.1529 -0.2321
   55DOPE  H16R 7040  -0.027   3.982  13.855 -1.0922  1.7624  2.6806
   55DOPE  H16S 7041  -0.161   3.955  13.735  1.0130 -0.5368  0.6483
   55DOPE  C217 7042  -0.162   4.132  13.853  0.2625 -0.0838  0.2805
   55DOPE  H17R 7043  -0.211   4.202  13.782  0.5754  1.8544  1.9028
   55DOPE  H17S 7044  -0.096   4.191  13.920  0.7102 -0.4768  0.1882
   55DOPE  C218 7045  -0.272   4.067  13.940  0.6166 -0.0253  0.0907
   55DOPE  H18R 7046  -0.236   3.988  14.008  1.5586  0.2634 -0.0684
   55DOPE  H18S 7047  -0.330   4.015  13.860 -0.2431 -1.6967  1.7316
   55DOPE  H18T 7048  -0.338   4.142  13.989  1.6610  1.3892 -0.5851
   55DOPE   C33 7049   0.312   3.728  12.245  0.1124 -0.4045  0.3357
   55DOPE   H3X 7050   0.257   3.635  12.218  1.2739 -0.0781 -3.9094
   55DOPE   H3Y 7051   0.244   3.814  12.229  1.7478  0.9228  0.3496
   55DOPE   C34 7052   0.355   3.711  12.386  0.5889  0.2269 -0.8552
   55DOPE   H4X 7053   0.425   3.625  12.395 -0.2625 -0.2341  2.7446
   55DOPE   H4Y 7054   0.415   3.802  12.407  1.6164 -0.7932  0.9498
   55DOPE   C35 7055   0.244   3.686  12.493  0.3329 -0.4904  0.2596
   55DOPE   H5X 7056   0.209   3.581  12.490 -0.3316 -0.2815  0.6805
   55DOPE   H5Y 7057   0.156   3.752  12.482  0.6733  0.0888  0.8991
   55DOPE   C36 7058   0.292   3.712  12.637 -0.0678 -0.4622  0.2005
   55DOPE   H6X 7059   0.327   3.818  12.640 -1.1806 -0.0990  0.6598
   55DOPE   H6Y 7060   0.390   3.661  12.650  0.5809  0.5659 -0.4916
   55DOPE   C37 7061   0.189   3.679  12.746 -0.4896  0.2170 -0.2595
   55DOPE   H7X 7062   0.085   3.713  12.727 -0.2744  0.5050 -0.9960
   55DOPE   H7Y 7063   0.179   3.570  12.728 -1.2882 -0.0782  1.7902
   55DOPE   C38 7064   0.243   3.716  12.890  0.0298 -0.1782 -0.1032
   55DOPE   H8X 7065   0.244   3.825  12.913 -2.7190 -0.1305  0.1151
   55DOPE   H8Y 7066   0.344   3.671  12.902  0.4224  0.6394 -0.2377
   55DOPE   C39 7067   0.140   3.656  12.975  0.0468 -0.3072 -0.0455
   55DOPE   H9X 7068   0.074   3.590  12.917  0.2329 -1.9804  1.5392
   55DOPE  C310 7069   0.127   3.665  13.107  0.1424  0.0211 -0.5072
   55DOPE  H10X 7070   0.048   3.619  13.168  0.6034  3.3800  3.0382
   55DOPE  C311 7071   0.222   3.745  13.197  0.4867  0.6750 -0.1499
   55DOPE  H11X 7072   0.325   3.746  13.156  1.2340 -0.2094  1.5749
   55DOPE  H11Y 7073   0.189   3.851  13.206  1.5467  0.9665  0.4477
   55DOPE  C312 7074   0.232   3.682  13.336 -0.4166 -0.0625  0.3684
   55DOPE  H12X 7075   0.257   3.574  13.330 -1.0556 -0.1682 -0.7023
   55DOPE  H12Y 7076   0.130   3.697  13.378 -0.3515  1.2531  0.0785
   55DOPE  C313 7077   0.329   3.754  13.427 -0.1215  0.4444 -0.3944
   55DOPE  H13X 7078   0.429   3.750  13.378 -0.6048 -0.7590 -1.3286
   55DOPE  H13Y 7079   0.302   3.860  13.445 -0.7375 -0.0982  2.2172
   55DOPE  C314 7080   0.345   3.685  13.560 -0.0344 -0.1028 -1.0937
   55DOPE  H14X 7081   0.404   3.592  13.548 -0.3804 -0.7034  1.2934
   55DOPE  H14Y 7082   0.242   3.665  13.597  0.2273 -2.0548 -1.3063
   55DOPE  C315 7083   0.418   3.763  13.669  0.4671 -0.8706  0.1223
   55DOPE  H15X 7084   0.348   3.837  13.715  0.6840 -1.5967  1.6673
   55DOPE  H15Y 7085   0.503   3.814  13.619 -0.3707 -0.3332 -0.7797
   55DOPE  C316 7086   0.451   3.684  13.796 -0.1667 -0.6821  0.1734
   55DOPE  H16X 7087   0.476   3.757  13.877  1.9454  1.6243 -2.3474
   55DOPE  H16Y 7088   0.539   3.618  13.780  1.6086  1.8942 -1.5549
   55DOPE  C317 7089   0.336   3.590  13.837 -0.2631 -0.7527  0.1117
   55DOPE  H17X 7090   0.243   3.645  13.862 -1.5341 -2.8702  0.2668
   55DOPE  H17Y 7091   0.305   3.525  13.752  0.5129 -2.4195  1.0447
   55DOPE  C318 7092   0.373   3.485  13.948 -0.2858 -0.5946 -0.0086
   55DOPE  H18X 7093   0.410   3.537  14.039  2.3758 -1.9308 -0.2516
   55DOPE  H18Y 7094   0.283   3.426  13.977  0.9232 -1.6391  1.8121
   55DOPE  H18Z 7095   0.449   3.414  13.910 -0.2047 -1.0145  0.9072
   56DOPE     N 7096   6.271   5.014  11.597  0.1805  0.4714 -0.1332
   56DOPE   HN1 7097   6.246   5.057  11.688  0.3775  0.3122 -0.0040
   56DOPE   HN2 7098   6.360   4.961  11.602 -0.6448 -1.3558 -2.6684
   56DOPE   HN3 7099   6.280   5.092  11.530 -0.8203  3.6932  3.1567
   56DOPE   C12 7100   6.161   4.915  11.553 -0.1318 -1.1310  0.2003
   56DOPE  H12A 7101   6.075   4.973  11.512 -0.1469  0.5728  2.4692
   56DOPE  H12B 7102   6.124   4.856  11.639 -0.3541  1.0398  1.6758
   56DOPE   C11 7103   6.225   4.823  11.449 -1.0079  0.2575 -0.7399
   56DOPE  H11A 7104   6.229   4.885  11.357  1.4394  0.2464 -0.7026
   56DOPE  H11B 7105   6.172   4.731  11.415  1.6403 -0.6579 -2.6468
   56DOPE     P 7106   6.382   4.662  11.578 -0.1201  0.3877  0.2099
   56DOPE   O13 7107   6.529   4.657  11.617 -0.4268 -0.2908  0.2383
   56DOPE   O14 7108   6.333   4.535  11.515 -0.0776 -0.1865 -0.5413
   56DOPE   O11 7109   6.294   4.698  11.705 -0.1556 -0.1446  0.4460
   56DOPE   O12 7110   6.353   4.786  11.485 -0.0555  0.1775 -0.0220
   56DOPE    C1 7111   6.344   4.772  11.812 -0.1546  0.4469 -0.3498
   56DOPE    HA 7112   6.261   4.828  11.860 -0.2041  1.3127 -1.4039
   56DOPE    HB 7113   6.415   4.853  11.784 -0.0882  0.5621  0.1437
   56DOPE    C2 7114   6.424   4.695  11.917  0.0179  0.6830  0.3971
   56DOPE    HS 7115   6.516   4.659  11.867 -0.1313  1.7094 -0.6406
   56DOPE   O21 7116   6.344   4.592  11.973 -0.1494 -0.1453 -0.3456
   56DOPE   C21 7117   6.376   4.472  11.932  0.0176  0.3029 -0.4885
   56DOPE   O22 7118   6.452   4.441  11.841 -0.0369  0.0752 -0.6727
   56DOPE   C22 7119   6.289   4.363  11.997 -0.1997 -0.5089 -0.7786
   56DOPE   H2R 7120   6.237   4.307  11.916 -0.7011  0.8189 -1.3919
   56DOPE   H2S 7121   6.211   4.397  12.068  0.6240 -1.0487  0.4190
   56DOPE    C3 7122   6.479   4.792  12.026 -0.1013  0.3849  0.1908
   56DOPE    HX 7123   6.389   4.819  12.085 -0.8388 -4.4538  1.7197
   56DOPE    HY 7124   6.524   4.873  11.965  1.3270 -0.2285  0.3948
   56DOPE   O31 7125   6.563   4.721  12.117 -0.7642  0.2798 -0.3609
   56DOPE   C31 7126   6.683   4.764  12.135  0.6864 -0.3605  0.4643
   56DOPE   O32 7127   6.728   4.863  12.077  0.3673  0.1900  0.5188
   56DOPE   C32 7128   6.746   4.675  12.237  0.0680 -0.0917  0.3591
   56DOPE   H2X 7129   6.674   4.672  12.322  0.6272 -1.2678  0.8133
   56DOPE   H2Y 7130   6.763   4.576  12.189  2.2548  0.0260  0.8031
   56DOPE   C23 7131   6.366   4.251  12.066 -0.3547 -0.0390 -0.2191
   56DOPE   H3R 7132   6.453   4.226  12.001 -0.0869 -0.3782  0.2568
   56DOPE   H3S 7133   6.308   4.157  12.062  2.6273 -2.0845  0.8316
   56DOPE   C24 7134   6.388   4.280  12.221 -0.0675  0.2824  0.8658
   56DOPE   H4R 7135   6.424   4.186  12.269 -0.8067 -0.0931  0.7012
   56DOPE   H4S 7136   6.296   4.311  12.274 -0.9218 -1.3055  0.3814
   56DOPE   C25 7137   6.507   4.378  12.242 -0.1610  0.3198 -0.3473
   56DOPE   H5R 7138   6.473   4.475  12.199  1.7560  0.6094 -1.3243
   56DOPE   H5S 7139   6.596   4.350  12.181  0.3693 -1.7912  1.2924
   56DOPE   C26 7140   6.540   4.386  12.394  0.3759  0.0727  0.1410
   56DOPE   H6R 7141   6.630   4.450  12.401  1.0078 -0.5341 -1.7522
   56DOPE   H6S 7142   6.566   4.281  12.420 -0.4234 -0.2663 -0.3607
   56DOPE   C27 7143   6.426   4.453  12.471 -1.1408 -0.7178 -0.0935
   56DOPE   H7R 7144   6.338   4.385  12.467  0.1037 -2.5546  1.8520
   56DOPE   H7S 7145   6.399   4.549  12.422  0.0901 -0.9757 -1.3352
   56DOPE   C28 7146   6.461   4.491  12.616  0.1651 -0.3720 -0.1899
   56DOPE   H8R 7147   6.374   4.535  12.669 -1.9387 -2.7930 -1.4181
   56DOPE   H8S 7148   6.539   4.570  12.621  1.3615 -1.5308  0.1826
   56DOPE   C29 7149   6.501   4.363  12.681  0.2748  0.2465 -0.0402
   56DOPE   H9R 7150   6.607   4.338  12.667  1.2653  3.8575  0.0931
   56DOPE  C210 7151   6.420   4.295  12.766 -0.1688  0.7850 -0.0180
   56DOPE  H10R 7152   6.458   4.200  12.806 -2.0499 -0.8410 -1.8258
   56DOPE  C211 7153   6.278   4.318  12.795 -0.0434 -0.4498 -1.0198
   56DOPE  H11R 7154   6.226   4.299  12.699 -1.1279  3.0380 -1.2756
   56DOPE  H11S 7155   6.249   4.421  12.827  0.5833 -0.6155  0.1412
   56DOPE  C212 7156   6.220   4.234  12.910  0.0944  0.3414  0.7485
   56DOPE  H12R 7157   6.224   4.127  12.882  0.8809  0.4807  0.2867
   56DOPE  H12S 7158   6.114   4.249  12.938 -0.7393 -0.8973 -1.5084
   56DOPE  C213 7159   6.288   4.258  13.041 -0.3252 -0.7250  0.2161
   56DOPE  H13R 7160   6.309   4.367  13.040 -1.6724 -0.4545 -0.9419
   56DOPE  H13S 7161   6.389   4.212  13.036 -0.6650 -1.4461 -0.1847
   56DOPE  C214 7162   6.221   4.211  13.172  0.2649  0.3231  0.5081
   56DOPE  H14R 7163   6.208   4.101  13.163  0.2392  0.4411 -1.1658
   56DOPE  H14S 7164   6.121   4.258  13.177 -0.7745 -1.5622 -1.1821
   56DOPE  C215 7165   6.306   4.243  13.297 -0.2273 -0.3918  0.5376
   56DOPE  H15R 7166   6.339   4.348  13.286  0.1189 -0.5766 -0.3094
   56DOPE  H15S 7167   6.395   4.177  13.297  0.1380  0.0785 -0.5985
   56DOPE  C216 7168   6.217   4.229  13.420 -0.3348  0.0271 -0.0258
   56DOPE  H16R 7169   6.172   4.127  13.417 -2.3308  0.8516  0.4358
   56DOPE  H16S 7170   6.134   4.301  13.408 -0.5864  0.0890  1.7500
   56DOPE  C217 7171   6.293   4.266  13.549  0.6353  0.5406 -0.1961
   56DOPE  H17R 7172   6.314   4.373  13.571  0.2127  0.3162  1.4145
   56DOPE  H17S 7173   6.395   4.224  13.538 -0.4448 -2.0545 -1.0631
   56DOPE  C218 7174   6.215   4.216  13.668 -0.4247  1.0606  0.7563
   56DOPE  H18R 7175   6.127   4.283  13.678  0.3179  2.0050  1.0591
   56DOPE  H18S 7176   6.268   4.206  13.765  0.3785  0.4916  0.2820
   56DOPE  H18T 7177   6.177   4.112  13.657 -0.3957  0.9371  1.7678
   56DOPE   C33 7178   6.881   4.729  12.299 -0.4718  0.0557  0.1825
   56DOPE   H3X 7179   6.875   4.828  12.348  1.0028 -0.8249  2.3294
   56DOPE   H3Y 7180   6.942   4.739  12.206  0.5112  1.7788  0.9640
   56DOPE   C34 7181   6.941   4.629  12.411 -0.4262  0.4997  0.3806
   56DOPE   H4X 7182   6.960   4.535  12.356 -0.1429  2.2663 -2.7570
   56DOPE   H4Y 7183   7.041   4.665  12.443 -0.0939  0.6314 -0.7759
   56DOPE   C35 7184   6.850   4.623  12.531  0.1335  0.8244  0.6435
   56DOPE   H5X 7185   6.755   4.566  12.517 -0.7184  2.3152  0.1041
   56DOPE   H5Y 7186   6.811   4.726  12.544  0.2586  0.7787  1.4524
   56DOPE   C36 7187   6.916   4.569  12.650  0.1606 -0.0773  0.2021
   56DOPE   H6X 7188   7.013   4.615  12.679  0.4506 -0.2691 -0.4455
   56DOPE   H6Y 7189   6.937   4.460  12.647 -1.2139 -0.3440 -0.0729
   56DOPE   C37 7190   6.838   4.593  12.780 -0.0076  0.1188 -0.4601
   56DOPE   H7X 7191   6.862   4.693  12.823  0.0420  0.4042 -1.1360
   56DOPE   H7Y 7192   6.729   4.600  12.761 -0.2435  3.5292  1.3058
   56DOPE   C38 7193   6.850   4.477  12.878  0.5126 -1.0656  0.2865
   56DOPE   H8X 7194   6.824   4.376  12.837 -2.7880 -0.5148  0.7165
   56DOPE   H8Y 7195   6.776   4.504  12.956 -0.3109 -1.2367 -0.4126
   56DOPE   C39 7196   6.995   4.477  12.926 -0.0158  0.6593 -0.4865
   56DOPE   H9X 7197   7.070   4.444  12.853 -1.5100 -3.1778 -0.5161
   56DOPE  C310 7198   7.036   4.525  13.045 -0.3180 -0.0790  0.3506
   56DOPE  H10X 7199   7.145   4.514  13.059 -0.3024 -0.3064  0.0658
   56DOPE  C311 7200   6.949   4.570  13.160 -0.2094 -0.1193 -0.3752
   56DOPE  H11X 7201   6.935   4.680  13.155 -0.2113  0.0943  2.5687
   56DOPE  H11Y 7202   6.847   4.532  13.140  0.1005 -1.1696 -0.0472
   56DOPE  C312 7203   7.001   4.526  13.296  0.0922  0.7779 -0.3142
   56DOPE  H12X 7204   7.112   4.535  13.303  0.5925 -2.3264 -2.2824
   56DOPE  H12Y 7205   6.981   4.420  13.321  1.2645  0.5021 -0.4890
   56DOPE  C313 7206   6.948   4.614  13.422 -0.0063  0.1959  0.8220
   56DOPE  H13X 7207   6.959   4.720  13.389 -0.2591  0.0553  0.2738
   56DOPE  H13Y 7208   6.840   4.592  13.437 -0.5738 -1.2583 -3.7273
   56DOPE  C314 7209   7.029   4.594  13.544  0.3776  0.2249  0.1401
   56DOPE  H14X 7210   7.123   4.648  13.521  0.0671  1.4023  1.4991
   56DOPE  H14Y 7211   7.043   4.484  13.555  0.3192  0.1262 -0.6978
   56DOPE  C315 7212   6.954   4.644  13.670 -0.1666 -0.5458  0.4756
   56DOPE  H15X 7213   6.863   4.581  13.684 -0.7230  0.8671  4.3289
   56DOPE  H15Y 7214   6.905   4.742  13.656 -0.9783 -1.1017 -0.7495
   56DOPE  C316 7215   7.040   4.643  13.803  0.1486  0.0732  0.2092
   56DOPE  H16X 7216   7.098   4.737  13.810  0.1877  0.1146 -0.5680
   56DOPE  H16Y 7217   7.112   4.560  13.792 -1.6142 -1.4814 -0.0994
   56DOPE  C317 7218   6.941   4.612  13.921 -0.3004  0.5770  0.5797
   56DOPE  H17X 7219   6.863   4.689  13.902  0.1192  0.7912 -0.3702
   56DOPE  H17Y 7220   6.888   4.514  13.910 -0.6148  0.4171  3.0372
   56DOPE  C318 7221   6.996   4.625  14.064  0.2945 -0.5389 -0.6897
   56DOPE  H18X 7222   7.037   4.724  14.090  3.1650 -1.9664  0.7203
   56DOPE  H18Y 7223   6.916   4.607  14.138 -0.1135  2.2892 -0.3491
   56DOPE  H18Z 7224   7.091   4.567  14.071  2.0402  2.1138 -0.9448
   57DOPE     N 7225   1.003   0.474  12.794  0.0476  0.4724  0.1608
   57DOPE   HN1 7226   1.018   0.513  12.890 -1.9356  0.4700  0.5150
   57DOPE   HN2 7227   1.082   0.407  12.781  1.1235  1.4303  1.4162
   57DOPE   HN3 7228   1.013   0.556  12.732  0.1616  1.3592  1.3145
   57DOPE   C12 7229   0.873   0.404  12.775  0.9364 -0.0194  0.4564
   57DOPE  H12A 7230   0.793   0.455  12.833 -0.4513 -1.0875 -0.4381
   57DOPE  H12B 7231   0.897   0.303  12.813 -0.2608 -0.3035  0.5128
   57DOPE   C11 7232   0.833   0.395  12.626  0.1259 -0.5312  0.0559
   57DOPE  H11A 7233   0.728   0.360  12.615 -0.3746  1.2471 -1.2443
   57DOPE  H11B 7234   0.890   0.308  12.587 -1.5526 -0.9961 -1.5002
   57DOPE     P 7235   0.717   0.605  12.529  0.1804 -0.2269  0.1034
   57DOPE   O13 7236   0.604   0.521  12.488  0.1939  0.2870  0.6201
   57DOPE   O14 7237   0.740   0.730  12.452 -0.1913 -0.2640 -0.0866
   57DOPE   O11 7238   0.686   0.641  12.682 -0.4057  0.4111 -0.0037
   57DOPE   O12 7239   0.851   0.513  12.554 -0.2364  0.3126 -0.3411
   57DOPE    C1 7240   0.730   0.773  12.730  0.1769  0.4543  0.2347
   57DOPE    HA 7241   0.648   0.847  12.724 -0.8313 -0.5689  0.9195
   57DOPE    HB 7242   0.812   0.822  12.674  0.0004  0.7201  0.2097
   57DOPE    C2 7243   0.760   0.758  12.877  0.5651  0.4550 -0.2623
   57DOPE    HS 7244   0.833   0.675  12.882  0.7902  0.6118 -0.8477
   57DOPE   O21 7245   0.637   0.724  12.951  0.0081 -0.1549 -0.0575
   57DOPE   C21 7246   0.656   0.681  13.072  0.7309  1.1332 -0.4935
   57DOPE   O22 7247   0.769   0.657  13.119  0.7618 -0.0257 -0.3574
   57DOPE   C22 7248   0.528   0.678  13.152  0.0921 -0.1280  0.6624
   57DOPE   H2R 7249   0.462   0.611  13.093  0.4592 -0.4348  0.5973
   57DOPE   H2S 7250   0.469   0.773  13.151  2.3653  1.3654  1.0276
   57DOPE    C3 7251   0.833   0.887  12.940 -0.4737 -0.0208  0.1948
   57DOPE    HX 7252   0.925   0.893  12.878 -0.5488 -2.2008 -0.2121
   57DOPE    HY 7253   0.863   0.859  13.042  1.0492 -2.2279 -0.7891
   57DOPE   O31 7254   0.758   1.008  12.926  0.3513  0.7798  0.1017
   57DOPE   C31 7255   0.669   1.020  13.027 -0.1540  0.1357 -0.1307
   57DOPE   O32 7256   0.667   0.954  13.131  0.1980 -0.6577 -0.2492
   57DOPE   C32 7257   0.568   1.134  12.997 -0.2999  0.1007 -0.4980
   57DOPE   H2X 7258   0.623   1.231  12.999  1.3339 -0.7823 -0.2902
   57DOPE   H2Y 7259   0.543   1.127  12.889 -1.5340  1.0358 -0.2938
   57DOPE   C23 7260   0.529   0.618  13.297  0.9083 -0.4045 -0.6212
   57DOPE   H3R 7261   0.599   0.533  13.317 -0.3273 -0.6631  3.6483
   57DOPE   H3S 7262   0.436   0.564  13.324  0.7762  0.2948  0.3766
   57DOPE   C24 7263   0.536   0.717  13.411 -0.4718 -0.4772  0.1294
   57DOPE   H4R 7264   0.447   0.784  13.410  0.7286  1.2779  1.9331
   57DOPE   H4S 7265   0.633   0.772  13.402  0.7701 -2.7681 -1.3573
   57DOPE   C25 7266   0.547   0.642  13.541 -0.5758 -0.3039 -0.3002
   57DOPE   H5R 7267   0.627   0.566  13.528  0.3947  0.5475  0.5581
   57DOPE   H5S 7268   0.454   0.584  13.557  0.3263 -1.6256  0.3416
   57DOPE   C26 7269   0.575   0.733  13.664  0.0482  0.1755  0.1565
   57DOPE   H6R 7270   0.499   0.813  13.670 -1.2908 -0.8982 -1.5367
   57DOPE   H6S 7271   0.670   0.787  13.645  0.8463 -1.9346 -2.5733
   57DOPE   C27 7272   0.578   0.640  13.791  0.0144  0.4596  0.0230
   57DOPE   H7R 7273   0.676   0.589  13.805 -0.2575  0.0397  0.4598
   57DOPE   H7S 7274   0.494   0.569  13.775 -0.8193  1.9803 -2.9674
   57DOPE   C28 7275   0.536   0.708  13.918 -0.6823 -1.2446  0.1322
   57DOPE   H8R 7276   0.557   0.642  14.005  2.0458  0.6527  1.0726
   57DOPE   H8S 7277   0.428   0.731  13.912 -0.3645  1.1262  1.7589
   57DOPE   C29 7278   0.623   0.828  13.934  0.1307 -0.0747 -0.4973
   57DOPE   H9R 7279   0.599   0.918  13.876  1.2137 -0.2617 -1.2707
   57DOPE  C210 7280   0.734   0.837  13.997  0.9068  0.0738 -0.3344
   57DOPE  H10R 7281   0.767   0.938  14.022 -2.7298  1.2749  0.2430
   57DOPE  C211 7282   0.791   0.720  14.078 -0.7703 -0.1841  0.2646
   57DOPE  H11R 7283   0.902   0.724  14.085 -0.7598 -1.5378  1.5160
   57DOPE  H11S 7284   0.785   0.627  14.017 -1.0858 -0.3378  0.5227
   57DOPE  C212 7285   0.749   0.683  14.222  0.0497 -0.0827 -0.4072
   57DOPE  H12R 7286   0.825   0.612  14.261  0.8795  0.4819 -0.9710
   57DOPE  H12S 7287   0.652   0.630  14.221 -0.1046  0.2008 -0.4541
   57DOPE  C213 7288   0.745   0.802  14.321  0.1929 -0.1124 -1.3161
   57DOPE  H13R 7289   0.833   0.868  14.317  0.0171  0.5273  2.1031
   57DOPE  H13S 7290   0.750   0.764  14.425 -0.2451  0.7235 -0.9834
   57DOPE  C214 7291   0.610   0.873  14.329 -0.2535 -0.7709 -0.8070
   57DOPE  H14R 7292   0.543   0.805  14.386  0.9029 -0.3092  1.1959
   57DOPE  H14S 7293   0.570   0.899  14.229 -2.3683  0.4559  0.2939
   57DOPE  C215 7294   0.615   1.007  14.400  0.1212  0.6302 -0.9718
   57DOPE  H15R 7295   0.513   1.048  14.411  0.8633  2.3809 -0.2501
   57DOPE  H15S 7296   0.686   1.070  14.343  0.5378  1.4153  0.3705
   57DOPE  C216 7297   0.639   0.996  14.550  0.2088  0.0429 -0.3191
   57DOPE  H16R 7298   0.745   0.968  14.567 -0.2058 -1.6011 -0.2739
   57DOPE  H16S 7299   0.589   0.909  14.598 -1.7106 -0.1691 -2.5244
   57DOPE  C217 7300   0.623   1.127  14.624 -0.6913 -0.2957 -0.3076
   57DOPE  H17R 7301   0.676   1.125  14.722  0.0216  0.6416 -0.6571
   57DOPE  H17S 7302   0.516   1.149  14.642 -1.0724  1.6391 -3.9648
   57DOPE  C218 7303   0.680   1.248  14.545 -0.3547  0.1143  0.2060
   57DOPE  H18R 7304   0.643   1.253  14.440 -0.8535  0.6064  0.4002
   57DOPE  H18S 7305   0.788   1.229  14.525  0.2438  2.2910  1.0393
   57DOPE  H18T 7306   0.664   1.347  14.592 -1.0865 -0.2623  0.7635
   57DOPE   C33 7307   0.445   1.138  13.092  0.0060 -0.4726  0.2514
   57DOPE   H3X 7308   0.409   1.243  13.082  1.5025  0.1296  0.9600
   57DOPE   H3Y 7309   0.474   1.121  13.198  0.4726  0.1579  0.2360
   57DOPE   C34 7310   0.330   1.052  13.047  0.0711 -0.5711 -0.3900
   57DOPE   H4X 7311   0.295   1.079  12.945 -0.0565  0.3888 -0.1041
   57DOPE   H4Y 7312   0.366   0.949  13.027  3.1484  0.3455 -0.0778
   57DOPE   C35 7313   0.205   1.069  13.129 -0.6192  1.3334 -0.3358
   57DOPE   H5X 7314   0.138   1.002  13.072  1.0884 -0.8439  0.0913
   57DOPE   H5Y 7315   0.171   1.175  13.132 -0.0407  1.5834 -1.6924
   57DOPE   C36 7316   0.219   1.022  13.280  0.5091  0.1331  1.1406
   57DOPE   H6X 7317   0.272   1.092  13.347  0.6114 -0.3753  1.6027
   57DOPE   H6Y 7318   0.270   0.923  13.286 -1.5623 -1.0786  0.0873
   57DOPE   C37 7319   0.080   0.990  13.336  0.0057 -0.8703 -0.1197
   57DOPE   H7X 7320  -0.002   1.045  13.285 -0.5164  1.0926  2.6405
   57DOPE   H7Y 7321   0.053   0.883  13.324 -0.4167 -0.9278  1.2055
   57DOPE   C38 7322   0.068   1.028  13.480  0.4445  0.2244 -0.2493
   57DOPE   H8X 7323   0.079   1.137  13.495 -1.2820  0.6659 -1.8027
   57DOPE   H8Y 7324   0.143   0.969  13.537 -0.6581 -2.8416 -1.7602
   57DOPE   C39 7325  -0.071   0.991  13.531  0.0107  0.6745 -0.0184
   57DOPE   H9X 7326  -0.093   0.884  13.520 -0.8134  0.7268  0.9445
   57DOPE  C310 7327  -0.169   1.067  13.581 -1.0276 -0.0213 -0.5557
   57DOPE  H10X 7328  -0.262   1.016  13.609 -1.1981  0.8751  0.6264
   57DOPE  C311 7329  -0.163   1.218  13.598  0.0047  0.2175 -0.6748
   57DOPE  H11X 7330  -0.119   1.271  13.511  1.2537 -0.0151 -0.1960
   57DOPE  H11Y 7331  -0.266   1.259  13.601  0.1631  0.7448 -1.7953
   57DOPE  C312 7332  -0.094   1.264  13.730 -0.1168  0.5299 -0.2615
   57DOPE  H12X 7333  -0.080   1.374  13.726 -0.2298  0.5234 -0.8083
   57DOPE  H12Y 7334   0.012   1.232  13.732 -0.0585  0.5821 -1.6372
   57DOPE  C313 7335  -0.174   1.236  13.859 -0.4851  0.4479  0.5556
   57DOPE  H13X 7336  -0.284   1.251  13.850 -0.4587 -0.1912 -1.2524
   57DOPE  H13Y 7337  -0.156   1.132  13.891  1.1070  0.0390 -1.5125
   57DOPE  C314 7338  -0.131   1.335  13.972 -1.2125  0.6601  0.8168
   57DOPE  H14X 7339  -0.138   1.439  13.935 -0.8740  0.6205  0.6416
   57DOPE  H14Y 7340  -0.026   1.313  14.002 -0.6471  0.5107 -1.1492
   57DOPE  C315 7341  -0.227   1.307  14.088 -0.9296 -0.3426 -0.1460
   57DOPE  H15X 7342  -0.203   1.201  14.112  1.9624  0.2667  0.0033
   57DOPE  H15Y 7343  -0.334   1.313  14.058 -0.2353 -0.9891 -3.0745
   57DOPE  C316 7344  -0.201   1.381  14.220 -0.0095 -0.0243  0.3819
   57DOPE  H16X 7345  -0.235   1.486  14.216  1.2413  0.3650 -0.5282
   57DOPE  H16Y 7346  -0.091   1.391  14.239  0.5345  1.5113 -2.9499
   57DOPE  C317 7347  -0.255   1.309  14.337  0.1940 -0.0573  0.7591
   57DOPE  H17X 7348  -0.363   1.281  14.335  0.4492 -1.2501  1.9355
   57DOPE  H17Y 7349  -0.206   1.209  14.333  0.7657  0.2383  0.3588
   57DOPE  C318 7350  -0.221   1.382  14.471 -0.0442 -0.0188  0.0376
   57DOPE  H18X 7351  -0.277   1.478  14.471  0.7078  0.4282 -0.1351
   57DOPE  H18Y 7352  -0.246   1.309  14.551  2.0315 -2.2411 -1.1931
   57DOPE  H18Z 7353  -0.111   1.396  14.480 -0.1817  1.0377  0.2662
   58DOPE     N 7354   6.648   4.397  11.637 -0.7359 -0.3770 -0.6452
   58DOPE   HN1 7355   6.600   4.308  11.615 -1.3247 -1.3968  3.7451
   58DOPE   HN2 7356   6.588   4.443  11.708 -0.0037  0.8496 -0.7880
   58DOPE   HN3 7357   6.648   4.461  11.556 -0.4115  1.2165  0.5597
   58DOPE   C12 7358   6.791   4.382  11.690 -0.1308  1.3341 -0.2771
   58DOPE  H12A 7359   6.836   4.472  11.737  1.1467  0.7901 -0.4099
   58DOPE  H12B 7360   6.854   4.351  11.603  0.2369 -0.6658  0.6471
   58DOPE   C11 7361   6.788   4.270  11.798  0.4144  0.0363 -0.0606
   58DOPE  H11A 7362   6.701   4.289  11.866 -0.6087 -0.1539 -1.2798
   58DOPE  H11B 7363   6.878   4.283  11.861  0.3584 -0.8283  0.2176
   58DOPE     P 7364   6.655   4.070  11.721 -0.1382 -0.3730  0.2252
   58DOPE   O13 7365   6.671   3.936  11.658  0.1269  0.6538 -0.7856
   58DOPE   O14 7366   6.554   4.157  11.660 -0.1901  0.2632  0.1176
   58DOPE   O11 7367   6.619   4.053  11.875 -0.3692  0.6569  0.1994
   58DOPE   O12 7368   6.791   4.142  11.733  0.0046 -0.0139  0.5226
   58DOPE    C1 7369   6.532   3.954  11.930 -0.2220  0.4605 -0.6478
   58DOPE    HA 7370   6.444   3.938  11.865 -0.5854 -1.0214  0.1565
   58DOPE    HB 7371   6.488   3.992  12.025 -2.3507  0.8501 -1.7414
   58DOPE    C2 7372   6.603   3.816  11.964  0.1416  0.1184 -0.0422
   58DOPE    HS 7373   6.649   3.777  11.871  0.3729 -1.2312  0.6037
   58DOPE   O21 7374   6.497   3.739  12.013 -0.2286 -0.0855 -0.8921
   58DOPE   C21 7375   6.493   3.619  11.982  0.2262  0.8743 -0.2107
   58DOPE   O22 7376   6.584   3.563  11.919  0.3716  0.5247 -0.0534
   58DOPE   C22 7377   6.369   3.554  12.045 -0.5817  0.0997 -0.0879
   58DOPE   H2R 7378   6.377   3.446  12.021 -0.3562  0.6164 -2.6608
   58DOPE   H2S 7379   6.273   3.598  12.010 -1.3574 -0.3111  1.4226
   58DOPE    C3 7380   6.718   3.831  12.077  0.3221 -0.0584  0.9914
   58DOPE    HX 7381   6.795   3.898  12.032 -0.5509 -1.2320 -2.5098
   58DOPE    HY 7382   6.772   3.734  12.082  0.1147 -0.2349 -0.0684
   58DOPE   O31 7383   6.673   3.879  12.201 -0.4481 -0.1844 -0.3941
   58DOPE   C31 7384   6.653   3.798  12.301 -0.8079 -0.1303  0.0005
   58DOPE   O32 7385   6.667   3.676  12.297 -0.1558 -0.6316 -0.0618
   58DOPE   C32 7386   6.599   3.879  12.428 -0.2763  0.4796  0.2749
   58DOPE   H2X 7387   6.667   3.963  12.452 -0.7409  1.2795 -1.1098
   58DOPE   H2Y 7388   6.492   3.896  12.406 -1.1588 -0.4816  3.3091
   58DOPE   C23 7389   6.364   3.559  12.196 -0.7858 -0.0198  0.1221
   58DOPE   H3R 7390   6.357   3.668  12.216  0.1470  0.2476 -0.8874
   58DOPE   H3S 7391   6.454   3.519  12.247  1.0272  2.9964 -0.4598
   58DOPE   C24 7392   6.240   3.516  12.266 -0.0083  0.2879 -0.3494
   58DOPE   H4R 7393   6.231   3.406  12.260 -2.1706  0.4815 -2.0099
   58DOPE   H4S 7394   6.147   3.559  12.221 -0.0975  0.0645 -0.3781
   58DOPE   C25 7395   6.238   3.563  12.412 -0.5505 -0.4667 -0.9376
   58DOPE   H5R 7396   6.226   3.672  12.425  1.1676 -0.4056  0.4070
   58DOPE   H5S 7397   6.338   3.548  12.457  0.0347  4.6911 -0.0061
   58DOPE   C26 7398   6.154   3.477  12.508  0.8534  0.7224  0.0910
   58DOPE   H6R 7399   6.188   3.372  12.524 -0.3691  0.2469 -0.3095
   58DOPE   H6S 7400   6.054   3.473  12.460 -0.4546  0.5263  2.6718
   58DOPE   C27 7401   6.141   3.553  12.643 -0.0544  0.2157  0.2000
   58DOPE   H7R 7402   6.093   3.653  12.635 -0.7650 -0.1859 -0.7343
   58DOPE   H7S 7403   6.248   3.574  12.666  0.0653  0.8417 -0.8581
   58DOPE   C28 7404   6.095   3.474  12.769  0.2235  0.3391 -0.0486
   58DOPE   H8R 7405   5.999   3.426  12.739  0.7997 -0.5361 -0.5701
   58DOPE   H8S 7406   6.077   3.549  12.848 -0.4159  0.0089  0.1309
   58DOPE   C29 7407   6.175   3.352  12.813 -0.1038  0.1339 -0.2518
   58DOPE   H9R 7408   6.210   3.287  12.731 -0.4620  0.6243 -0.8038
   58DOPE  C210 7409   6.218   3.334  12.941  0.0359  0.4085 -0.8386
   58DOPE  H10R 7410   6.284   3.250  12.966 -0.1693  0.6996  0.8304
   58DOPE  C211 7411   6.190   3.427  13.052 -0.3708  0.1914 -0.0300
   58DOPE  H11R 7412   6.085   3.465  13.051 -0.3412  0.6980  3.2317
   58DOPE  H11S 7413   6.255   3.517  13.048  2.3084 -1.6296  0.1487
   58DOPE  C212 7414   6.202   3.359  13.196  0.1807 -0.3223 -0.9215
   58DOPE  H12R 7415   6.300   3.321  13.232 -1.3196 -1.9943  1.7869
   58DOPE  H12S 7416   6.142   3.265  13.200  0.6925 -0.6473 -0.7027
   58DOPE  C213 7417   6.118   3.436  13.303  0.3332  0.5383  0.6247
   58DOPE  H13R 7418   6.014   3.445  13.264  0.0403  0.9784  1.4865
   58DOPE  H13S 7419   6.175   3.530  13.319 -1.3016  1.3917  1.7896
   58DOPE  C214 7420   6.121   3.359  13.436  0.2411 -0.3877 -0.5737
   58DOPE  H14R 7421   6.072   3.261  13.418  1.3234 -0.7782 -1.4640
   58DOPE  H14S 7422   6.062   3.415  13.512  1.5603 -0.7110  0.7375
   58DOPE  C215 7423   6.266   3.338  13.490  0.4358 -0.0148 -0.6249
   58DOPE  H15R 7424   6.330   3.428  13.499  2.2353 -1.4042  1.4783
   58DOPE  H15S 7425   6.328   3.259  13.441  0.8483 -2.0843  2.9060
   58DOPE  C216 7426   6.254   3.305  13.642  0.1563 -0.6519  0.3672
   58DOPE  H16R 7427   6.157   3.254  13.663  0.5032 -1.7953 -0.6672
   58DOPE  H16S 7428   6.247   3.402  13.695  0.0824 -0.8058  0.6419
   58DOPE  C217 7429   6.376   3.222  13.695  0.3498  0.2484 -0.2544
   58DOPE  H17R 7430   6.467   3.284  13.682 -0.2992  1.1953 -0.3622
   58DOPE  H17S 7431   6.408   3.147  13.620 -0.8100  0.5076 -1.0400
   58DOPE  C218 7432   6.354   3.168  13.838  0.2711 -0.1897  0.4602
   58DOPE  H18R 7433   6.450   3.130  13.879  1.0710  0.4414 -0.7782
   58DOPE  H18S 7434   6.274   3.092  13.827 -0.6893  0.6596  1.3585
   58DOPE  H18T 7435   6.317   3.252  13.901 -1.0272  1.1062 -1.8942
   58DOPE   C33 7436   6.590   3.779  12.542  0.3022 -0.5500  0.6560
   58DOPE   H3X 7437   6.686   3.724  12.547  0.0514 -1.3622 -1.8698
   58DOPE   H3Y 7438   6.513   3.703  12.515  1.3324 -1.4038  0.0248
   58DOPE   C34 7439   6.556   3.849  12.676 -0.3516  0.1202  0.2311
   58DOPE   H4X 7440   6.628   3.929  12.703  1.0817 -0.1433 -2.4231
   58DOPE   H4Y 7441   6.455   3.894  12.664 -1.5825 -2.2640  0.9343
   58DOPE   C35 7442   6.544   3.739  12.785  0.0257  0.1513  0.0309
   58DOPE   H5X 7443   6.627   3.666  12.781 -0.7490 -0.7442 -3.8833
   58DOPE   H5Y 7444   6.453   3.679  12.763  0.1742 -0.6787  1.5339
   58DOPE   C36 7445   6.539   3.797  12.929  0.2713 -0.0066 -0.2755
   58DOPE   H6X 7446   6.448   3.860  12.941 -0.0863  0.0219 -2.5516
   58DOPE   H6Y 7447   6.627   3.862  12.948 -0.0345  0.3687 -0.1335
   58DOPE   C37 7448   6.528   3.685  13.037  0.5964  0.5481 -0.3864
   58DOPE   H7X 7449   6.447   3.620  12.999 -0.4006  2.3897 -1.5751
   58DOPE   H7Y 7450   6.624   3.630  13.048  0.2695  0.0918  0.3231
   58DOPE   C38 7451   6.471   3.733  13.172 -0.0208 -1.0193  0.4809
   58DOPE   H8X 7452   6.439   3.650  13.237  1.0976 -0.8661  1.2578
   58DOPE   H8Y 7453   6.381   3.795  13.151  0.0682 -0.7297  0.9359
   58DOPE   C39 7454   6.569   3.819  13.248 -0.6786 -0.0933  1.3265
   58DOPE   H9X 7455   6.642   3.874  13.187 -1.0549  0.0554  1.0093
   58DOPE  C310 7456   6.594   3.830  13.383  0.5317  0.1338  0.0097
   58DOPE  H10X 7457   6.653   3.913  13.423  0.7549 -0.4507  0.9268
   58DOPE  C311 7458   6.507   3.762  13.493 -0.8891  0.3058  0.0803
   58DOPE  H11X 7459   6.446   3.830  13.556  1.1133  2.8648 -0.5824
   58DOPE  H11Y 7460   6.441   3.678  13.463  0.2037  0.2328 -2.4074
   58DOPE  C312 7461   6.617   3.692  13.582  0.4017 -0.2099 -0.0853
   58DOPE  H12X 7462   6.681   3.770  13.630  1.2551 -0.3207 -1.0035
   58DOPE  H12Y 7463   6.686   3.623  13.529  0.3565 -0.6860  0.4694
   58DOPE  C313 7464   6.555   3.609  13.699  0.0802  0.4227  0.0095
   58DOPE  H13X 7465   6.501   3.676  13.770  0.3986 -0.9780  1.6604
   58DOPE  H13Y 7466   6.470   3.555  13.653  0.7598 -1.4940  0.9052
   58DOPE  C314 7467   6.644   3.512  13.774 -0.1565 -0.5633 -0.0186
   58DOPE  H14X 7468   6.739   3.566  13.790 -0.5272  0.2508 -0.5200
   58DOPE  H14Y 7469   6.663   3.428  13.703 -2.3820  1.2642 -2.9761
   58DOPE  C315 7470   6.587   3.448  13.904 -0.4476 -0.1174  0.4658
   58DOPE  H15X 7471   6.488   3.400  13.887  0.2220 -0.7126 -2.1616
   58DOPE  H15Y 7472   6.558   3.519  13.984  0.3715  0.2655  0.4362
   58DOPE  C316 7473   6.690   3.348  13.961  0.8625 -0.0291 -0.4091
   58DOPE  H16X 7474   6.790   3.390  13.938  1.7890 -1.9903 -0.2070
   58DOPE  H16Y 7475   6.681   3.252  13.906 -3.0409  0.3807 -0.7492
   58DOPE  C317 7476   6.683   3.316  14.106 -0.2712 -0.0984  0.4959
   58DOPE  H17X 7477   6.693   3.407  14.168  0.4306 -0.6457  1.2045
   58DOPE  H17Y 7478   6.583   3.268  14.116 -0.0602 -1.0170 -1.3225
   58DOPE  C318 7479   6.781   3.217  14.153  0.5717 -0.1040 -0.3150
   58DOPE  H18X 7480   6.779   3.131  14.083  1.7820  0.3763 -0.9765
   58DOPE  H18Y 7481   6.880   3.267  14.158  1.2086 -1.4608  1.9213
   58DOPE  H18Z 7482   6.758   3.175  14.253 -0.2454 -2.4075 -1.4226
   59DOPE     N 7483   6.620   0.198  12.450 -0.6982 -0.6686 -0.4182
   59DOPE   HN1 7484   6.630   0.260  12.367  2.1070 -0.2340  0.1321
   59DOPE   HN2 7485   6.578   0.260  12.522  1.1765  1.4883 -1.0193
   59DOPE   HN3 7486   6.716   0.175  12.484 -0.8231  0.0606  0.4856
   59DOPE   C12 7487   6.535   0.084  12.429 -1.1486  0.1868 -0.9724
   59DOPE  H12A 7488   6.430   0.114  12.412 -1.4026  0.0367  0.2509
   59DOPE  H12B 7489   6.541   0.031  12.526  2.7222  0.5607 -0.8217
   59DOPE   C11 7490   6.573  -0.014  12.318  0.3809 -0.2872  0.2306
   59DOPE  H11A 7491   6.537   0.046  12.231 -0.0496 -0.6278  0.1714
   59DOPE  H11B 7492   6.510  -0.103  12.338 -2.7063  2.1403  2.2942
   59DOPE     P 7493   6.775  -0.174  12.273 -0.4005 -0.0425 -0.0041
   59DOPE   O13 7494   6.920  -0.175  12.306 -0.3961  0.6894  0.0796
   59DOPE   O14 7495   6.749  -0.197  12.128  0.1692  0.5129 -0.4205
   59DOPE   O11 7496   6.688  -0.273  12.362  0.5664 -0.1655 -0.0625
   59DOPE   O12 7497   6.713  -0.029  12.306  0.0118 -0.3821 -0.1406
   59DOPE    C1 7498   6.714  -0.292  12.503 -0.3940  0.0985  0.3671
   59DOPE    HA 7499   6.624  -0.291  12.568  0.2278  0.2034  1.2478
   59DOPE    HB 7500   6.749  -0.199  12.553 -1.6421  0.6689  0.2220
   59DOPE    C2 7501   6.792  -0.417  12.540  0.2642 -0.4138  0.1374
   59DOPE    HS 7502   6.863  -0.441  12.458  0.3165  0.4052 -0.0651
   59DOPE   O21 7503   6.683  -0.509  12.547 -0.1176  0.0388 -1.0221
   59DOPE   C21 7504   6.731  -0.635  12.566 -0.1115 -0.2385 -0.2607
   59DOPE   O22 7505   6.849  -0.668  12.568 -0.1140  0.1150  0.1894
   59DOPE   C22 7506   6.606  -0.725  12.585  1.0088  0.3417  0.4657
   59DOPE   H2R 7507   6.609  -0.791  12.496  5.0758  0.9104 -0.0259
   59DOPE   H2S 7508   6.516  -0.661  12.596  1.5948  1.0172  1.5951
   59DOPE    C3 7509   6.866  -0.385  12.673  0.1008 -0.2246 -0.9180
   59DOPE    HX 7510   6.941  -0.306  12.651  0.1743  0.0481  0.2258
   59DOPE    HY 7511   6.918  -0.479  12.700  1.4180  0.4813 -0.9001
   59DOPE   O31 7512   6.773  -0.334  12.768  0.4785 -0.4860  0.4292
   59DOPE   C31 7513   6.718  -0.415  12.855 -0.3091 -0.2002 -0.1114
   59DOPE   O32 7514   6.738  -0.534  12.870 -0.6065 -0.1752  0.5668
   59DOPE   C32 7515   6.605  -0.331  12.914 -0.5323  0.2174 -0.7219
   59DOPE   H2X 7516   6.654  -0.266  12.990 -1.9376  2.2096 -1.4340
   59DOPE   H2Y 7517   6.568  -0.265  12.833  0.5141  0.7100 -0.8162
   59DOPE   C23 7518   6.626  -0.820  12.707  0.1481 -0.0942  0.0065
   59DOPE   H3R 7519   6.689  -0.767  12.782  0.1919  0.2130 -0.2478
   59DOPE   H3S 7520   6.689  -0.908  12.682  1.4493  1.1042 -1.0895
   59DOPE   C24 7521   6.497  -0.856  12.780 -0.1109 -0.5106 -0.3424
   59DOPE   H4R 7522   6.454  -0.765  12.827  2.8741 -0.1464  1.9708
   59DOPE   H4S 7523   6.523  -0.922  12.865 -0.2283  1.3079  1.1581
   59DOPE   C25 7524   6.399  -0.938  12.693  0.7318 -0.5833 -0.0147
   59DOPE   H5R 7525   6.437  -1.041  12.676 -1.2923 -1.1455 -1.5329
   59DOPE   H5S 7526   6.402  -0.897  12.589  0.1628 -0.1021  0.1552
   59DOPE   C26 7527   6.261  -0.959  12.744  0.2696 -0.5311 -0.2011
   59DOPE   H6R 7528   6.195  -0.987  12.658 -0.7413  0.2676  0.2882
   59DOPE   H6S 7529   6.213  -0.864  12.777  2.8591  0.8948 -0.2546
   59DOPE   C27 7530   6.245  -1.063  12.863  0.0022 -0.3164 -0.0597
   59DOPE   H7R 7531   6.309  -1.149  12.835 -1.0779 -0.9176 -0.7734
   59DOPE   H7S 7532   6.139  -1.094  12.873  0.4880 -1.7145  1.0774
   59DOPE   C28 7533   6.285  -1.023  13.007  0.0206 -0.4411  0.3868
   59DOPE   H8R 7534   6.388  -0.980  13.001  0.2972 -0.9500  1.2502
   59DOPE   H8S 7535   6.291  -1.117  13.066 -0.5585  0.2829  1.6488
   59DOPE   C29 7536   6.205  -0.921  13.076 -0.3462 -0.3120 -0.1007
   59DOPE   H9R 7537   6.199  -0.828  13.017 -3.4762 -1.1343 -1.2942
   59DOPE  C210 7538   6.155  -0.936  13.195  0.6339  0.7785  0.1837
   59DOPE  H10R 7539   6.094  -0.851  13.228  1.4411  1.1532  0.7323
   59DOPE  C211 7540   6.156  -1.049  13.289  0.6662  0.5728 -0.7511
   59DOPE  H11R 7541   6.262  -1.083  13.296  0.4995  0.4218  3.0079
   59DOPE  H11S 7542   6.088  -1.128  13.249  0.5811  1.0896 -1.6515
   59DOPE  C212 7543   6.112  -1.010  13.432  0.1257  0.4620 -0.5385
   59DOPE  H12R 7544   6.013  -0.961  13.428  1.1685  2.7192 -0.5438
   59DOPE  H12S 7545   6.183  -0.934  13.472 -0.0931  0.1937  0.3928
   59DOPE  C213 7546   6.112  -1.110  13.546 -0.1854  0.1419  0.5014
   59DOPE  H13R 7547   6.188  -1.190  13.543  0.8647  1.1225  0.4108
   59DOPE  H13S 7548   6.017  -1.167  13.540 -1.1516  1.4350  2.3319
   59DOPE  C214 7549   6.101  -1.049  13.691 -0.4881  0.5251  0.2770
   59DOPE  H14R 7550   6.028  -0.967  13.707  0.9969  2.2255 -1.2723
   59DOPE  H14S 7551   6.198  -0.995  13.705 -0.6228  0.2936  2.5414
   59DOPE  C215 7552   6.086  -1.154  13.802  0.5213 -0.1621 -0.2227
   59DOPE  H15R 7553   6.158  -1.238  13.806  0.2013 -0.5108 -1.4083
   59DOPE  H15S 7554   5.990  -1.200  13.773  1.1813 -0.6460 -1.7218
   59DOPE  C216 7555   6.070  -1.091  13.944  0.4783  0.3581 -0.1617
   59DOPE  H16R 7556   5.980  -1.025  13.939  1.4750  1.6834 -1.3054
   59DOPE  H16S 7557   6.155  -1.024  13.967  1.5985 -0.6688 -1.1983
   59DOPE  C217 7558   6.054  -1.215  14.044  0.0328  0.3110  0.4555
   59DOPE  H17R 7559   6.041  -1.174  14.146 -1.5383  0.3290  0.2659
   59DOPE  H17S 7560   6.154  -1.264  14.039  0.0720  0.4676 -2.8674
   59DOPE  C218 7561   5.939  -1.315  14.021  0.1644 -0.2740  0.0094
   59DOPE  H18R 7562   5.934  -1.341  13.913  1.6288  1.6672 -0.5825
   59DOPE  H18S 7563   5.841  -1.273  14.054 -1.2779 -1.7734 -2.0983
   59DOPE  H18T 7564   5.963  -1.412  14.067 -1.5691  0.0900  1.8220
   59DOPE   C33 7565   6.500  -0.420  12.992  0.0291 -0.3360 -0.1098
   59DOPE   H3X 7566   6.490  -0.519  12.942  2.1327 -1.2814  1.2228
   59DOPE   H3Y 7567   6.405  -0.364  12.978  1.5167  2.2328 -0.4706
   59DOPE   C34 7568   6.526  -0.428  13.140 -0.0964 -0.6281  0.0411
   59DOPE   H4X 7569   6.630  -0.466  13.150 -0.5769 -2.1947 -0.5854
   59DOPE   H4Y 7570   6.528  -0.339  13.206  3.0584  0.2374 -1.0284
   59DOPE   C35 7571   6.432  -0.523  13.214  0.3724  0.1424 -0.8922
   59DOPE   H5X 7572   6.433  -0.619  13.158  0.5181  1.1242 -2.6276
   59DOPE   H5Y 7573   6.335  -0.472  13.230  0.8179  0.5375  0.7866
   59DOPE   C36 7574   6.477  -0.549  13.362 -0.4672 -0.1033 -0.1101
   59DOPE   H6X 7575   6.456  -0.457  13.420  0.9381 -0.1463  0.5046
   59DOPE   H6Y 7576   6.586  -0.569  13.363 -0.5332 -0.6150 -1.1675
   59DOPE   C37 7577   6.398  -0.661  13.434 -0.0644  0.1757 -0.5191
   59DOPE   H7X 7578   6.291  -0.635  13.449  0.0874  0.3795  0.2583
   59DOPE   H7Y 7579   6.408  -0.756  13.377  0.4558 -1.0851  1.5487
   59DOPE   C38 7580   6.457  -0.694  13.573 -0.0755  0.0588 -0.2083
   59DOPE   H8X 7581   6.563  -0.727  13.557 -0.6853 -1.9756 -0.4156
   59DOPE   H8Y 7582   6.420  -0.795  13.601  1.3095 -0.0535  1.3626
   59DOPE   C39 7583   6.463  -0.591  13.685  0.2270  0.1429 -0.2073
   59DOPE   H9X 7584   6.548  -0.522  13.684  1.6679 -1.5347  0.6919
   59DOPE  C310 7585   6.392  -0.581  13.793 -0.7492  0.0332  0.1386
   59DOPE  H10X 7586   6.424  -0.511  13.872 -0.6093  0.9746 -0.7359
   59DOPE  C311 7587   6.271  -0.665  13.832 -0.1992  0.4983  0.2179
   59DOPE  H11X 7588   6.184  -0.602  13.857 -0.3550 -0.5561  2.5941
   59DOPE  H11Y 7589   6.260  -0.737  13.748 -1.7936  2.4326 -1.3362
   59DOPE  C312 7590   6.304  -0.744  13.959 -0.0133 -0.2699 -0.3115
   59DOPE  H12X 7591   6.402  -0.793  13.939 -0.0307 -0.3579 -0.1815
   59DOPE  H12Y 7592   6.225  -0.821  13.972  0.4373 -0.9331 -1.3403
   59DOPE  C313 7593   6.307  -0.654  14.086 -0.1021 -0.3434  0.8203
   59DOPE  H13X 7594   6.393  -0.586  14.067 -0.5721  0.1359  0.3819
   59DOPE  H13Y 7595   6.215  -0.592  14.080  0.4308  0.3240 -0.9653
   59DOPE  C314 7596   6.336  -0.719  14.221 -0.5055 -0.5569 -0.4482
   59DOPE  H14X 7597   6.446  -0.734  14.221 -0.4290 -0.1086 -1.7175
   59DOPE  H14Y 7598   6.293  -0.821  14.238  0.6330 -0.8895  0.5649
   59DOPE  C315 7599   6.295  -0.630  14.341  0.0121 -0.2485  0.3792
   59DOPE  H15X 7600   6.337  -0.686  14.427 -2.3004  0.2680  1.9368
   59DOPE  H15Y 7601   6.185  -0.623  14.348  0.0812  1.2886  0.3064
   59DOPE  C316 7602   6.341  -0.485  14.334  0.8713  0.2373 -0.4065
   59DOPE  H16X 7603   6.299  -0.436  14.244  0.4812  1.1009  0.2305
   59DOPE  H16Y 7604   6.451  -0.490  14.317  1.2272 -0.0094  1.6464
   59DOPE  C317 7605   6.314  -0.419  14.471 -0.3318 -0.3613 -0.3052
   59DOPE  H17X 7606   6.287  -0.491  14.551  0.2185  1.4595  1.6347
   59DOPE  H17Y 7607   6.399  -0.364  14.518 -2.3914  1.2900  1.7266
   59DOPE  C318 7608   6.198  -0.316  14.459 -0.3821 -0.7435 -1.0238
   59DOPE  H18X 7609   6.170  -0.260  14.550 -1.2787  0.7180 -2.1584
   59DOPE  H18Y 7610   6.212  -0.232  14.388  0.7637  1.2254  1.3936
   59DOPE  H18Z 7611   6.104  -0.364  14.424 -0.6045 -1.3596  0.3717
   60DOPE     N 7612   5.899   4.331  11.813 -0.2062 -1.1096 -0.3453
   60DOPE   HN1 7613   5.942   4.239  11.836  0.7555 -0.2605  1.5176
   60DOPE   HN2 7614   5.979   4.396  11.797  1.3629 -1.9006  3.2763
   60DOPE   HN3 7615   5.867   4.375  11.902 -0.3762 -0.0012 -0.9408
   60DOPE   C12 7616   5.785   4.326  11.722 -0.2001 -0.6116  0.2227
   60DOPE  H12A 7617   5.697   4.278  11.770 -0.0825 -2.1004 -0.9654
   60DOPE  H12B 7618   5.819   4.261  11.638  1.2444 -1.2438  1.2620
   60DOPE   C11 7619   5.734   4.466  11.673 -0.3014  0.5635  0.2544
   60DOPE  H11A 7620   5.673   4.515  11.752 -0.9903  0.7727 -0.3994
   60DOPE  H11B 7621   5.662   4.456  11.589 -0.7143  1.7647  0.4468
   60DOPE     P 7622   5.818   4.688  11.562  0.3973 -0.2812  0.1669
   60DOPE   O13 7623   5.691   4.684  11.490  0.2275  0.1730 -0.5285
   60DOPE   O14 7624   5.939   4.717  11.474 -0.0531  1.0222  0.1555
   60DOPE   O11 7625   5.812   4.790  11.687 -0.0303  0.1029  0.5557
   60DOPE   O12 7626   5.842   4.544  11.636 -0.3992 -0.1283  0.1940
   60DOPE    C1 7627   5.919   4.770  11.778  0.3605  0.3089 -0.5449
   60DOPE    HA 7628   5.970   4.867  11.798  3.9802 -1.7880  1.3452
   60DOPE    HB 7629   6.008   4.711  11.748 -0.1185 -1.6552  1.5654
   60DOPE    C2 7630   5.867   4.731  11.921  0.3341 -0.2284  0.2522
   60DOPE    HS 7631   5.827   4.628  11.921 -1.8592  0.5649  0.7780
   60DOPE   O21 7632   5.768   4.831  11.957 -0.1590  0.0819  0.4318
   60DOPE   C21 7633   5.658   4.779  12.017  0.2323 -0.3465  0.2919
   60DOPE   O22 7634   5.636   4.661  12.033 -0.0426  0.4185 -0.1141
   60DOPE   C22 7635   5.579   4.898  12.074  0.3801 -0.1230  0.0440
   60DOPE   H2R 7636   5.542   4.973  12.001  0.9408  1.1986  1.0940
   60DOPE   H2S 7637   5.651   4.949  12.141  0.0771 -0.6139  0.7634
   60DOPE    C3 7638   5.984   4.722  12.030  0.3329 -0.5619  0.2097
   60DOPE    HX 7639   6.026   4.825  12.042 -0.5850  0.3088 -3.0710
   60DOPE    HY 7640   6.074   4.665  11.997  0.0329 -0.4802 -0.7778
   60DOPE   O31 7641   5.940   4.668  12.157 -0.2477 -0.0623  0.4436
   60DOPE   C31 7642   5.936   4.533  12.151 -0.3938  0.6376 -0.3843
   60DOPE   O32 7643   5.975   4.464  12.059 -0.5362 -0.0112  0.7049
   60DOPE   C32 7644   5.880   4.480  12.276 -0.0768  0.6740 -0.5444
   60DOPE   H2X 7645   5.792   4.545  12.298 -1.2978 -0.8941 -0.5699
   60DOPE   H2Y 7646   5.845   4.377  12.253  1.8437  0.0799 -0.9102
   60DOPE   C23 7647   5.458   4.846  12.153  0.0725 -0.3199 -0.0413
   60DOPE   H3R 7648   5.487   4.768  12.227 -1.7569 -0.9890  0.0181
   60DOPE   H3S 7649   5.380   4.813  12.080  0.0230  1.3604 -0.7879
   60DOPE   C24 7650   5.399   4.958  12.237 -0.1185  0.2575  0.1579
   60DOPE   H4R 7651   5.388   5.048  12.174 -2.1511  0.1244  0.2530
   60DOPE   H4S 7652   5.470   4.985  12.318  0.9385  0.8566 -0.9416
   60DOPE   C25 7653   5.260   4.918  12.299 -0.2165  0.4075  0.0282
   60DOPE   H5R 7654   5.277   4.817  12.342  2.7738  1.4456  1.6528
   60DOPE   H5S 7655   5.183   4.911  12.220 -0.0580 -0.1008 -0.0856
   60DOPE   C26 7656   5.227   4.999  12.433 -0.4094  0.5047 -0.4200
   60DOPE   H6R 7657   5.222   5.103  12.395  0.4746  0.4597 -0.6899
   60DOPE   H6S 7658   5.308   4.985  12.508 -2.2913  0.9151  1.8037
   60DOPE   C27 7659   5.093   4.959  12.500  0.0013  0.3142  0.1627
   60DOPE   H7R 7660   5.083   4.851  12.476 -2.1171  0.0622  1.8708
   60DOPE   H7S 7661   5.007   5.012  12.453 -1.4646 -1.7086  0.4512
   60DOPE   C28 7662   5.100   4.983  12.650 -0.0529  0.0609 -0.4872
   60DOPE   H8R 7663   5.114   5.090  12.676 -1.6937 -0.0715  1.1151
   60DOPE   H8S 7664   5.192   4.941  12.695  0.1762  0.2886 -0.7375
   60DOPE   C29 7665   4.980   4.917  12.709  0.4297 -0.2531  0.6487
   60DOPE   H9R 7666   4.904   4.872  12.644  1.1986 -0.7965  0.1204
   60DOPE  C210 7667   4.951   4.931  12.839 -0.0594 -0.0690  0.6766
   60DOPE  H10R 7668   4.857   4.890  12.879  1.0566 -0.2662  3.3000
   60DOPE  C211 7669   5.040   4.995  12.938 -0.3521 -0.0237  0.4856
   60DOPE  H11R 7670   4.994   5.096  12.946  1.1669  0.7024  0.3342
   60DOPE  H11S 7671   5.142   5.018  12.900  0.1150 -0.0202  1.6917
   60DOPE  C212 7672   5.075   4.930  13.073  0.1831 -0.3666  0.4882
   60DOPE  H12R 7673   5.145   4.844  13.064  0.1322 -0.7272  2.8561
   60DOPE  H12S 7674   4.979   4.897  13.119  0.3195 -0.7866  0.4800
   60DOPE  C213 7675   5.140   5.021  13.177 -0.9438  0.1094 -0.4123
   60DOPE  H13R 7676   5.075   5.106  13.205 -1.0182 -0.2929  0.7035
   60DOPE  H13S 7677   5.238   5.058  13.139 -0.5968  1.1668  1.4063
   60DOPE  C214 7678   5.169   4.940  13.303  0.2044  0.0338 -0.0157
   60DOPE  H14R 7679   5.280   4.930  13.310  0.2227  0.1378 -0.1670
   60DOPE  H14S 7680   5.126   4.837  13.299  3.2191 -1.3280 -0.2608
   60DOPE  C215 7681   5.129   5.017  13.426 -0.1367  0.2573  0.8611
   60DOPE  H15R 7682   5.019   5.031  13.424 -0.3844 -0.7556  3.4749
   60DOPE  H15S 7683   5.184   5.114  13.435 -0.7527  0.6783  0.1827
   60DOPE  C216 7684   5.148   4.936  13.554  0.2585 -0.1260  0.4745
   60DOPE  H16R 7685   5.251   4.912  13.589  1.3711  0.9992 -1.8174
   60DOPE  H16S 7686   5.112   4.832  13.540 -0.8306  0.3206 -0.1484
   60DOPE  C217 7687   5.074   5.004  13.676  0.5190 -0.1924 -0.4140
   60DOPE  H17R 7688   4.965   5.013  13.654  0.2557  0.4365  0.9923
   60DOPE  H17S 7689   5.106   5.109  13.692 -0.0164 -0.0291 -0.3932
   60DOPE  C218 7690   5.082   4.928  13.813 -0.3624 -0.3347 -0.2305
   60DOPE  H18R 7691   5.045   4.823  13.809 -0.5405 -0.3631  1.3578
   60DOPE  H18S 7692   5.028   4.985  13.892 -0.4606  1.2920 -1.4157
   60DOPE  H18T 7693   5.187   4.920  13.847 -0.9813 -1.4970  1.5922
   60DOPE   C33 7694   5.993   4.481  12.381 -0.9740 -0.0161 -0.5829
   60DOPE   H3X 7695   6.025   4.587  12.387  0.2494 -0.4490  2.3400
   60DOPE   H3Y 7696   6.074   4.411  12.350 -0.7586  0.5763 -1.4010
   60DOPE   C34 7697   5.951   4.455  12.528  0.3605  0.2807  0.1286
   60DOPE   H4X 7698   6.043   4.487  12.583  0.3448 -0.3503  0.5230
   60DOPE   H4Y 7699   5.866   4.518  12.561  0.3962 -0.2678  1.2969
   60DOPE   C35 7700   5.925   4.307  12.574  0.0213 -0.1832  0.1706
   60DOPE   H5X 7701   6.016   4.256  12.536  0.7109  0.7835  0.4700
   60DOPE   H5Y 7702   5.847   4.269  12.506  1.9849  1.1667 -3.0949
   60DOPE   C36 7703   5.893   4.299  12.724  0.6819  0.0357 -0.5107
   60DOPE   H6X 7704   5.965   4.368  12.773  0.9536 -0.1927 -0.5871
   60DOPE   H6Y 7705   5.917   4.199  12.764 -1.6950 -0.7068 -0.7438
   60DOPE   C37 7706   5.751   4.333  12.769  0.1818 -0.3724 -0.3237
   60DOPE   H7X 7707   5.727   4.436  12.734 -1.5481 -0.1663  1.3327
   60DOPE   H7Y 7708   5.684   4.259  12.720 -0.6413  2.2693 -3.5980
   60DOPE   C38 7709   5.741   4.341  12.920  0.2747 -0.0164 -0.0713
   60DOPE   H8X 7710   5.645   4.392  12.941 -0.0228  0.3595 -2.1501
   60DOPE   H8Y 7711   5.815   4.408  12.970 -1.8416  1.5454  1.1296
   60DOPE   C39 7712   5.736   4.208  12.989 -0.0014 -0.2646  0.0400
   60DOPE   H9X 7713   5.719   4.124  12.920  2.9135  0.2474 -1.4381
   60DOPE  C310 7714   5.750   4.181  13.122 -0.0020 -1.0060  0.1922
   60DOPE  H10X 7715   5.744   4.078  13.160  0.0681 -0.9511  0.3509
   60DOPE  C311 7716   5.782   4.284  13.225  0.0694 -0.7998 -0.4176
   60DOPE  H11X 7717   5.868   4.345  13.190 -0.0447 -0.7432 -0.6035
   60DOPE  H11Y 7718   5.697   4.355  13.239  0.6351 -0.3812  1.1089
   60DOPE  C312 7719   5.825   4.234  13.368 -1.1118  0.3555  0.8437
   60DOPE  H12X 7720   5.846   4.332  13.417  1.3030 -0.5426  1.7488
   60DOPE  H12Y 7721   5.923   4.183  13.355 -1.5003 -0.7566  2.0929
   60DOPE  C313 7722   5.727   4.141  13.431  0.3292 -0.6346  0.1987
   60DOPE  H13X 7723   5.622   4.176  13.423 -0.2079 -2.3642 -0.8342
   60DOPE  H13Y 7724   5.735   4.049  13.369  0.3296 -1.9779  2.1093
   60DOPE  C314 7725   5.751   4.101  13.576 -0.1520  0.4308  0.1324
   60DOPE  H14X 7726   5.724   4.196  13.629  2.3184  1.6404 -0.6073
   60DOPE  H14Y 7727   5.858   4.083  13.601 -0.2625 -1.5997 -0.7047
   60DOPE  C315 7728   5.681   3.983  13.629  0.3842 -0.4453  0.1776
   60DOPE  H15X 7729   5.702   3.892  13.569  0.0746  0.1362 -0.8234
   60DOPE  H15Y 7730   5.573   4.003  13.615  0.1592 -1.9030 -0.3010
   60DOPE  C316 7731   5.718   3.959  13.777  0.1031  0.3542 -0.1227
   60DOPE  H16X 7732   5.699   4.054  13.832 -2.3069  0.0846 -0.4018
   60DOPE  H16Y 7733   5.828   3.939  13.781  0.3128  0.8008 -2.3642
   60DOPE  C317 7734   5.649   3.838  13.837  0.6384  0.0591  0.4278
   60DOPE  H17X 7735   5.676   3.753  13.770  0.2458  0.2392  0.0350
   60DOPE  H17Y 7736   5.693   3.831  13.939  1.2059  0.3151  0.2007
   60DOPE  C318 7737   5.503   3.852  13.868  0.1700  0.2001 -0.4216
   60DOPE  H18X 7738   5.441   3.831  13.778  0.8219  1.2188 -1.1300
   60DOPE  H18Y 7739   5.475   3.785  13.951 -0.1578  0.2888 -0.4609
   60DOPE  H18Z 7740   5.482   3.957  13.896 -1.4495  0.3583 -2.0575
   6123SM     N 7741   2.814   2.796  16.896  0.3360  0.0893  0.7975
   6123SM   C15 7742   2.923   2.852  16.979  0.4934 -0.2106 -0.5613
   6123SM  H15A 7743   2.892   2.847  17.083 -1.6851  2.0176 -1.0199
   6123SM  H15B 7744   2.939   2.953  16.947 -2.6992  0.9401  1.0465
   6123SM  H15C 7745   3.017   2.798  16.978  1.0790  0.7820 -2.5473
   6123SM   C14 7746   2.689   2.872  16.929 -0.1110  0.2468 -0.6025
   6123SM  H14A 7747   2.666   2.863  17.034 -0.1393  1.0238 -0.5334
   6123SM  H14B 7748   2.606   2.831  16.872 -1.3248 -1.4397  2.1831
   6123SM  H14C 7749   2.705   2.977  16.910  1.7673 -0.1155 -1.1898
   6123SM   C13 7750   2.842   2.826  16.746  0.1676 -0.5809  0.0771
   6123SM  H13A 7751   2.853   2.930  16.722  0.1136 -0.4562  0.5766
   6123SM  H13B 7752   2.764   2.786  16.682 -0.8606  0.1858  0.8278
   6123SM  H13C 7753   2.934   2.774  16.721  1.1297  0.9359  0.3634
   6123SM   C12 7754   2.811   2.645  16.917  0.5703  0.5186  0.3183
   6123SM  H12A 7755   2.714   2.614  16.880  1.2837  0.3174 -1.5201
   6123SM  H12B 7756   2.811   2.622  17.022 -0.6973  1.3941  0.5468
   6123SM   C11 7757   2.908   2.551  16.845  0.0872  0.3673  0.0731
   6123SM  H11A 7758   2.873   2.548  16.739 -2.4040  0.1564  0.8466
   6123SM  H11B 7759   2.901   2.448  16.885 -0.1031 -0.1824 -1.3259
   6123SM     P 7760   3.146   2.523  16.957  0.3615  0.1338 -0.1827
   6123SM   O13 7761   3.286   2.571  16.955  0.1297 -0.3212  0.0470
   6123SM   O14 7762   3.078   2.530  17.089 -0.3806 -0.3176  0.5926
   6123SM   O11 7763   3.150   2.370  16.918  0.0128 -0.0934 -0.0758
   6123SM   O12 7764   3.048   2.600  16.852 -0.2918  0.0961  0.0078
   6123SM   C1S 7765   3.122   2.320  16.786  0.4966 -0.0104 -0.0017
   6123SM   H1S 7766   3.068   2.391  16.719 -1.5570 -1.3995  0.0783
   6123SM   H1T 7767   3.053   2.232  16.793 -1.4099  1.3499 -0.6487
   6123SM    NF 7768   3.224   2.238  16.570  0.9205  0.3510 -0.4155
   6123SM   HNF 7769   3.225   2.144  16.537  0.2151 -0.3124  1.3881
   6123SM   C2S 7770   3.251   2.268  16.714 -0.0569  0.3159  0.4598
   6123SM   H2S 7771   3.317   2.358  16.721 -1.3138  1.3240 -0.2115
   6123SM   C3S 7772   3.322   2.155  16.790  0.3482 -0.6444  0.2161
   6123SM   H3S 7773   3.252   2.070  16.803 -0.0966 -0.4485 -0.8432
   6123SM    O3 7774   3.347   2.187  16.923  0.4013  0.1622  0.2890
   6123SM   HO3 7775   3.292   2.266  16.928 -3.7674 -2.3232 -1.0836
   6123SM   C4S 7776   3.442   2.114  16.716 -0.6135 -0.7406 -0.3780
   6123SM   H4S 7777   3.421   2.043  16.635 -0.3158  0.6018 -1.6851
   6123SM   C5S 7778   3.579   2.149  16.734  0.3060 -0.0911 -0.0082
   6123SM   H5S 7779   3.612   2.224  16.807 -3.0055  2.3817 -0.8056
   6123SM   C6S 7780   3.687   2.094  16.646 -0.3310 -0.1853 -0.0669
   6123SM   H6S 7781   3.769   2.061  16.714  1.0577  1.2697 -0.9645
   6123SM   H6T 7782   3.731   2.177  16.587 -1.6692  0.1510 -0.6069
   6123SM   C7S 7783   3.660   1.999  16.534  0.0295  1.0288 -0.3166
   6123SM   H7S 7784   3.592   1.920  16.572  1.2886 -0.4293 -1.0115
   6123SM   H7T 7785   3.749   1.941  16.503  1.3989  1.5635  2.3431
   6123SM   C8S 7786   3.592   2.065  16.410 -0.2295 -0.5299 -0.0763
   6123SM   H8S 7787   3.671   2.133  16.372 -0.0501 -1.0599 -0.6628
   6123SM   H8T 7788   3.510   2.133  16.442  0.6616  2.1687 -3.0381
   6123SM   C9S 7789   3.549   1.972  16.300  0.2232  0.8049  0.1664
   6123SM   H9S 7790   3.469   1.902  16.332  1.9089 -1.0031  0.6604
   6123SM   H9T 7791   3.636   1.904  16.288 -0.1943  0.0533  1.2706
   6123SM  C10S 7792   3.501   2.049  16.177 -0.0699  0.4867 -0.4554
   6123SM  H10S 7793   3.585   2.110  16.137  0.9090 -0.5055  0.0384
   6123SM  H10T 7794   3.423   2.124  16.201 -1.0677 -0.8086  0.5025
   6123SM  C11S 7795   3.452   1.953  16.071 -0.5887 -0.3616  0.0424
   6123SM  H11S 7796   3.360   1.899  16.102  0.9714 -3.0468  0.3920
   6123SM  H11T 7797   3.533   1.878  16.055 -1.2141 -1.5286  2.0353
   6123SM  C12S 7798   3.417   2.029  15.941  0.8843  0.0251 -0.6932
   6123SM  H12S 7799   3.509   2.083  15.910  0.4881  0.9969 -0.2235
   6123SM  H12T 7800   3.340   2.108  15.956 -0.3496 -1.4090  0.9083
   6123SM  C13S 7801   3.375   1.938  15.836  0.1366 -0.2954  0.8086
   6123SM  H13S 7802   3.273   1.895  15.841  0.1674 -0.2759  1.8487
   6123SM  H13T 7803   3.437   1.848  15.857 -0.6193 -1.0201 -0.0030
   6123SM  C14S 7804   3.407   1.998  15.694 -0.1590 -0.0206  0.1263
   6123SM  H14S 7805   3.515   2.018  15.704  0.0159 -1.6407  2.1848
   6123SM  H14T 7806   3.349   2.090  15.671 -0.5885 -0.2720  0.1708
   6123SM  C15S 7807   3.391   1.890  15.576  0.5408 -0.8210  0.4029
   6123SM  H15S 7808   3.289   1.846  15.582  1.2144 -2.8398 -1.4206
   6123SM  H15T 7809   3.460   1.805  15.598  0.0183 -2.1313 -2.5746
   6123SM  C16S 7810   3.413   1.955  15.434  0.0872  0.3484 -0.4111
   6123SM  H16S 7811   3.521   1.981  15.429 -0.5274  3.2783 -0.1927
   6123SM  H16T 7812   3.352   2.047  15.419  1.0248  0.5730 -3.5499
   6123SM  C17S 7813   3.382   1.860  15.319 -0.4689  0.3789  0.7107
   6123SM  H17S 7814   3.288   1.806  15.345  1.3782 -1.9665  3.1166
   6123SM  H17T 7815   3.460   1.781  15.322  0.6631  1.4592  3.4828
   6123SM  C18S 7816   3.378   1.926  15.180  0.2003 -0.3200 -0.0395
   6123SM  H18S 7817   3.299   2.003  15.172 -0.8023 -1.1755  1.2654
   6123SM  H18T 7818   3.363   1.844  15.106 -1.1646  2.5039 -3.1292
   6123SM  H18U 7819   3.482   1.959  15.156  0.2304  0.1897  0.7555
   6123SM   C1F 7820   3.189   2.329  16.487 -0.8588  0.0196 -0.7883
   6123SM    OF 7821   3.219   2.446  16.510  0.1471  0.4076 -0.2302
   6123SM   C2F 7822   3.136   2.282  16.354  0.3456 -0.1942  0.6609
   6123SM   H2F 7823   3.035   2.239  16.370 -0.0386  0.6389  0.5687
   6123SM   H2G 7824   3.201   2.202  16.314 -0.1919 -0.7220  0.8173
   6123SM   C3F 7825   3.130   2.397  16.251  0.7447 -0.2376  0.1225
   6123SM   H3F 7826   3.227   2.448  16.238 -0.1951  1.9314  1.1398
   6123SM   H3G 7827   3.058   2.476  16.283 -0.9778  0.0796 -3.9597
   6123SM   C4F 7828   3.094   2.356  16.105 -0.3530 -0.0216 -0.1237
   6123SM   H4F 7829   2.987   2.327  16.100 -0.3878 -0.5160  2.2169
   6123SM   H4G 7830   3.156   2.264  16.088 -0.5049 -0.3794  1.1490
   6123SM   C5F 7831   3.148   2.446  15.991 -0.3264 -0.4201 -0.2129
   6123SM   H5F 7832   3.253   2.477  16.012 -0.9806  1.0991  1.0715
   6123SM   H5G 7833   3.085   2.538  15.993 -1.8144 -1.4183  0.9528
   6123SM   C6F 7834   3.124   2.386  15.851 -0.1480  0.7241  0.3180
   6123SM   H6F 7835   3.022   2.344  15.840 -0.0562  0.6355 -0.1936
   6123SM   H6G 7836   3.202   2.308  15.846 -1.2477 -0.3008 -2.2398
   6123SM   C7F 7837   3.140   2.484  15.737 -0.4756  0.3307  0.6003
   6123SM   H7F 7838   3.241   2.528  15.737 -0.9771  1.5102  0.1814
   6123SM   H7G 7839   3.068   2.568  15.749 -0.3211  0.3072  1.8845
   6123SM   C8F 7840   3.118   2.422  15.602  0.1288  0.3791 -0.3315
   6123SM   H8F 7841   3.020   2.371  15.590  1.1193 -1.3193 -1.4584
   6123SM   H8G 7842   3.199   2.348  15.588  0.9418  1.5967 -2.5477
   6123SM   C9F 7843   3.140   2.522  15.479  0.4716  0.3674  0.0300
   6123SM   H9F 7844   3.238   2.573  15.488  0.9588 -0.5186 -0.1185
   6123SM   H9G 7845   3.073   2.610  15.483 -1.4696 -1.0416  0.3554
   6123SM  C10F 7846   3.122   2.439  15.358  0.0462  0.5346  0.1385
   6123SM  H10F 7847   3.019   2.398  15.352  0.3811 -0.6832  2.0169
   6123SM  H10G 7848   3.194   2.355  15.363  0.1278  0.4905 -1.2705
   6123SM  C11F 7849   3.134   2.517  15.228 -0.3442 -0.8279  0.0607
   6123SM  H11F 7850   3.231   2.571  15.219  0.4573 -2.3242 -0.6086
   6123SM  H11G 7851   3.056   2.596  15.227  1.1451  0.7261  1.0912
   6123SM  C12F 7852   3.116   2.433  15.095 -1.2239  0.2586 -0.5999
   6123SM  H12F 7853   3.012   2.397  15.085 -1.2327  0.1575 -0.1518
   6123SM  H12G 7854   3.184   2.346  15.108  1.1742  2.1987  0.5784
   6123SM  C13F 7855   3.150   2.499  14.960 -0.5352 -0.2617 -0.1907
   6123SM  H13F 7856   3.109   2.433  14.881 -1.9411 -0.9024  1.0193
   6123SM  H13G 7857   3.259   2.514  14.946 -0.5646  2.6969  1.7785
   6123SM  C14F 7858   3.081   2.636  14.952  0.4812 -0.1331  0.1336
   6123SM  H14F 7859   3.148   2.707  15.006  0.2895  0.0809  0.0887
   6123SM  H14G 7860   2.987   2.630  15.010  0.9502  0.0143  0.9333
   6123SM  C15F 7861   3.045   2.688  14.815  1.4273 -0.7379  0.5341
   6123SM  H15F 7862   3.137   2.698  14.753 -0.4425 -1.3067 -2.5290
   6123SM  H15G 7863   3.001   2.789  14.827  0.4236 -1.2960  1.8263
   6123SM  C16F 7864   2.945   2.608  14.732 -0.0848  0.6536 -0.0356
   6123SM  H16F 7865   2.862   2.586  14.802  1.9466 -1.7218  1.8174
   6123SM  H16G 7866   2.992   2.518  14.687  1.5247  0.4698  1.8534
   6123SM  C17F 7867   2.890   2.693  14.617 -0.1364  0.8705  0.1504
   6123SM  H17F 7868   2.982   2.714  14.558 -0.1876 -0.1032 -0.2996
   6123SM  H17G 7869   2.845   2.789  14.650 -0.0967  0.0651  2.7568
   6123SM  C18F 7870   2.776   2.618  14.535 -0.3699 -0.1777 -0.5619
   6123SM  H18F 7871   2.763   2.677  14.441  1.7247  0.8449 -0.2780
   6123SM  H18G 7872   2.686   2.631  14.599 -0.9614  1.9353 -1.7277
   6123SM  C19F 7873   2.802   2.468  14.504  0.0084  0.0939  0.6411
   6123SM  H19F 7874   2.802   2.421  14.604 -0.8035  1.0874  1.1231
   6123SM  H19G 7875   2.889   2.473  14.435 -1.5134  1.8864 -1.3312
   6123SM  C20F 7876   2.697   2.403  14.418  0.0726  0.3738  0.3450
   6123SM  H20F 7877   2.659   2.465  14.334 -2.1161 -1.3213 -0.0267
   6123SM  H20G 7878   2.603   2.382  14.474  0.0792  0.4236  0.3753
   6123SM  C21F 7879   2.744   2.278  14.340  0.8071  0.6433 -0.2269
   6123SM  H21F 7880   2.852   2.265  14.316  0.6250 -1.3833 -0.1679
   6123SM  H21G 7881   2.688   2.281  14.244  0.1265 -0.5868  0.1024
   6123SM  C22F 7882   2.701   2.150  14.410 -0.1205  0.3633 -0.2027
   6123SM  H22F 7883   2.723   2.151  14.519  2.9855 -1.4176 -0.6733
   6123SM  H22G 7884   2.778   2.078  14.372 -0.0945 -0.2771  0.9951
   6123SM  C23F 7885   2.565   2.102  14.362  0.7024 -0.4769 -0.2975
   6123SM  H23F 7886   2.543   2.087  14.254 -0.5320 -0.3408 -0.0790
   6123SM  H23G 7887   2.476   2.149  14.410  1.2389 -0.1824  0.4142
   6123SM  H23H 7888   2.554   1.995  14.391 -2.3933 -0.6917 -1.7870
   6223SM     N 7889   3.038   2.131  17.180  0.8013  0.3019 -0.0514
   6223SM   C15 7890   2.949   2.187  17.068 -0.0445 -0.0712 -0.1732
   6223SM  H15A 7891   2.884   2.267  17.098 -0.7424 -1.1289  1.2769
   6223SM  H15B 7892   2.891   2.113  17.015  0.8207 -0.4845 -0.5765
   6223SM  H15C 7893   3.019   2.227  16.995 -0.0972  0.9128  0.3025
   6223SM   C14 7894   3.107   2.242  17.255  0.6432 -0.6494  0.7062
   6223SM  H14A 7895   3.189   2.207  17.316  1.7686 -2.4238 -1.6544
   6223SM  H14B 7896   3.035   2.304  17.305 -0.1370 -0.4927 -0.5577
   6223SM  H14C 7897   3.158   2.305  17.183 -0.0319  2.4787  2.7788
   6223SM   C13 7898   2.955   2.056  17.277  0.6386 -0.2054  0.7383
   6223SM  H13A 7899   3.007   2.003  17.355  0.2608  0.4195  1.4286
   6223SM  H13B 7900   2.893   1.979  17.234  2.3414 -1.6738  0.7998
   6223SM  H13C 7901   2.889   2.124  17.329 -0.9555  1.2461 -2.8475
   6223SM   C12 7902   3.141   2.026  17.127 -0.7746  0.2794  0.4222
   6223SM  H12A 7903   3.176   1.973  17.215 -1.5488  0.2155  0.7019
   6223SM  H12B 7904   3.226   2.078  17.087 -1.6149 -0.6884 -2.8772
   6223SM   C11 7905   3.116   1.923  17.019  0.6925 -0.6109 -0.2036
   6223SM  H11A 7906   3.204   1.858  17.002  2.0364  1.2264 -0.5825
   6223SM  H11B 7907   3.102   1.965  16.917 -1.0725  3.2188  1.4086
   6223SM     P 7908   2.994   1.702  17.091 -0.4515 -0.3842  0.1683
   6223SM   O13 7909   3.106   1.679  17.186 -0.1650 -0.7176 -0.4286
   6223SM   O14 7910   2.858   1.660  17.134 -0.4517 -0.1093  0.1471
   6223SM   O11 7911   3.026   1.620  16.966 -0.5041 -0.2120 -0.1637
   6223SM   O12 7912   2.993   1.854  17.053  0.3322 -0.2593  0.1643
   6223SM   C1S 7913   2.936   1.561  16.883  0.3438 -0.5434 -0.0570
   6223SM   H1S 7914   2.878   1.636  16.824 -0.9114  0.8722  2.7478
   6223SM   H1T 7915   2.864   1.501  16.943  0.0798  0.6900  0.8981
   6223SM    NF 7916   2.906   1.432  16.678  0.0149 -0.0568 -0.0508
   6223SM   HNF 7917   2.845   1.353  16.688  0.7005 -0.8329 -1.6293
   6223SM   C2S 7918   3.001   1.457  16.781  0.4245  0.3776 -0.7870
   6223SM   H2S 7919   3.091   1.505  16.738 -0.1484  0.7562 -1.5825
   6223SM   C3S 7920   3.037   1.330  16.854 -0.0809  0.2487 -0.7452
   6223SM   H3S 7921   2.943   1.281  16.886  0.9810 -1.7357 -0.5344
   6223SM    O3 7922   3.113   1.353  16.971 -0.2893  0.0192  0.5626
   6223SM   HO3 7923   3.108   1.444  17.000  0.6697  0.8637 -1.7010
   6223SM   C4S 7924   3.112   1.231  16.763 -0.0913 -0.4964  0.1844
   6223SM   H4S 7925   3.044   1.156  16.719  1.2301 -1.7487  0.1814
   6223SM   C5S 7926   3.242   1.216  16.742  0.3992  0.9981 -0.8938
   6223SM   H5S 7927   3.319   1.280  16.788  1.4449 -0.1271 -1.0100
   6223SM   C6S 7928   3.303   1.102  16.661  0.0852  0.3814  0.1028
   6223SM   H6S 7929   3.239   1.014  16.639  1.8507 -0.6274 -1.1979
   6223SM   H6T 7930   3.383   1.054  16.721  0.3144  0.7041  0.0595
   6223SM   C7S 7931   3.363   1.154  16.528 -0.7860 -0.7930 -0.9296
   6223SM   H7S 7932   3.425   1.245  16.541 -0.9297 -0.9598  1.3642
   6223SM   H7T 7933   3.281   1.188  16.462 -1.4277 -0.3128  0.1008
   6223SM   C8S 7934   3.441   1.041  16.458 -0.8850 -0.2052 -0.0651
   6223SM   H8S 7935   3.375   0.952  16.448  0.7899 -1.2776 -2.8037
   6223SM   H8T 7936   3.535   1.006  16.506  0.0533 -0.4307 -1.9558
   6223SM   C9S 7937   3.476   1.084  16.316  0.4829  0.1607 -0.1280
   6223SM   H9S 7938   3.551   1.011  16.277  0.8712  0.8409 -0.6733
   6223SM   H9T 7939   3.510   1.190  16.315 -1.2160  0.8251  2.5913
   6223SM  C10S 7940   3.358   1.075  16.220 -0.8034 -0.1648 -0.2926
   6223SM  H10S 7941   3.275   1.139  16.255  0.1683  0.4279  0.9874
   6223SM  H10T 7942   3.327   0.968  16.218  2.3325 -1.1822  0.7506
   6223SM  C11S 7943   3.389   1.123  16.078 -0.5968  0.5353  0.2256
   6223SM  H11S 7944   3.483   1.076  16.041  0.8359  3.2101  0.2151
   6223SM  H11T 7945   3.414   1.231  16.067 -0.0162  0.2958 -0.9152
   6223SM  C12S 7946   3.264   1.109  15.983  0.7372  0.6165 -0.0668
   6223SM  H12S 7947   3.189   1.181  16.022  3.5621  3.2983  0.8349
   6223SM  H12T 7948   3.224   1.007  16.000  2.8307 -0.3672 -0.7899
   6223SM  C13S 7949   3.297   1.124  15.833  0.4821 -0.1388 -0.1056
   6223SM  H13S 7950   3.345   1.223  15.819  1.0035 -0.6907 -2.9954
   6223SM  H13T 7951   3.201   1.121  15.776 -0.3443  1.6060  1.1078
   6223SM  C14S 7952   3.389   1.018  15.779  0.5725  1.1171 -0.6537
   6223SM  H14S 7953   3.332   0.922  15.780 -1.3707  2.2184  0.8196
   6223SM  H14T 7954   3.482   0.996  15.836  0.9585  0.4954 -1.4989
   6223SM  C15S 7955   3.430   1.042  15.632 -0.1891 -0.1492 -0.2366
   6223SM  H15S 7956   3.509   0.965  15.613  0.5275  0.8480 -1.4980
   6223SM  H15T 7957   3.468   1.145  15.618  0.2036 -0.3105 -0.3781
   6223SM  C16S 7958   3.315   1.018  15.535 -0.6211  0.1527 -0.0500
   6223SM  H16S 7959   3.244   1.104  15.528  1.5849  2.0140 -1.0623
   6223SM  H16T 7960   3.264   0.922  15.556 -0.5289 -0.1484 -1.1464
   6223SM  C17S 7961   3.357   1.021  15.384 -0.4610  0.5560  0.7986
   6223SM  H17S 7962   3.439   0.951  15.359  1.0986  3.0670 -1.6215
   6223SM  H17T 7963   3.394   1.125  15.372 -0.2649  0.4969  0.8954
   6223SM  C18S 7964   3.239   0.990  15.285  0.1539  0.0527 -0.6305
   6223SM  H18S 7965   3.229   0.880  15.292  0.8819 -0.1492 -2.2858
   6223SM  H18T 7966   3.263   1.022  15.181  1.0252  0.9182 -0.1818
   6223SM  H18U 7967   3.143   1.036  15.314  1.5184  1.5239  1.8477
   6223SM   C1F 7968   2.893   1.526  16.581 -0.7434 -0.1164  0.6999
   6223SM    OF 7969   2.977   1.617  16.571 -0.0465  0.3421  0.1917
   6223SM   C2F 7970   2.778   1.508  16.489 -0.4297  0.0622  0.4334
   6223SM   H2F 7971   2.726   1.604  16.469 -2.8887 -0.9202  1.6594
   6223SM   H2G 7972   2.701   1.458  16.552  0.1663 -1.0778  0.2793
   6223SM   C3F 7973   2.827   1.447  16.359  0.2298  0.0673 -0.4903
   6223SM   H3F 7974   2.878   1.351  16.382 -1.9063 -0.8991  0.5200
   6223SM   H3G 7975   2.910   1.512  16.324 -1.2014  1.7977 -0.8157
   6223SM   C4F 7976   2.722   1.424  16.250  0.3578  0.0127  0.1798
   6223SM   H4F 7977   2.628   1.475  16.281  0.7647  1.1546 -0.4072
   6223SM   H4G 7978   2.696   1.317  16.241 -0.3423  0.1793  0.1894
   6223SM   C5F 7979   2.760   1.474  16.113 -0.5569 -0.0585 -0.4852
   6223SM   H5F 7980   2.857   1.432  16.079 -0.5542 -0.5901  0.1667
   6223SM   H5G 7981   2.752   1.585  16.119 -1.3036 -0.0597 -1.2668
   6223SM   C6F 7982   2.646   1.435  16.009 -0.4845 -0.1589 -0.5824
   6223SM   H6F 7983   2.545   1.469  16.039  0.2883  2.1741 -0.3649
   6223SM   H6G 7984   2.630   1.325  16.010 -2.9481  0.1442  1.2308
   6223SM   C7F 7985   2.660   1.490  15.862 -0.5259 -0.1736  0.3936
   6223SM   H7F 7986   2.722   1.414  15.810 -0.2311 -0.8511  1.6770
   6223SM   H7G 7987   2.716   1.585  15.867  0.9994 -0.9513 -1.0080
   6223SM   C8F 7988   2.526   1.508  15.790 -0.5134 -0.4399  0.6159
   6223SM   H8F 7989   2.473   1.593  15.837  0.1818  1.5319 -1.9297
   6223SM   H8G 7990   2.458   1.420  15.796  1.6092 -2.2652 -0.6841
   6223SM   C9F 7991   2.540   1.540  15.638  0.4156 -0.5139 -0.3912
   6223SM   H9F 7992   2.440   1.532  15.590 -0.1452 -1.0773  0.8268
   6223SM   H9G 7993   2.596   1.451  15.601 -0.5868 -0.4719 -2.1280
   6223SM  C10F 7994   2.607   1.669  15.594  0.4695 -0.1301  0.2659
   6223SM  H10F 7995   2.712   1.668  15.633  0.4033  2.1223  0.6155
   6223SM  H10G 7996   2.547   1.759  15.618 -1.2318 -1.4505  1.1935
   6223SM  C11F 7997   2.627   1.659  15.438  0.2807  0.2158  0.3518
   6223SM  H11F 7998   2.638   1.762  15.398 -0.8530  0.9316  1.7812
   6223SM  H11G 7999   2.535   1.619  15.390  0.1746 -1.1584  1.6419
   6223SM  C12F 8000   2.747   1.567  15.398 -0.3940  0.8437  0.3651
   6223SM  H12F 8001   2.773   1.507  15.488  1.5418 -0.0477 -0.7141
   6223SM  H12G 8002   2.833   1.636  15.382  0.7754 -0.4636  0.7451
   6223SM  C13F 8003   2.710   1.481  15.274 -0.1326 -0.6094  0.3073
   6223SM  H13F 8004   2.611   1.433  15.285 -1.9593  2.2338 -1.8854
   6223SM  H13G 8005   2.774   1.395  15.245 -0.7743 -1.2789  0.8447
   6223SM  C14F 8006   2.696   1.577  15.152  0.3766 -0.4146 -0.7448
   6223SM  H14F 8007   2.792   1.632  15.141 -0.0572  0.8433  1.2393
   6223SM  H14G 8008   2.630   1.665  15.160  0.3663 -0.3930 -1.0651
   6223SM  C15F 8009   2.659   1.502  15.024 -0.5172  0.3066 -0.0466
   6223SM  H15F 8010   2.582   1.428  15.054 -1.8104  0.8106 -1.9654
   6223SM  H15G 8011   2.747   1.439  14.998 -0.9191  0.6591 -2.4536
   6223SM  C16F 8012   2.611   1.590  14.907 -0.3042 -0.2448 -0.4589
   6223SM  H16F 8013   2.509   1.627  14.930 -0.1811  0.1126 -0.4883
   6223SM  H16G 8014   2.617   1.529  14.814 -0.9787 -2.2730  0.7652
   6223SM  C17F 8015   2.704   1.714  14.893  0.1391  0.3033  0.1570
   6223SM  H17F 8016   2.811   1.688  14.907  0.0635  0.1847  0.5295
   6223SM  H17G 8017   2.674   1.786  14.973 -0.5740  0.7938 -0.5290
   6223SM  C18F 8018   2.691   1.774  14.755  0.1720  0.1918  0.3218
   6223SM  H18F 8019   2.735   1.877  14.757  0.6880 -0.0237  0.3080
   6223SM  H18G 8020   2.582   1.773  14.736  0.3161 -0.9153 -0.5602
   6223SM  C19F 8021   2.751   1.691  14.635  0.8163 -0.2023 -0.5271
   6223SM  H19F 8022   2.701   1.593  14.641 -0.8968  0.6674 -0.0421
   6223SM  H19G 8023   2.861   1.672  14.643  0.9478  0.8737  0.4426
   6223SM  C20F 8024   2.728   1.749  14.499 -1.0366 -0.8180  0.1153
   6223SM  H20F 8025   2.740   1.859  14.506 -2.8507 -0.5463 -0.4534
   6223SM  H20G 8026   2.619   1.741  14.476 -1.1571 -0.1578  0.4313
   6223SM  C21F 8027   2.813   1.693  14.383  0.1995  0.7499  0.3161
   6223SM  H21F 8028   2.772   1.731  14.286  0.9681 -1.2256 -0.8359
   6223SM  H21G 8029   2.799   1.584  14.368  0.4981  0.9375 -1.6437
   6223SM  C22F 8030   2.962   1.731  14.393  0.0763  0.0439  0.3731
   6223SM  H22F 8031   3.018   1.680  14.312 -4.2357 -1.4172 -1.9532
   6223SM  H22G 8032   3.007   1.712  14.493  0.0940 -1.0626  0.1615
   6223SM  C23F 8033   2.989   1.881  14.363  0.0879  0.0620 -0.3996
   6223SM  H23F 8034   3.095   1.907  14.344 -0.9229  1.9124 -4.7973
   6223SM  H23G 8035   2.951   1.943  14.446  1.9141 -0.7911  1.1523
   6223SM  H23H 8036   2.924   1.905  14.276  0.4872 -0.8598 -0.9715
   6323SM     N 8037   3.510   2.920  16.873  0.0585  0.4979 -0.6134
   6323SM   C15 8038   3.532   2.906  16.733 -0.2479 -0.4180 -0.1154
   6323SM  H15A 8039   3.461   2.966  16.678  0.0354 -0.6939 -0.7980
   6323SM  H15B 8040   3.527   2.804  16.696 -0.2188  0.2977 -2.2061
   6323SM  H15C 8041   3.625   2.956  16.713  0.4536 -2.0767 -1.2398
   6323SM   C14 8042   3.618   2.852  16.956  0.5389  0.5064  0.0729
   6323SM  H14A 8043   3.605   2.883  17.058  1.1272 -0.0282  0.3178
   6323SM  H14B 8044   3.714   2.870  16.912  0.0738 -1.4199 -1.9368
   6323SM  H14C 8045   3.609   2.744  16.957 -0.2062  0.4934 -2.0698
   6323SM   C13 8046   3.513   3.070  16.910  0.9521  0.7219  0.7725
   6323SM  H13A 8047   3.425   3.119  16.873  0.6239 -1.0598 -1.0099
   6323SM  H13B 8048   3.600   3.115  16.864  0.1923  1.6901  0.2437
   6323SM  H13C 8049   3.509   3.064  17.018  0.2009 -1.4446  0.6811
   6323SM   C12 8050   3.367   2.866  16.915 -0.3066  0.1377  0.2087
   6323SM  H12A 8051   3.358   2.884  17.021  1.3725  0.5821  0.3142
   6323SM  H12B 8052   3.360   2.760  16.894  0.6488  0.4119 -1.6768
   6323SM   C11 8053   3.239   2.931  16.848  0.8870 -0.3920  0.0101
   6323SM  H11A 8054   3.149   2.871  16.872  1.1192 -0.5307  0.5545
   6323SM  H11B 8055   3.259   2.936  16.739 -0.2589  1.8815 -0.1550
   6323SM     P 8056   3.116   3.162  16.870  0.3147 -0.3477 -0.4296
   6323SM   O13 8057   3.001   3.141  16.955 -0.1160  0.5139  0.1732
   6323SM   O14 8058   3.171   3.300  16.869 -0.2538 -0.1233  0.3588
   6323SM   O11 8059   3.072   3.123  16.723  0.3877 -0.0723  0.7192
   6323SM   O12 8060   3.223   3.060  16.907  0.7102  0.5641  0.1737
   6323SM   C1S 8061   3.140   3.192  16.623 -0.1467  0.4140  0.6459
   6323SM   H1S 8062   3.251   3.184  16.633 -0.1303  1.1234  1.0632
   6323SM   H1T 8063   3.108   3.298  16.617 -2.2696 -0.2605 -1.8496
   6323SM    NF 8064   3.191   3.215  16.383 -0.3012  0.0885  0.3681
   6323SM   HNF 8065   3.155   3.277  16.313  0.2303 -1.2720 -1.1794
   6323SM   C2S 8066   3.112   3.138  16.477 -0.5318 -0.2576 -0.5579
   6323SM   H2S 8067   3.146   3.034  16.461  2.5756  0.2205  1.8004
   6323SM   C3S 8068   2.956   3.145  16.456 -0.3858  0.4578 -0.0965
   6323SM   H3S 8069   2.931   3.252  16.439  0.9330  0.6372 -1.0875
   6323SM    O3 8070   2.871   3.106  16.567  0.0295 -0.3080  0.4112
   6323SM   HO3 8071   2.927   3.108  16.645  0.1750 -0.9439  0.3248
   6323SM   C4S 8072   2.919   3.089  16.324  0.0044  0.0031  0.2402
   6323SM   H4S 8073   2.934   3.160  16.241  2.3283 -0.7577 -0.0671
   6323SM   C5S 8074   2.862   2.968  16.298  0.0278  0.3397  0.0461
   6323SM   H5S 8075   2.843   2.907  16.387  2.0620  0.4560  0.6146
   6323SM   C6S 8076   2.815   2.914  16.161 -0.1459  0.1623 -0.1786
   6323SM   H6S 8077   2.710   2.878  16.156 -0.3785  0.8311 -0.2174
   6323SM   H6T 8078   2.875   2.821  16.152 -2.8498 -1.9246  1.6264
   6323SM   C7S 8079   2.871   2.984  16.035  0.2743  0.0729  0.4128
   6323SM   H7S 8080   2.978   3.007  16.053  0.7613 -1.8582  0.2270
   6323SM   H7T 8081   2.827   3.084  16.017  2.3889  0.5820 -2.7714
   6323SM   C8S 8082   2.855   2.909  15.899  0.2365 -0.1344 -0.4717
   6323SM   H8S 8083   2.760   2.852  15.890  1.4990 -2.3988 -0.3771
   6323SM   H8T 8084   2.938   2.835  15.906  0.5337  0.2226 -0.1297
   6323SM   C9S 8085   2.871   2.992  15.769 -0.0322 -0.3068 -0.3880
   6323SM   H9S 8086   2.948   3.073  15.769 -0.5264  0.1799 -1.2853
   6323SM   H9T 8087   2.777   3.045  15.743  0.5719  0.3165 -1.3676
   6323SM  C10S 8088   2.915   2.906  15.657 -0.3901 -0.0491 -0.3994
   6323SM  H10S 8089   2.853   2.815  15.643  0.9760 -1.2539  0.9846
   6323SM  H10T 8090   3.012   2.856  15.679 -0.9353 -0.3590  1.4326
   6323SM  C11S 8091   2.918   2.992  15.531  0.8085 -0.4373 -0.5837
   6323SM  H11S 8092   2.991   3.076  15.531 -1.3425  1.5642 -1.8238
   6323SM  H11T 8093   2.823   3.048  15.518  0.6289 -0.3936  0.7388
   6323SM  C12S 8094   2.938   2.905  15.414  0.0789 -0.5925  0.6006
   6323SM  H12S 8095   2.869   2.819  15.410 -0.7647  0.1174 -1.8782
   6323SM  H12T 8096   3.043   2.870  15.411  0.2017 -0.2418  0.6664
   6323SM  C13S 8097   2.913   2.998  15.288 -0.2028  0.1053 -0.3672
   6323SM  H13S 8098   3.001   3.065  15.294 -0.3895  0.3583 -0.4445
   6323SM  H13T 8099   2.811   3.043  15.290 -0.9280 -1.4682 -0.6946
   6323SM  C14S 8100   2.912   2.915  15.151 -0.5162 -0.2277 -0.4794
   6323SM  H14S 8101   2.870   2.817  15.183  0.2508 -0.6065 -0.6219
   6323SM  H14T 8102   3.014   2.897  15.111 -0.5467 -2.5868  0.3637
   6323SM  C15S 8103   2.830   2.979  15.043 -0.4492  0.1278 -0.8025
   6323SM  H15S 8104   2.725   2.999  15.073 -0.5084 -0.3425 -0.6946
   6323SM  H15T 8105   2.831   2.913  14.954  0.6313 -2.2105  0.8539
   6323SM  C16S 8106   2.868   3.117  15.001 -0.5030  0.3508 -0.7865
   6323SM  H16S 8107   2.978   3.128  14.987  0.0676 -1.4770  1.6625
   6323SM  H16T 8108   2.838   3.191  15.078  2.9314  0.4400  0.6531
   6323SM  C17S 8109   2.796   3.158  14.869 -0.5706  0.4524 -0.0978
   6323SM  H17S 8110   2.830   3.264  14.866  2.7735 -0.4060  2.1508
   6323SM  H17T 8111   2.686   3.157  14.886 -0.3261  1.0306  1.7573
   6323SM  C18S 8112   2.848   3.091  14.741 -0.0212 -0.3323 -0.5807
   6323SM  H18S 8113   2.959   3.093  14.736  0.0406 -1.1328  0.2957
   6323SM  H18T 8114   2.797   3.148  14.660  2.5065  3.1424  0.0451
   6323SM  H18U 8115   2.813   2.986  14.735  0.6566 -0.6002  0.0562
   6323SM   C1F 8116   3.326   3.218  16.389 -0.2376  0.1994 -0.4629
   6323SM    OF 8117   3.385   3.130  16.449 -0.2490  0.1136  0.0136
   6323SM   C2F 8118   3.399   3.313  16.302 -0.7146 -0.2094 -0.1464
   6323SM   H2F 8119   3.372   3.272  16.202  1.7426 -1.2105 -0.4540
   6323SM   H2G 8120   3.509   3.299  16.307 -0.6320  0.7601  1.7481
   6323SM   C3F 8121   3.359   3.462  16.321  0.2691 -0.2431 -0.2147
   6323SM   H3F 8122   3.372   3.491  16.427 -0.4995 -1.2734  0.1805
   6323SM   H3G 8123   3.251   3.476  16.301  0.3693  2.5726  0.7728
   6323SM   C4F 8124   3.431   3.570  16.247  0.2264 -0.3893  0.2822
   6323SM   H4F 8125   3.539   3.581  16.272 -0.0115 -0.2623  1.2824
   6323SM   H4G 8126   3.380   3.667  16.259 -0.0897 -0.2087 -2.0800
   6323SM   C5F 8127   3.426   3.543  16.094 -0.0329  0.0300  0.1802
   6323SM   H5F 8128   3.326   3.565  16.052  0.2280  1.1640  0.1088
   6323SM   H5G 8129   3.450   3.438  16.066 -2.0525 -0.5060  0.3604
   6323SM   C6F 8130   3.509   3.647  16.019 -0.1641  0.5020  0.2800
   6323SM   H6F 8131   3.616   3.628  16.042 -0.4221 -0.7294  0.5268
   6323SM   H6G 8132   3.473   3.746  16.054 -1.2310  0.4814 -0.6820
   6323SM   C7F 8133   3.496   3.628  15.864 -0.1247  0.1740 -0.6776
   6323SM   H7F 8134   3.534   3.722  15.819 -0.4869  1.1428  0.9495
   6323SM   H7G 8135   3.388   3.615  15.841 -0.7660  0.1703  1.9523
   6323SM   C8F 8136   3.577   3.518  15.806 -0.2202 -0.3967 -0.1443
   6323SM   H8F 8137   3.550   3.417  15.842 -1.1680 -0.3279 -0.6284
   6323SM   H8G 8138   3.682   3.536  15.836 -0.0110 -1.8323  0.0286
   6323SM   C9F 8139   3.576   3.512  15.650 -0.3178  0.5865  0.1577
   6323SM   H9F 8140   3.604   3.609  15.603 -1.5995  1.0007  0.2291
   6323SM   H9G 8141   3.477   3.487  15.607  0.1935  1.8022 -1.8526
   6323SM  C10F 8142   3.680   3.417  15.591 -0.3595  0.5136 -0.8740
   6323SM  H10F 8143   3.652   3.320  15.637  3.1456  0.3496  1.2509
   6323SM  H10G 8144   3.775   3.449  15.638  0.4963 -1.4263 -1.2015
   6323SM  C11F 8145   3.692   3.411  15.447 -0.2544 -0.3195  0.0602
   6323SM  H11F 8146   3.738   3.505  15.410  1.7956 -1.0907  0.4854
   6323SM  H11G 8147   3.587   3.412  15.409 -1.1686  0.4211  2.4607
   6323SM  C12F 8148   3.765   3.289  15.397  0.0197  0.1047 -0.2086
   6323SM  H12F 8149   3.713   3.191  15.405  2.5662 -1.4694 -1.3957
   6323SM  H12G 8150   3.867   3.295  15.442 -0.1887  2.4718  0.0448
   6323SM  C13F 8151   3.785   3.294  15.245 -0.2446 -0.2949  0.0624
   6323SM  H13F 8152   3.878   3.236  15.223 -1.6307 -2.5109 -0.2981
   6323SM  H13G 8153   3.788   3.401  15.217 -3.1920 -0.5847 -1.7490
   6323SM  C14F 8154   3.663   3.241  15.161 -0.3241 -0.0256 -0.6430
   6323SM  H14F 8155   3.582   3.316  15.179 -0.0280 -0.0701  1.0735
   6323SM  H14G 8156   3.613   3.151  15.202 -0.0573 -0.5804 -1.5208
   6323SM  C15F 8157   3.693   3.217  15.010  0.6165  0.2274 -0.5517
   6323SM  H15F 8158   3.598   3.183  14.962 -0.5476  0.4328  1.4863
   6323SM  H15G 8159   3.764   3.132  15.016 -0.0762 -0.4953 -1.9628
   6323SM  C16F 8160   3.748   3.338  14.946  0.4876  0.3765  1.2330
   6323SM  H16F 8161   3.834   3.367  15.009 -1.0940  0.6687  3.3383
   6323SM  H16G 8162   3.674   3.421  14.941  0.3289  0.2738  1.8424
   6323SM  C17F 8163   3.791   3.317  14.793 -0.2581  1.0131 -0.4364
   6323SM  H17F 8164   3.847   3.222  14.778  0.6853  1.6096 -0.8018
   6323SM  H17G 8165   3.853   3.407  14.770 -0.4211  0.8675 -1.5171
   6323SM  C18F 8166   3.664   3.318  14.709  0.0045 -0.9882  0.6854
   6323SM  H18F 8167   3.611   3.412  14.737  0.3052 -0.7567  0.4838
   6323SM  H18G 8168   3.586   3.241  14.726 -1.2636  0.0185 -0.3030
   6323SM  C19F 8169   3.704   3.337  14.563 -0.3940  0.0887 -0.3430
   6323SM  H19F 8170   3.777   3.255  14.546  0.6680  1.1047 -0.8746
   6323SM  H19G 8171   3.758   3.434  14.559  1.0841 -0.6493  0.6742
   6323SM  C20F 8172   3.586   3.335  14.468 -0.5258 -0.0766 -0.5492
   6323SM  H20F 8173   3.533   3.238  14.476  1.6694 -1.2986 -0.1946
   6323SM  H20G 8174   3.615   3.351  14.362  1.8457 -0.5147 -0.0208
   6323SM  C21F 8175   3.485   3.441  14.491  0.3196 -0.0250 -0.3721
   6323SM  H21F 8176   3.452   3.429  14.597  0.5444  0.8669 -0.1885
   6323SM  H21G 8177   3.410   3.419  14.413 -1.8129  1.7564  1.0567
   6323SM  C22F 8178   3.525   3.586  14.465 -0.2917 -0.1858 -0.0953
   6323SM  H22F 8179   3.577   3.594  14.367  0.0462  2.7380  0.2176
   6323SM  H22G 8180   3.601   3.618  14.539  0.2128  0.8955 -1.0423
   6323SM  C23F 8181   3.407   3.677  14.459  0.0621  0.3544 -0.4817
   6323SM  H23F 8182   3.331   3.669  14.539  0.3973  1.1026 -0.0796
   6323SM  H23G 8183   3.358   3.663  14.361  2.1284 -1.9254 -1.2996
   6323SM  H23H 8184   3.445   3.781  14.465  0.6710  0.0592  1.7163
   6423SM     N 8185   4.826   2.288  17.515  0.3944 -0.1689  0.0763
   6423SM   C15 8186   4.727   2.378  17.581  0.1554 -0.1672 -0.2039
   6423SM  H15A 8187   4.764   2.397  17.681 -0.0454 -1.1532  0.0689
   6423SM  H15B 8188   4.631   2.328  17.578  0.5627 -1.1025  1.2675
   6423SM  H15C 8189   4.711   2.469  17.525 -2.9101 -0.3064  0.2339
   6423SM   C14 8190   4.955   2.357  17.511  0.4101 -0.3192 -0.2747
   6423SM  H14A 8191   4.941   2.463  17.496  1.6757 -0.0802  0.0889
   6423SM  H14B 8192   5.007   2.314  17.426 -0.8197 -0.4326 -1.0045
   6423SM  H14C 8193   5.018   2.344  17.598 -0.6296  0.3744  0.6062
   6423SM   C13 8194   4.838   2.159  17.603  0.4348  0.2013  0.7839
   6423SM  H13A 8195   4.882   2.074  17.553 -0.1405  0.1359  0.3726
   6423SM  H13B 8196   4.736   2.131  17.626  0.3574 -1.5584 -1.3162
   6423SM  H13C 8197   4.895   2.174  17.693  0.3746 -1.8379  1.2185
   6423SM   C12 8198   4.783   2.260  17.379  0.7951  0.2257  1.0216
   6423SM  H12A 8199   4.743   2.351  17.336  0.5645 -0.1776  0.3560
   6423SM  H12B 8200   4.695   2.198  17.381  0.9871 -0.2411 -1.4248
   6423SM   C11 8201   4.880   2.195  17.271 -0.3697  0.3632 -0.2781
   6423SM  H11A 8202   4.821   2.144  17.191  0.5659 -0.7057 -0.3193
   6423SM  H11B 8203   4.936   2.123  17.334 -1.3046  0.3085  0.5040
   6423SM     P 8204   4.915   2.394  17.113 -0.1982  0.6091 -0.1167
   6423SM   O13 8205   4.767   2.371  17.108 -0.4070 -0.4342 -0.3561
   6423SM   O14 8206   4.963   2.533  17.138 -0.4128  0.0918  0.1756
   6423SM   O11 8207   4.982   2.353  16.977 -0.0011 -0.2660  0.1270
   6423SM   O12 8208   4.971   2.296  17.221 -0.3606 -0.0698  0.2309
   6423SM   C1S 8209   4.964   2.215  16.935  0.1649  0.1976 -0.3990
   6423SM   H1S 8210   4.857   2.205  16.908 -0.1414  0.3340  0.7011
   6423SM   H1T 8211   4.975   2.137  17.013 -2.2081 -0.3082 -0.4785
   6423SM    NF 8212   4.997   2.055  16.740  0.5646 -0.2199  0.4417
   6423SM   HNF 8213   5.057   1.978  16.763 -1.1335 -1.8475 -0.2630
   6423SM   C2S 8214   5.049   2.178  16.808  0.3042 -0.3843 -0.3260
   6423SM   H2S 8215   5.041   2.263  16.736  1.6683  0.9123  0.9676
   6423SM   C3S 8216   5.194   2.166  16.846  0.2062  0.0718  0.0802
   6423SM   H3S 8217   5.194   2.078  16.913 -3.3446  1.1646  1.7634
   6423SM    O3 8218   5.241   2.274  16.926  0.2891  0.3362  0.8377
   6423SM   HO3 8219   5.159   2.314  16.954 -0.1411 -0.8378  1.3363
   6423SM   C4S 8220   5.284   2.151  16.730 -0.2489  0.3917  0.2898
   6423SM   H4S 8221   5.333   2.053  16.726  0.3400  0.6127  1.6109
   6423SM   C5S 8222   5.294   2.230  16.623  0.9252  0.8995  0.2781
   6423SM   H5S 8223   5.229   2.318  16.607  1.3694  1.0703 -0.7031
   6423SM   C6S 8224   5.377   2.187  16.500  0.2430 -0.4081 -0.3120
   6423SM   H6S 8225   5.448   2.106  16.524  2.8790  1.4963 -1.1933
   6423SM   H6T 8226   5.432   2.279  16.470 -1.8438  1.2087  0.4887
   6423SM   C7S 8227   5.285   2.157  16.374  0.2454 -0.4678  0.4868
   6423SM   H7S 8228   5.201   2.228  16.360 -0.2152 -0.7777  1.5504
   6423SM   H7T 8229   5.242   2.055  16.384  0.3795 -0.6645 -0.8678
   6423SM   C8S 8230   5.372   2.157  16.244  0.0859  0.5365 -0.4116
   6423SM   H8S 8231   5.439   2.070  16.256 -1.9545 -1.0344  0.1464
   6423SM   H8T 8232   5.443   2.243  16.249  0.6149  0.0778  0.2350
   6423SM   C9S 8233   5.293   2.139  16.118 -0.3016 -0.7218  0.1435
   6423SM   H9S 8234   5.214   2.216  16.123  2.2939  2.1774 -0.2291
   6423SM   H9T 8235   5.244   2.039  16.118 -1.4019 -0.2159 -1.0060
   6423SM  C10S 8236   5.370   2.182  15.990 -0.3027  0.4944 -0.6211
   6423SM  H10S 8237   5.458   2.117  15.974  0.3762  1.0776  0.6128
   6423SM  H10T 8238   5.403   2.286  16.007  1.4499  0.1878 -1.8689
   6423SM  C11S 8239   5.280   2.174  15.863 -0.5153 -0.3476 -0.2195
   6423SM  H11S 8240   5.204   2.254  15.876  0.3961  0.2518  1.6602
   6423SM  H11T 8241   5.225   2.077  15.867 -2.1983  0.6275  1.5088
   6423SM  C12S 8242   5.367   2.201  15.739 -0.5702 -0.2538  0.5561
   6423SM  H12S 8243   5.452   2.129  15.740  0.4381  0.8917  0.0883
   6423SM  H12T 8244   5.419   2.298  15.755 -1.6084  0.0694  2.1894
   6423SM  C13S 8245   5.291   2.193  15.609 -0.0442 -0.1835  0.2371
   6423SM  H13S 8246   5.209   2.268  15.608 -1.3654 -1.5114  2.4060
   6423SM  H13T 8247   5.241   2.095  15.613 -0.3348 -0.0853 -0.7002
   6423SM  C14S 8248   5.385   2.199  15.487  0.5177  0.0327  0.1304
   6423SM  H14S 8249   5.464   2.122  15.481  1.2841  0.9452 -3.1484
   6423SM  H14T 8250   5.419   2.305  15.489 -0.9789  0.5443  0.7510
   6423SM  C15S 8251   5.300   2.190  15.360 -0.4462  0.2418  0.3098
   6423SM  H15S 8252   5.244   2.286  15.352  1.0177  1.0631 -0.5926
   6423SM  H15T 8253   5.238   2.098  15.361  0.9296 -0.7314 -0.4992
   6423SM  C16S 8254   5.382   2.182  15.226  0.2197 -1.0139 -0.9101
   6423SM  H16S 8255   5.469   2.113  15.225  0.7746 -0.3535 -2.6619
   6423SM  H16T 8256   5.429   2.281  15.209  1.3078 -1.3891 -0.2009
   6423SM  C17S 8257   5.301   2.128  15.104 -0.1417  0.4833  0.0189
   6423SM  H17S 8258   5.369   2.135  15.017 -0.3762 -0.9900 -0.3252
   6423SM  H17T 8259   5.215   2.194  15.084  0.5033  1.2609 -0.2464
   6423SM  C18S 8260   5.244   1.982  15.104 -0.0329  0.2921 -0.4478
   6423SM  H18S 8261   5.226   1.955  14.997 -0.9102 -0.1302 -0.2069
   6423SM  H18T 8262   5.143   1.979  15.150  0.5066 -0.6410  0.7140
   6423SM  H18U 8263   5.318   1.920  15.159 -1.8593 -1.4458  0.1553
   6423SM   C1F 8264   4.873   2.051  16.684 -0.3415  0.3863  0.0148
   6423SM    OF 8265   4.806   2.153  16.669 -0.2779  0.1827 -0.3224
   6423SM   C2F 8266   4.808   1.916  16.641 -1.0761 -0.2452  0.4099
   6423SM   H2F 8267   4.701   1.920  16.671 -0.6724 -0.5763  1.9763
   6423SM   H2G 8268   4.862   1.835  16.694 -0.3980  0.0852  0.2342
   6423SM   C3F 8269   4.817   1.895  16.490 -0.6533  0.5789  0.2224
   6423SM   H3F 8270   4.765   1.974  16.431  1.5653  1.0817 -1.1795
   6423SM   H3G 8271   4.775   1.798  16.455 -1.0609  0.9879 -0.4532
   6423SM   C4F 8272   4.957   1.918  16.431 -0.2515 -0.0154 -0.1172
   6423SM   H4F 8273   5.029   1.854  16.486 -1.1740 -1.0960 -0.1245
   6423SM   H4G 8274   4.982   2.023  16.458 -0.6732 -0.6815  3.2521
   6423SM   C5F 8275   4.961   1.891  16.280  0.0951  0.4486  0.3582
   6423SM   H5F 8276   4.915   1.791  16.271  0.6997  0.2140 -0.1960
   6423SM   H5G 8277   5.063   1.892  16.237  0.3316 -0.1279  0.9059
   6423SM   C6F 8278   4.897   2.005  16.189 -1.0465  0.4786 -0.6879
   6423SM   H6F 8279   4.961   2.093  16.211 -0.3201 -0.4896  1.3071
   6423SM   H6G 8280   4.793   2.028  16.221 -0.6315  2.7544 -0.7887
   6423SM   C7F 8281   4.904   1.972  16.040  0.0139 -0.7676 -1.0640
   6423SM   H7F 8282   4.861   1.869  16.037  2.1721 -1.7855  0.0179
   6423SM   H7G 8283   5.008   1.961  16.002  0.4386  0.7045 -0.3924
   6423SM   C8F 8284   4.844   2.084  15.954  0.5736  0.3503 -0.9213
   6423SM   H8F 8285   4.912   2.172  15.957  2.4642 -1.0724  0.4019
   6423SM   H8G 8286   4.750   2.125  15.996  0.8024  2.3855 -2.2839
   6423SM   C9F 8287   4.830   2.037  15.806 -0.1013  0.1420  0.0902
   6423SM   H9F 8288   4.722   2.013  15.793 -0.5533  1.3298  1.3514
   6423SM   H9G 8289   4.894   1.948  15.791  0.0627  0.5389 -1.9631
   6423SM  C10F 8290   4.861   2.142  15.698  0.2274  0.0833  0.2884
   6423SM  H10F 8291   4.970   2.158  15.703  0.4548 -0.1103 -2.5279
   6423SM  H10G 8292   4.804   2.234  15.724 -1.8267 -1.3472  1.1446
   6423SM  C11F 8293   4.830   2.096  15.555  0.6569 -0.1200  0.6042
   6423SM  H11F 8294   4.723   2.104  15.526  0.1324 -2.9278  1.4077
   6423SM  H11G 8295   4.851   1.987  15.545  0.7091 -0.0261 -0.3866
   6423SM  C12F 8296   4.916   2.177  15.453  0.4147 -0.1241 -0.0755
   6423SM  H12F 8297   5.020   2.155  15.486 -0.2689 -1.6042  1.1694
   6423SM  H12G 8298   4.892   2.286  15.455 -0.3348 -0.2925  0.5799
   6423SM  C13F 8299   4.907   2.123  15.311 -0.7436  0.5294 -0.3965
   6423SM  H13F 8300   4.945   2.021  15.289  0.8251  0.2541  2.9420
   6423SM  H13G 8301   4.983   2.178  15.252  0.1617 -1.4998 -1.2268
   6423SM  C14F 8302   4.770   2.133  15.254 -0.3653 -0.1288  0.6044
   6423SM  H14F 8303   4.735   2.237  15.267  0.9482  0.4679 -0.3739
   6423SM  H14G 8304   4.696   2.071  15.309 -0.1380 -0.6207  0.3615
   6423SM  C15F 8305   4.760   2.078  15.111 -0.1292  0.4107  0.1326
   6423SM  H15F 8306   4.661   2.096  15.064 -0.1204  1.9129  0.6460
   6423SM  H15G 8307   4.779   1.969  15.124  1.3863  0.6166 -0.1022
   6423SM  C16F 8308   4.857   2.130  15.007 -0.2590 -0.0649  0.4041
   6423SM  H16F 8309   4.962   2.107  15.035 -0.4536  0.9796  2.0878
   6423SM  H16G 8310   4.844   2.241  15.009 -1.6438 -0.2251  2.5065
   6423SM  C17F 8311   4.838   2.070  14.860 -0.6664 -0.0523 -0.1362
   6423SM  H17F 8312   4.938   2.098  14.821 -0.2777 -1.3517 -0.1176
   6423SM  H17G 8313   4.754   2.127  14.815  0.6548  2.4463  0.3354
   6423SM  C18F 8314   4.819   1.917  14.852  0.1600  0.2017  0.2623
   6423SM  H18F 8315   4.732   1.887  14.915  0.2545  0.7507  0.6630
   6423SM  H18G 8316   4.902   1.865  14.904 -0.4966  0.1686  1.3046
   6423SM  C19F 8317   4.814   1.864  14.709 -0.7803 -0.0001  0.0827
   6423SM  H19F 8318   4.917   1.882  14.672 -0.6213  2.3468  1.5318
   6423SM  H19G 8319   4.748   1.925  14.643  1.1392 -0.1400 -2.1269
   6423SM  C20F 8320   4.795   1.709  14.690 -0.5006  0.1940 -0.2122
   6423SM  H20F 8321   4.686   1.696  14.703 -0.5087  1.7072  1.7918
   6423SM  H20G 8322   4.843   1.658  14.776 -0.4022 -0.6763 -0.7685
   6423SM  C21F 8323   4.843   1.658  14.559  0.3095  0.4624  0.3071
   6423SM  H21F 8324   4.945   1.695  14.539  0.1286  0.7421 -0.1101
   6423SM  H21G 8325   4.779   1.698  14.477  0.1280  2.2692  1.2722
   6423SM  C22F 8326   4.850   1.504  14.548 -0.1631  0.5142  0.5262
   6423SM  H22F 8327   4.741   1.483  14.554 -0.5981  2.7221  1.2852
   6423SM  H22G 8328   4.914   1.458  14.626  1.2145  0.2974 -0.6822
   6423SM  C23F 8329   4.892   1.448  14.411 -0.2570  0.0091  0.0284
   6423SM  H23F 8330   4.837   1.352  14.400 -0.5906  0.3859 -1.8290
   6423SM  H23G 8331   5.001   1.425  14.405  0.1615  1.4971  1.2566
   6423SM  H23H 8332   4.855   1.515  14.331 -0.1579 -1.0920 -0.9771
   6523SM     N 8333   4.247   3.189  17.074  0.1838  0.5579  0.0638
   6523SM   C15 8334   4.131   3.241  17.154 -0.4552 -0.0181  0.2500
   6523SM  H15A 8335   4.125   3.177  17.241  2.9252  0.9932  1.3582
   6523SM  H15B 8336   4.039   3.240  17.097 -0.9194  1.4771  0.9302
   6523SM  H15C 8337   4.147   3.341  17.189  1.1772  0.0165 -0.5011
   6523SM   C14 8338   4.380   3.210  17.146  0.0430  0.1895 -0.1960
   6523SM  H14A 8339   4.390   3.155  17.238  0.2766  0.6933  0.0860
   6523SM  H14B 8340   4.388   3.316  17.167  0.3938 -0.0829  1.1722
   6523SM  H14C 8341   4.467   3.175  17.092 -2.1538 -1.8253 -2.7075
   6523SM   C13 8342   4.220   3.043  17.058 -0.0287  0.2675 -0.3174
   6523SM  H13A 8343   4.253   2.988  17.145  0.0387  1.8354  0.6856
   6523SM  H13B 8344   4.275   3.002  16.974  0.9159 -1.0315  0.8894
   6523SM  H13C 8345   4.115   3.029  17.040 -0.3722  1.2047  0.8149
   6523SM   C12 8346   4.245   3.268  16.946  0.4319  1.1704  0.3232
   6523SM  H12A 8347   4.273   3.367  16.978  1.6003  1.1444 -0.5303
   6523SM  H12B 8348   4.146   3.269  16.902 -0.4112 -0.8118  2.0071
   6523SM   C11 8349   4.351   3.228  16.836 -0.8152 -0.5317 -0.2901
   6523SM  H11A 8350   4.329   3.303  16.757  0.1308  1.0874  0.9157
   6523SM  H11B 8351   4.335   3.127  16.792  1.1373 -0.4742 -1.2309
   6523SM     P 8352   4.579   3.341  16.882 -0.0225  0.1470 -0.0624
   6523SM   O13 8353   4.514   3.470  16.920 -0.2251  0.8733 -0.2056
   6523SM   O14 8354   4.699   3.314  16.964 -0.1394 -0.5854  0.2290
   6523SM   O11 8355   4.618   3.352  16.735 -0.0084 -0.2231 -0.2517
   6523SM   O12 8356   4.484   3.215  16.877 -0.0584  0.6004  0.3253
   6523SM   C1S 8357   4.695   3.239  16.675  0.9350  0.1502 -0.0945
   6523SM   H1S 8358   4.647   3.140  16.691  0.5615  0.0315 -1.7176
   6523SM   H1T 8359   4.796   3.235  16.720  0.3968 -1.0925  1.0469
   6523SM    NF 8360   4.722   3.130  16.456  0.2925 -0.0810  0.5936
   6523SM   HNF 8361   4.802   3.125  16.396  1.0056 -0.3929  1.5286
   6523SM   C2S 8362   4.703   3.260  16.520 -0.0928  0.0853  0.1410
   6523SM   H2S 8363   4.606   3.302  16.485  1.1843  2.5444 -0.7359
   6523SM   C3S 8364   4.808   3.371  16.497  0.0847  0.0412  0.8265
   6523SM   H3S 8365   4.906   3.319  16.504  1.3857  2.2713  0.0764
   6523SM    O3 8366   4.817   3.476  16.594  0.2900  0.2639  0.1133
   6523SM   HO3 8367   4.767   3.435  16.666  0.8585  0.2783  0.5216
   6523SM   C4S 8368   4.799   3.431  16.354  0.7627 -0.0737 -0.2665
   6523SM   H4S 8369   4.859   3.386  16.273 -1.0372  1.2890 -2.4807
   6523SM   C5S 8370   4.727   3.541  16.310  0.2198  0.0845 -0.3420
   6523SM   H5S 8371   4.668   3.599  16.383  0.2957  1.1352 -1.0886
   6523SM   C6S 8372   4.730   3.601  16.170 -0.2551  0.0880 -0.5099
   6523SM   H6S 8373   4.813   3.675  16.173  2.9408 -3.1849 -1.1389
   6523SM   H6T 8374   4.637   3.654  16.143 -0.3628  0.7342  1.0557
   6523SM   C7S 8375   4.776   3.501  16.060  0.0073  0.6108 -0.2189
   6523SM   H7S 8376   4.698   3.422  16.050  1.2153 -0.8599  1.3618
   6523SM   H7T 8377   4.868   3.449  16.092 -0.1725 -0.2603 -1.0720
   6523SM   C8S 8378   4.818   3.569  15.930  0.2421  0.1286  0.0323
   6523SM   H8S 8379   4.908   3.629  15.957  1.2500 -1.0946 -0.5093
   6523SM   H8T 8380   4.731   3.629  15.896  0.0199  0.5374  1.2911
   6523SM   C9S 8381   4.848   3.460  15.826 -0.0466 -0.0579 -0.4366
   6523SM   H9S 8382   4.750   3.413  15.802  0.0150 -1.0910  1.1810
   6523SM   H9T 8383   4.911   3.377  15.864 -1.7992 -0.9736  0.6162
   6523SM  C10S 8384   4.904   3.516  15.692  0.3555  0.5453 -0.8173
   6523SM  H10S 8385   4.988   3.586  15.711  0.9131 -0.4465  0.5451
   6523SM  H10T 8386   4.817   3.574  15.655 -2.0390 -1.6412  1.0159
   6523SM  C11S 8387   4.948   3.392  15.608 -0.6835 -0.6069  0.1025
   6523SM  H11S 8388   4.869   3.315  15.619 -0.3596 -1.0681 -0.7524
   6523SM  H11T 8389   5.047   3.365  15.651 -0.0524  0.4755 -0.6274
   6523SM  C12S 8390   4.956   3.432  15.458  0.0164  0.7069  0.0483
   6523SM  H12S 8391   5.010   3.350  15.407 -1.9651 -0.2401 -0.6107
   6523SM  H12T 8392   5.015   3.526  15.452  0.6146  0.3824  0.6770
   6523SM  C13S 8393   4.825   3.456  15.377 -0.7778 -0.3274  0.0817
   6523SM  H13S 8394   4.762   3.537  15.421  0.6841  0.8006  0.1417
   6523SM  H13T 8395   4.775   3.357  15.377  0.7326 -1.1119 -0.0459
   6523SM  C14S 8396   4.854   3.505  15.231 -0.0175 -0.4136 -0.1833
   6523SM  H14S 8397   4.934   3.449  15.177 -0.4108  0.7232 -2.0578
   6523SM  H14T 8398   4.892   3.609  15.237  0.6745 -0.7645  3.0283
   6523SM  C15S 8399   4.721   3.501  15.159  0.2146  0.4075  0.2043
   6523SM  H15S 8400   4.649   3.568  15.210 -2.3389 -1.6370 -0.4930
   6523SM  H15T 8401   4.678   3.399  15.164 -2.1331  1.1378 -2.3921
   6523SM  C16S 8402   4.728   3.542  15.009 -0.2324  0.6294  0.5133
   6523SM  H16S 8403   4.827   3.518  14.965  0.2567  2.2880  0.6515
   6523SM  H16T 8404   4.727   3.651  14.986 -1.0126 -0.0636 -3.4380
   6523SM  C17S 8405   4.609   3.482  14.922  0.1485  0.5506 -0.6251
   6523SM  H17S 8406   4.520   3.472  14.988 -0.5812  0.3996 -1.6120
   6523SM  H17T 8407   4.638   3.383  14.881 -2.1415  0.8468 -3.2267
   6523SM  C18S 8408   4.582   3.558  14.794 -0.2557 -0.2111  0.0821
   6523SM  H18S 8409   4.551   3.664  14.804 -0.4398 -0.2399 -0.1875
   6523SM  H18T 8410   4.511   3.508  14.725 -0.5022  0.5617 -0.2333
   6523SM  H18U 8411   4.679   3.569  14.740  1.2564 -1.8675  2.2518
   6523SM   C1F 8412   4.636   3.031  16.445 -0.1015  0.5837  1.2088
   6523SM    OF 8413   4.517   3.046  16.461  0.3127 -0.0057 -0.2334
   6523SM   C2F 8414   4.690   2.898  16.392  0.3618  0.2869  0.1441
   6523SM   H2F 8415   4.779   2.868  16.452  1.9590  0.1131 -2.1728
   6523SM   H2G 8416   4.729   2.921  16.291 -0.0327 -0.8669 -0.2902
   6523SM   C3F 8417   4.598   2.780  16.388 -0.6080 -0.4087 -0.3895
   6523SM   H3F 8418   4.552   2.775  16.489  1.6127  0.6078  0.7259
   6523SM   H3G 8419   4.659   2.690  16.366  1.3361  0.4922  1.1024
   6523SM   C4F 8420   4.498   2.778  16.273 -0.4553 -0.5093 -0.1921
   6523SM   H4F 8421   4.559   2.739  16.189 -0.2791  0.6968 -0.6510
   6523SM   H4G 8422   4.459   2.881  16.256 -0.0014 -0.2995  0.0006
   6523SM   C5F 8423   4.386   2.667  16.289  0.1252  0.4965  0.2565
   6523SM   H5F 8424   4.305   2.724  16.339  1.1612  2.0188  0.2541
   6523SM   H5G 8425   4.433   2.589  16.353  1.1116  0.0623 -0.9315
   6523SM   C6F 8426   4.327   2.598  16.165 -0.1369  0.4574  0.4703
   6523SM   H6F 8427   4.255   2.522  16.200 -1.5967  1.1349 -0.9392
   6523SM   H6G 8428   4.412   2.541  16.120  0.0341  0.7294  0.4422
   6523SM   C7F 8429   4.272   2.707  16.080 -0.1917  0.2813  0.3086
   6523SM   H7F 8430   4.360   2.766  16.046 -0.0927  0.3305  0.6474
   6523SM   H7G 8431   4.204   2.774  16.136  0.0502 -1.3894  2.7398
   6523SM   C8F 8432   4.196   2.648  15.958 -0.0620 -0.6413 -0.4639
   6523SM   H8F 8433   4.090   2.637  15.988  0.2995 -1.5965  0.5119
   6523SM   H8G 8434   4.242   2.549  15.937  0.0124 -0.4772 -1.0938
   6523SM   C9F 8435   4.197   2.741  15.840  0.2540 -1.0422  0.7402
   6523SM   H9F 8436   4.300   2.743  15.799  1.1265 -1.1660  2.7824
   6523SM   H9G 8437   4.182   2.843  15.880 -0.4790  0.1066 -2.1818
   6523SM  C10F 8438   4.094   2.717  15.727  0.0919 -0.3349  0.1506
   6523SM  H10F 8439   4.092   2.798  15.651 -1.5943 -1.8331 -1.5184
   6523SM  H10G 8440   3.992   2.719  15.769  0.9242  0.8345  2.2174
   6523SM  C11F 8441   4.121   2.588  15.656  0.7741 -0.1727 -0.0949
   6523SM  H11F 8442   4.101   2.502  15.723 -0.6185 -1.1036 -1.6407
   6523SM  H11G 8443   4.219   2.576  15.605  1.9732  1.2273  1.7547
   6523SM  C12F 8444   4.026   2.576  15.535  0.1098 -0.6252  0.4859
   6523SM  H12F 8445   4.005   2.682  15.507  3.3938  0.0013  0.0109
   6523SM  H12G 8446   3.927   2.537  15.567  0.5591 -2.9958 -0.7780
   6523SM  C13F 8447   4.074   2.492  15.407 -0.1240 -0.1764 -0.3574
   6523SM  H13F 8448   4.091   2.390  15.447  0.9396  0.6420  1.4491
   6523SM  H13G 8449   4.171   2.528  15.368  0.5521 -1.4831  0.0498
   6523SM  C14F 8450   3.964   2.479  15.305 -0.2696  0.4236  0.4130
   6523SM  H14F 8451   3.933   2.578  15.267 -1.4812 -0.7795 -1.9180
   6523SM  H14G 8452   3.876   2.431  15.354  0.9771 -1.8703  0.5594
   6523SM  C15F 8453   4.003   2.405  15.179 -0.5336  0.3787  0.1271
   6523SM  H15F 8454   3.911   2.392  15.118  1.1039  1.8705 -2.8964
   6523SM  H15G 8455   4.049   2.306  15.199  0.5184  1.0583  1.1990
   6523SM  C16F 8456   4.097   2.492  15.094  0.0126 -0.1669  0.0365
   6523SM  H16F 8457   4.185   2.523  15.155 -0.5473  0.3204  0.5974
   6523SM  H16G 8458   4.041   2.584  15.066  0.1454 -0.4071 -1.0824
   6523SM  C17F 8459   4.129   2.450  14.949 -0.0842  0.6745  0.2270
   6523SM  H17F 8460   4.170   2.347  14.945  0.6889  0.8248  2.6261
   6523SM  H17G 8461   4.201   2.520  14.900 -1.1965  1.4461 -0.3633
   6523SM  C18F 8462   4.000   2.434  14.868 -0.0047 -0.1390 -0.1585
   6523SM  H18F 8463   3.906   2.475  14.912 -0.0774  0.6974 -1.0720
   6523SM  H18G 8464   3.984   2.329  14.834 -0.9152  0.4785 -1.7213
   6523SM  C19F 8465   4.010   2.519  14.748  0.3465  0.0567  0.5105
   6523SM  H19F 8466   4.104   2.488  14.697 -0.2655 -1.7947  0.4248
   6523SM  H19G 8467   4.032   2.625  14.775 -0.9679  0.8357 -1.2847
   6523SM  C20F 8468   3.895   2.518  14.649  0.1990 -0.1580  0.8998
   6523SM  H20F 8469   3.809   2.573  14.691  1.5110  2.2816  0.5411
   6523SM  H20G 8470   3.868   2.411  14.630 -0.0233  0.1972 -0.9442
   6523SM  C21F 8471   3.931   2.582  14.517  0.0596 -0.3184 -0.2038
   6523SM  H21F 8472   4.004   2.515  14.466  1.2189  1.5224 -1.0752
   6523SM  H21G 8473   3.979   2.682  14.522  1.0375 -0.7312 -1.0037
   6523SM  C22F 8474   3.803   2.589  14.430  0.0680 -0.5158 -0.8440
   6523SM  H22F 8475   3.737   2.661  14.484  0.0088 -3.2212  3.1907
   6523SM  H22G 8476   3.750   2.492  14.441  0.7382 -0.8320 -0.3277
   6523SM  C23F 8477   3.825   2.636  14.284 -0.3459  0.1468  0.4516
   6523SM  H23F 8478   3.719   2.647  14.252 -0.8179 -1.2308  1.4856
   6523SM  H23G 8479   3.877   2.561  14.221 -1.9758 -0.3772 -0.3304
   6523SM  H23H 8480   3.882   2.731  14.276 -0.3089  0.0831 -0.1559
   6623SM     N 8481   3.653   1.594  17.613 -0.4221 -1.0000  0.1228
   6623SM   C15 8482   3.788   1.652  17.616 -0.7531  0.1623  0.0680
   6623SM  H15A 8483   3.827   1.667  17.715  0.8469 -1.7468 -0.2078
   6623SM  H15B 8484   3.786   1.750  17.572 -0.5388  0.1316 -0.0092
   6623SM  H15C 8485   3.865   1.591  17.570 -1.6117 -1.2203  0.3809
   6623SM   C14 8486   3.641   1.482  17.707  0.6327  0.3584 -0.5857
   6623SM  H14A 8487   3.701   1.400  17.669  2.3841  0.1962  2.2731
   6623SM  H14B 8488   3.542   1.439  17.700  0.7806  0.1005 -1.1513
   6623SM  H14C 8489   3.654   1.504  17.812 -0.6369  0.0573 -0.3543
   6623SM   C13 8490   3.557   1.701  17.650  0.4997  0.0243  0.0083
   6623SM  H13A 8491   3.576   1.790  17.591 -0.7730  0.0540 -0.3718
   6623SM  H13B 8492   3.567   1.718  17.756  1.7083  1.2051 -0.2537
   6623SM  H13C 8493   3.458   1.662  17.634  1.3180 -1.2912 -2.4200
   6623SM   C12 8494   3.624   1.547  17.469  0.2183 -0.6394 -0.2850
   6623SM  H12A 8495   3.618   1.632  17.403 -2.4404 -0.3296  0.2481
   6623SM  H12B 8496   3.533   1.492  17.449  1.1163 -2.5637  0.6960
   6623SM   C11 8497   3.738   1.460  17.401  0.3027 -0.4239 -0.2585
   6623SM  H11A 8498   3.820   1.529  17.373 -1.3415  1.3230 -0.9023
   6623SM  H11B 8499   3.693   1.419  17.308  1.7678 -0.0206 -1.1763
   6623SM     P 8500   3.740   1.201  17.485 -0.2075 -0.4012  0.3884
   6623SM   O13 8501   3.858   1.119  17.523  0.0925  0.0350  0.1234
   6623SM   O14 8502   3.623   1.193  17.565 -0.0162 -0.2536 -0.6469
   6623SM   O11 8503   3.708   1.172  17.334 -0.0126 -0.0471 -0.1590
   6623SM   O12 8504   3.792   1.355  17.485  0.4426 -0.2086  0.4202
   6623SM   C1S 8505   3.619   1.064  17.293  0.2230  0.6001 -0.5340
   6623SM   H1S 8506   3.510   1.076  17.307 -0.0208  0.4768 -2.0809
   6623SM   H1T 8507   3.650   0.967  17.338 -0.3816  1.5901  2.1503
   6623SM    NF 8508   3.539   0.934  17.094 -0.1707 -0.2583 -0.4552
   6623SM   HNF 8509   3.583   0.851  17.061 -2.5455 -0.2515 -4.1638
   6623SM   C2S 8510   3.633   1.043  17.130  0.1072 -0.4695 -0.2814
   6623SM   H2S 8511   3.586   1.129  17.077 -1.6191 -1.0634  0.2193
   6623SM   C3S 8512   3.775   1.017  17.080 -0.0374 -0.9183  0.4601
   6623SM   H3S 8513   3.806   0.917  17.118  0.5270 -0.4055  1.3778
   6623SM    O3 8514   3.878   1.098  17.136 -0.1311  0.5372  0.0819
   6623SM   HO3 8515   3.847   1.149  17.211  2.0248  1.3277  0.5166
   6623SM   C4S 8516   3.780   1.021  16.928  0.5642  0.1436  0.0801
   6623SM   H4S 8517   3.792   0.923  16.878 -3.0816  0.1860 -1.1927
   6623SM   C5S 8518   3.782   1.131  16.854 -1.1657 -0.5854  1.3180
   6623SM   H5S 8519   3.786   1.231  16.898 -0.6939  0.2642 -0.5592
   6623SM   C6S 8520   3.803   1.118  16.701 -0.3659 -0.3479  0.2199
   6623SM   H6S 8521   3.715   1.172  16.661  0.0822 -0.2116 -0.5960
   6623SM   H6T 8522   3.792   1.012  16.667  1.5250 -0.2791 -0.7389
   6623SM   C7S 8523   3.938   1.156  16.639  0.2376 -0.3305  0.4313
   6623SM   H7S 8524   4.016   1.118  16.708 -0.9446 -2.1905  0.7956
   6623SM   H7T 8525   3.960   1.265  16.626 -0.2391 -0.4168 -1.3555
   6623SM   C8S 8526   3.952   1.115  16.493 -0.4184  0.5259  0.4629
   6623SM   H8S 8527   3.948   1.004  16.492  2.4416  0.3585  0.5489
   6623SM   H8T 8528   4.054   1.134  16.453 -0.3252 -1.9429 -0.7049
   6623SM   C9S 8529   3.843   1.171  16.394 -0.1236  0.1328 -0.7799
   6623SM   H9S 8530   3.861   1.280  16.380  1.0884  0.0140 -0.2779
   6623SM   H9T 8531   3.740   1.163  16.433  0.2625 -1.3381  0.0007
   6623SM  C10S 8532   3.871   1.114  16.251 -0.8787 -0.6403  0.2005
   6623SM  H10S 8533   3.835   1.009  16.246  2.3250 -1.8492 -0.3182
   6623SM  H10T 8534   3.977   1.099  16.219 -1.6258  0.9503 -3.4951
   6623SM  C11S 8535   3.799   1.190  16.135 -0.4283  0.6441 -0.6613
   6623SM  H11S 8536   3.857   1.281  16.108  1.8005  0.0108  1.6216
   6623SM  H11T 8537   3.712   1.238  16.183  0.7818  0.1455  2.2591
   6623SM  C12S 8538   3.764   1.102  16.019 -0.1714  0.6641  0.1254
   6623SM  H12S 8539   3.693   1.142  15.944  1.5652  1.5380 -1.1345
   6623SM  H12T 8540   3.716   1.004  16.042  3.0571 -1.3275 -0.8957
   6623SM  C13S 8541   3.883   1.047  15.929 -0.1958 -0.6857  0.3322
   6623SM  H13S 8542   3.968   0.996  15.981  2.1587  2.5247 -0.0560
   6623SM  H13T 8543   3.922   1.141  15.885 -0.8610  0.9523  2.9963
   6623SM  C14S 8544   3.843   0.955  15.808  0.7187  0.2853 -0.8596
   6623SM  H14S 8545   3.734   0.967  15.790  0.5740 -0.1229 -0.3075
   6623SM  H14T 8546   3.857   0.850  15.842  1.0643  0.4134 -0.6079
   6623SM  C15S 8547   3.926   0.975  15.679  0.4962 -0.8815  0.4403
   6623SM  H15S 8548   3.919   0.890  15.608  1.0778  0.8788 -1.8299
   6623SM  H15T 8549   4.034   0.984  15.703  0.3007 -1.6483  1.7493
   6623SM  C16S 8550   3.888   1.103  15.606 -0.4596  1.0335 -0.2211
   6623SM  H16S 8551   3.910   1.184  15.679  2.1408  1.5212 -1.4184
   6623SM  H16T 8552   3.781   1.108  15.575  0.0764  1.5730 -2.1255
   6623SM  C17S 8553   3.974   1.126  15.480 -0.6222  0.4928 -0.4634
   6623SM  H17S 8554   3.973   1.030  15.424 -0.4644 -0.0866  0.5066
   6623SM  H17T 8555   4.082   1.145  15.495 -0.2600 -1.5355 -0.1520
   6623SM  C18S 8556   3.918   1.231  15.387 -0.1952  0.0757  0.5383
   6623SM  H18S 8557   3.927   1.336  15.422 -3.1111  0.5639  0.0132
   6623SM  H18T 8558   3.809   1.214  15.374 -0.0371 -1.1329  0.6215
   6623SM  H18U 8559   3.961   1.217  15.285 -0.2103 -0.1642  0.5642
   6623SM   C1F 8560   3.411   0.942  17.100 -0.6322 -0.5342 -0.2420
   6623SM    OF 8561   3.350   1.048  17.125  0.3365 -0.0328 -0.2281
   6623SM   C2F 8562   3.341   0.810  17.070  0.5230 -0.2990  0.3131
   6623SM   H2F 8563   3.279   0.789  17.159 -1.2772  0.7460 -0.6499
   6623SM   H2G 8564   3.419   0.731  17.058  1.9157  0.8741  1.1996
   6623SM   C3F 8565   3.258   0.817  16.932  0.1126  0.4258  0.2121
   6623SM   H3F 8566   3.328   0.846  16.852 -0.8752  0.6843 -0.5823
   6623SM   H3G 8567   3.182   0.896  16.951  1.8421  1.5931  2.7350
   6623SM   C4F 8568   3.199   0.678  16.915  0.4891  0.2587  0.3057
   6623SM   H4F 8569   3.139   0.666  17.007 -0.6411 -0.8462 -0.5514
   6623SM   H4G 8570   3.276   0.598  16.919  0.3708  0.1998  1.6668
   6623SM   C5F 8571   3.114   0.667  16.782 -0.3995 -0.0412 -0.7674
   6623SM   H5F 8572   3.035   0.743  16.797  1.4112  1.5558  1.3862
   6623SM   H5G 8573   3.070   0.565  16.792  1.1568 -0.6009  1.0034
   6623SM   C6F 8574   3.194   0.683  16.651  0.2192 -0.0400 -0.5961
   6623SM   H6F 8575   3.280   0.615  16.632 -0.4216 -0.8743 -0.5843
   6623SM   H6G 8576   3.232   0.787  16.648 -0.8107  0.4079  0.9260
   6623SM   C7F 8577   3.101   0.652  16.536  0.3205  0.2663 -0.4591
   6623SM   H7F 8578   3.023   0.731  16.533  0.8888  0.7990 -1.9083
   6623SM   H7G 8579   3.045   0.558  16.553  1.1758 -0.0274  0.8114
   6623SM   C8F 8580   3.169   0.659  16.396 -0.5607 -0.5716 -0.2114
   6623SM   H8F 8581   3.246   0.579  16.398 -0.2754 -0.3921 -2.0879
   6623SM   H8G 8582   3.221   0.757  16.394 -0.1644 -0.7634  0.3231
   6623SM   C9F 8583   3.060   0.630  16.295  0.2466 -0.2619  0.6951
   6623SM   H9F 8584   2.977   0.704  16.306  2.5319  2.8474 -1.2593
   6623SM   H9G 8585   3.016   0.529  16.310 -0.5633 -0.1840 -0.9022
   6623SM  C10F 8586   3.118   0.651  16.153  0.6678 -0.6510 -0.4172
   6623SM  H10F 8587   3.223   0.614  16.147  0.2749 -2.0934  1.0049
   6623SM  H10G 8588   3.118   0.762  16.147 -0.6821 -0.6809 -1.4054
   6623SM  C11F 8589   3.040   0.606  16.024 -0.2957 -1.2495 -0.8473
   6623SM  H11F 8590   2.944   0.663  16.022  0.3699 -0.0109  0.5356
   6623SM  H11G 8591   3.037   0.495  16.026  0.8944 -1.2965  1.3958
   6623SM  C12F 8592   3.112   0.656  15.895 -0.4926 -0.1464 -0.5076
   6623SM  H12F 8593   3.213   0.610  15.892 -0.6462 -0.7866  1.8929
   6623SM  H12G 8594   3.127   0.766  15.893 -1.4207  0.0025 -0.0684
   6623SM  C13F 8595   3.026   0.624  15.775 -0.0042 -0.1207 -0.6864
   6623SM  H13F 8596   2.923   0.664  15.784 -1.2217 -3.0185 -0.8519
   6623SM  H13G 8597   3.020   0.513  15.781 -0.5868 -0.0785 -0.4658
   6623SM  C14F 8598   3.083   0.673  15.646 -0.6220  0.4927  0.1462
   6623SM  H14F 8599   3.175   0.618  15.620 -1.0357  0.1268 -0.5702
   6623SM  H14G 8600   3.099   0.782  15.659 -0.0494  0.6681 -1.6910
   6623SM  C15F 8601   2.985   0.657  15.531 -0.3521  0.6815  0.7619
   6623SM  H15F 8602   2.883   0.697  15.552 -0.3424 -0.2331  2.8047
   6623SM  H15G 8603   2.952   0.551  15.519 -1.3676  0.9356  1.2163
   6623SM  C16F 8604   3.033   0.727  15.399 -0.1263 -0.3064  0.0758
   6623SM  H16F 8605   3.136   0.690  15.386 -0.4693 -1.6098  0.9108
   6623SM  H16G 8606   3.037   0.835  15.426  1.2990 -0.8585  2.3202
   6623SM  C17F 8607   2.945   0.694  15.277 -0.2544  0.4010 -0.2154
   6623SM  H17F 8608   2.990   0.745  15.189 -1.2408 -2.3861 -2.4798
   6623SM  H17G 8609   2.846   0.739  15.301  0.9558  2.3181  1.5603
   6623SM  C18F 8610   2.935   0.547  15.239  0.2184  0.2418  0.4247
   6623SM  H18F 8611   2.885   0.492  15.321  0.0693 -0.6199 -0.2263
   6623SM  H18G 8612   3.038   0.507  15.228  0.4714  0.5600  1.4834
   6623SM  C19F 8613   2.872   0.526  15.099  0.6024 -0.1646  0.0540
   6623SM  H19F 8614   2.920   0.595  15.026  0.7497 -0.2994  0.0233
   6623SM  H19G 8615   2.763   0.549  15.107  0.1840 -2.1877  0.9267
   6623SM  C20F 8616   2.872   0.384  15.045  0.0880  0.7702 -0.4651
   6623SM  H20F 8617   2.861   0.312  15.128 -0.6211  0.4063 -0.8674
   6623SM  H20G 8618   2.974   0.373  15.001  0.3378 -0.8390  0.4662
   6623SM  C21F 8619   2.764   0.351  14.951 -0.2019 -0.6539 -0.4477
   6623SM  H21F 8620   2.792   0.257  14.898  0.2505 -0.2650 -0.9122
   6623SM  H21G 8621   2.754   0.430  14.873 -1.1808 -0.4966 -0.1746
   6623SM  C22F 8622   2.633   0.335  15.016  0.0935 -0.0619  0.0262
   6623SM  H22F 8623   2.599   0.429  15.064  0.7220 -0.0971  0.5571
   6623SM  H22G 8624   2.657   0.255  15.090 -0.8123  0.1436  0.5539
   6623SM  C23F 8625   2.518   0.282  14.929  0.1972 -0.2117 -0.3983
   6623SM  H23F 8626   2.439   0.254  15.003  0.7356 -0.4428  0.0910
   6623SM  H23G 8627   2.541   0.208  14.850  1.2554 -0.2900 -0.0228
   6623SM  H23H 8628   2.490   0.370  14.867 -0.8024 -0.1829  0.0576
   6723SM     N 8629   2.951   4.733  17.129 -0.0199 -0.2906 -0.5653
   6723SM   C15 8630   3.058   4.701  17.234 -0.1730  0.0764  0.2361
   6723SM  H15A 8631   3.158   4.708  17.194  0.9345 -2.1504  2.3448
   6723SM  H15B 8632   3.052   4.603  17.279  0.8539 -0.0826  0.0515
   6723SM  H15C 8633   3.056   4.769  17.318 -0.1137 -0.4854  0.6977
   6723SM   C14 8634   2.817   4.719  17.186  0.0263 -0.3774  0.6350
   6723SM  H14A 8635   2.780   4.808  17.236  2.5906  0.1764  1.7119
   6723SM  H14B 8636   2.807   4.639  17.258 -0.8952  0.3339  1.3316
   6723SM  H14C 8637   2.744   4.692  17.111 -1.0722  2.0813  0.7242
   6723SM   C13 8638   2.955   4.876  17.083  0.2504 -0.2584  0.3795
   6723SM  H13A 8639   3.035   4.886  17.012 -1.1345  1.4890 -1.0274
   6723SM  H13B 8640   2.944   4.947  17.164  0.7543  0.0039  0.2194
   6723SM  H13C 8641   2.861   4.891  17.030  0.1952  1.9033  0.9686
   6723SM   C12 8642   2.981   4.642  17.010  0.0204  0.3466 -0.1902
   6723SM  H12A 8643   2.953   4.543  17.043  0.2682 -0.4782 -2.2725
   6723SM  H12B 8644   3.083   4.638  16.977 -0.1939 -2.7658 -0.7897
   6723SM   C11 8645   2.896   4.666  16.880 -1.0258  0.0879  0.0241
   6723SM  H11A 8646   2.942   4.609  16.797 -1.6276  1.4978 -1.3418
   6723SM  H11B 8647   2.888   4.767  16.833 -1.1249 -0.5590 -1.3904
   6723SM     P 8648   2.723   4.477  16.870  0.2352 -0.2274 -0.2608
   6723SM   O13 8649   2.821   4.384  16.928 -0.0773  0.2845 -0.5336
   6723SM   O14 8650   2.579   4.452  16.899  0.3515 -0.5218  0.4602
   6723SM   O11 8651   2.740   4.462  16.717  0.1182  0.2356 -0.0010
   6723SM   O12 8652   2.768   4.628  16.897  0.3556 -0.0844  0.6621
   6723SM   C1S 8653   2.710   4.566  16.632 -0.4765 -0.5711  0.2238
   6723SM   H1S 8654   2.795   4.638  16.634  0.0679 -1.2215  0.6296
   6723SM   H1T 8655   2.617   4.621  16.657 -0.1012 -0.1231  0.6620
   6723SM    NF 8656   2.653   4.640  16.406 -0.0767 -0.3100  0.4998
   6723SM   HNF 8657   2.557   4.644  16.380  0.6630  0.4551 -2.4419
   6723SM   C2S 8658   2.685   4.525  16.486  0.3099  0.1815 -0.2599
   6723SM   H2S 8659   2.778   4.484  16.442 -0.3359  0.8735 -2.4287
   6723SM   C3S 8660   2.580   4.412  16.475 -0.3818  1.0728  0.3773
   6723SM   H3S 8661   2.484   4.452  16.516 -1.9236  0.2000 -2.1307
   6723SM    O3 8662   2.605   4.291  16.551 -0.5904  0.4664  0.2780
   6723SM   HO3 8663   2.645   4.325  16.632 -0.8244  1.3551  0.0347
   6723SM   C4S 8664   2.546   4.372  16.329 -0.6829  0.2373 -0.0235
   6723SM   H4S 8665   2.486   4.445  16.273  1.7760  0.4785 -2.5922
   6723SM   C5S 8666   2.599   4.279  16.253 -0.1302 -0.5382 -0.9227
   6723SM   H5S 8667   2.676   4.215  16.298  2.0634  2.5883  0.1160
   6723SM   C6S 8668   2.561   4.258  16.108 -0.0716  0.0966 -0.1688
   6723SM   H6S 8669   2.520   4.155  16.099  0.4290 -0.0943 -0.3129
   6723SM   H6T 8670   2.646   4.247  16.037 -3.1162 -1.6563 -3.9376
   6723SM   C7S 8671   2.457   4.347  16.040 -0.2553  0.1557  0.0491
   6723SM   H7S 8672   2.470   4.450  16.079  0.2354 -0.4553  1.5629
   6723SM   H7T 8673   2.351   4.330  16.068  0.4251 -0.5585  2.4530
   6723SM   C8S 8674   2.454   4.348  15.888  0.1024  0.4510 -0.0337
   6723SM   H8S 8675   2.538   4.281  15.858 -0.6713 -0.8922  0.6783
   6723SM   H8T 8676   2.464   4.450  15.847  0.7983 -0.0291 -1.1050
   6723SM   C9S 8677   2.330   4.286  15.831 -0.2018  0.5656  0.6068
   6723SM   H9S 8678   2.239   4.333  15.875 -0.4560  1.2263 -0.5817
   6723SM   H9T 8679   2.331   4.184  15.876  0.9221  0.8278  1.2132
   6723SM  C10S 8680   2.321   4.277  15.680 -0.2217  0.1703  0.3018
   6723SM  H10S 8681   2.218   4.247  15.651 -0.0132 -0.4112  0.1559
   6723SM  H10T 8682   2.387   4.194  15.646  1.4351  1.0459  1.2332
   6723SM  C11S 8683   2.349   4.402  15.596  1.1154 -0.3817  0.9556
   6723SM  H11S 8684   2.451   4.441  15.613  0.3601  3.0959 -1.4576
   6723SM  H11T 8685   2.283   4.485  15.628  1.2346 -0.2677  0.9056
   6723SM  C12S 8686   2.325   4.380  15.447 -0.5215 -0.8070  0.2714
   6723SM  H12S 8687   2.218   4.352  15.433 -1.0022  0.5102  1.1273
   6723SM  H12T 8688   2.392   4.299  15.412 -1.1555 -1.1648 -0.1405
   6723SM  C13S 8689   2.344   4.510  15.370  0.6316  0.9742  0.0120
   6723SM  H13S 8690   2.428   4.569  15.413  2.4583 -0.6366 -1.1847
   6723SM  H13T 8691   2.249   4.564  15.387  0.3490  0.3631  0.4083
   6723SM  C14S 8692   2.362   4.479  15.214  0.1837 -0.3981 -0.0603
   6723SM  H14S 8693   2.275   4.416  15.186 -0.5913  0.2384  0.8239
   6723SM  H14T 8694   2.456   4.422  15.206  0.0974 -0.5670  0.1209
   6723SM  C15S 8695   2.362   4.602  15.130  0.6666 -0.5002 -0.2713
   6723SM  H15S 8696   2.429   4.679  15.174  1.2401 -1.5264  0.7103
   6723SM  H15T 8697   2.260   4.645  15.139  0.6863 -0.8942  3.5731
   6723SM  C16S 8698   2.416   4.569  14.992 -0.2283  0.4930  0.0309
   6723SM  H16S 8699   2.355   4.483  14.958  0.4835 -0.3944  0.9222
   6723SM  H16T 8700   2.519   4.531  15.009 -0.3571  1.1446  2.6904
   6723SM  C17S 8701   2.426   4.688  14.906  0.3197 -0.6489 -0.4008
   6723SM  H17S 8702   2.496   4.756  14.958  1.7645  0.2319 -3.2494
   6723SM  H17T 8703   2.329   4.743  14.904  0.9421  0.4612 -1.1711
   6723SM  C18S 8704   2.465   4.666  14.751  0.6910  0.0576  0.9065
   6723SM  H18S 8705   2.396   4.592  14.705  1.4462  0.5581 -1.1884
   6723SM  H18T 8706   2.567   4.624  14.747 -0.2829 -2.3840 -0.2805
   6723SM  H18U 8707   2.464   4.766  14.701 -0.0413 -0.3678  0.0428
   6723SM   C1F 8708   2.736   4.742  16.385 -0.3345 -0.7636  0.4163
   6723SM    OF 8709   2.846   4.752  16.447 -0.0853  0.1714  0.4957
   6723SM   C2F 8710   2.700   4.863  16.300 -0.5464  0.0674  0.6668
   6723SM   H2F 8711   2.795   4.906  16.265 -0.6155  1.3979  2.0178
   6723SM   H2G 8712   2.646   4.941  16.357 -1.0238 -0.5277  1.0518
   6723SM   C3F 8713   2.605   4.825  16.178 -0.0659 -0.2556 -0.2896
   6723SM   H3F 8714   2.556   4.915  16.136  1.8741  0.6261 -0.7947
   6723SM   H3G 8715   2.535   4.743  16.202  0.0983 -0.3915 -0.2736
   6723SM   C4F 8716   2.695   4.777  16.063  0.3027 -0.1799 -0.6238
   6723SM   H4F 8717   2.738   4.676  16.080  0.2302 -0.4772 -2.0183
   6723SM   H4G 8718   2.790   4.834  16.055  1.0853 -1.3050  0.3802
   6723SM   C5F 8719   2.619   4.768  15.933  0.0333  0.6273  0.2870
   6723SM   H5F 8720   2.609   4.876  15.909  1.5241  1.0785  1.5576
   6723SM   H5G 8721   2.519   4.719  15.936 -0.2174  1.1819  1.0378
   6723SM   C6F 8722   2.690   4.690  15.821 -0.4323  0.7697  1.1643
   6723SM   H6F 8723   2.672   4.582  15.840  1.8788  0.2824  0.8730
   6723SM   H6G 8724   2.797   4.717  15.821 -0.3556  0.5764 -0.4034
   6723SM   C7F 8725   2.639   4.723  15.679 -0.0516 -0.3812 -0.7193
   6723SM   H7F 8726   2.625   4.833  15.678 -2.7873 -0.6496 -0.2234
   6723SM   H7G 8727   2.537   4.680  15.670 -0.2785 -0.0379  0.0876
   6723SM   C8F 8728   2.738   4.698  15.567  1.0139  0.2333 -0.5049
   6723SM   H8F 8729   2.738   4.587  15.558 -1.3766  0.3079 -2.7983
   6723SM   H8G 8730   2.843   4.731  15.575  1.2952  0.0730 -2.8131
   6723SM   C9F 8731   2.681   4.753  15.433 -0.7469 -0.4380 -0.6016
   6723SM   H9F 8732   2.638   4.851  15.466 -1.5813 -0.9328 -0.1895
   6723SM   H9G 8733   2.594   4.694  15.397 -0.6551 -0.3748 -0.9367
   6723SM  C10F 8734   2.785   4.781  15.316 -0.0197 -0.0186 -0.8073
   6723SM  H10F 8735   2.849   4.690  15.315 -2.6012 -2.1953  3.5156
   6723SM  H10G 8736   2.849   4.859  15.363  2.9507 -2.7989  0.2148
   6723SM  C11F 8737   2.718   4.807  15.185 -0.8396  0.0671 -0.0622
   6723SM  H11F 8738   2.647   4.893  15.191 -0.7728  0.4095 -2.7454
   6723SM  H11G 8739   2.681   4.712  15.142 -0.6656  0.6094 -1.4485
   6723SM  C12F 8740   2.821   4.847  15.077  0.3754 -0.5534  0.8322
   6723SM  H12F 8741   2.911   4.783  15.066  1.2089  0.5000  1.3597
   6723SM  H12G 8742   2.866   4.937  15.124 -1.4540  0.7910  0.1434
   6723SM  C13F 8743   2.760   4.884  14.935  0.5593  0.2132 -0.3417
   6723SM  H13F 8744   2.665   4.931  14.970  1.0976 -1.0537  3.2836
   6723SM  H13G 8745   2.726   4.785  14.897 -1.4232  0.8906 -0.4716
   6723SM  C14F 8746   2.859   4.950  14.832 -0.4499 -0.5615 -0.3459
   6723SM  H14F 8747   2.945   4.880  14.831  1.5490  1.7654 -1.9756
   6723SM  H14G 8748   2.911   5.042  14.863 -1.0710 -0.0368 -0.8353
   6723SM  C15F 8749   2.818   4.946  14.688 -0.0044 -0.1801  0.2754
   6723SM  H15F 8750   2.727   5.006  14.667 -0.0399 -0.4681 -0.3967
   6723SM  H15G 8751   2.781   4.843  14.669 -1.1278 -0.0757  1.6829
   6723SM  C16F 8752   2.919   4.966  14.577 -0.3276  0.0631 -0.4285
   6723SM  H16F 8753   2.999   4.893  14.597 -1.2629 -1.0650 -0.7078
   6723SM  H16G 8754   2.963   5.067  14.592  2.1563 -0.8423 -1.0801
   6723SM  C17F 8755   2.852   4.957  14.442  1.2679 -0.1027  1.0345
   6723SM  H17F 8756   2.773   5.035  14.446 -0.3876 -1.6922  0.3836
   6723SM  H17G 8757   2.802   4.859  14.433 -0.3558  0.7077  0.8983
   6723SM  C18F 8758   2.950   4.972  14.323 -0.6224 -0.3928  0.2011
   6723SM  H18F 8759   2.893   4.981  14.227 -1.5350 -0.5835  0.7156
   6723SM  H18G 8760   3.000   4.874  14.307 -0.9173 -0.2028 -2.4457
   6723SM  C19F 8761   3.068   5.070  14.332 -0.0775 -0.2770  0.3351
   6723SM  H19F 8762   3.143   5.033  14.404  2.0016 -0.8582 -2.0043
   6723SM  H19G 8763   3.032   5.171  14.364  2.6789  0.8432  0.1152
   6723SM  C20F 8764   3.144   5.087  14.198 -0.2902 -0.4220 -0.4729
   6723SM  H20F 8765   3.240   5.140  14.217 -0.5670  0.2826 -0.9895
   6723SM  H20G 8766   3.082   5.154  14.135  0.5264  1.7658  0.9198
   6723SM  C21F 8767   3.184   4.961  14.126 -0.7193 -0.5736 -0.5217
   6723SM  H21F 8768   3.095   4.909  14.084 -2.4375  0.1562  1.9642
   6723SM  H21G 8769   3.233   4.891  14.197 -1.2668  0.2025  0.6543
   6723SM  C22F 8770   3.290   4.997  14.024  0.2342 -0.1185 -1.0504
   6723SM  H22F 8771   3.377   5.044  14.074 -1.8050  2.1723  0.5887
   6723SM  H22G 8772   3.245   5.067  13.951 -2.6691 -1.0359 -0.2567
   6723SM  C23F 8773   3.345   4.878  13.943  0.0847  0.4377 -0.5098
   6723SM  H23F 8774   3.387   4.801  14.011 -0.6691  1.5174  1.2484
   6723SM  H23G 8775   3.422   4.900  13.866  1.7774 -1.3496  0.5913
   6723SM  H23H 8776   3.259   4.831  13.892  0.6761  0.8129 -1.8977
   6823SM     N 8777   2.198   1.031  17.769 -0.1667 -0.1103 -0.2748
   6823SM   C15 8778   2.306   1.133  17.719 -0.6516 -0.3732  1.0287
   6823SM  H15A 8779   2.285   1.154  17.615 -1.0152 -0.1965  1.1352
   6823SM  H15B 8780   2.403   1.086  17.714  0.5610  2.0640 -2.2910
   6823SM  H15C 8781   2.310   1.229  17.769 -2.7443  0.6474 -0.5804
   6823SM   C14 8782   2.212   1.006  17.916 -0.6391  0.2059  0.7911
   6823SM  H14A 8783   2.230   1.103  17.959  2.1052  0.2996 -0.3413
   6823SM  H14B 8784   2.294   0.943  17.949 -0.3398 -0.3692 -0.9461
   6823SM  H14C 8785   2.127   0.956  17.961 -0.2784 -1.6564 -0.4854
   6823SM   C13 8786   2.065   1.101  17.755 -0.2631  1.5333  0.5292
   6823SM  H13A 8787   2.090   1.205  17.765  0.6960  1.6591 -2.2723
   6823SM  H13B 8788   1.987   1.077  17.826  0.7216 -0.3224  1.0739
   6823SM  H13C 8789   2.032   1.095  17.652 -0.0988  0.4974  0.5165
   6823SM   C12 8790   2.204   0.895  17.694  0.2993  0.6327 -0.9505
   6823SM  H12A 8791   2.147   0.823  17.750  1.1896  0.3946 -0.3287
   6823SM  H12B 8792   2.306   0.860  17.705  0.5800  1.6587 -0.1522
   6823SM   C11 8793   2.175   0.892  17.542 -0.8670 -0.0907 -0.7236
   6823SM  H11A 8794   2.190   0.797  17.485 -1.1612  0.7400 -2.2317
   6823SM  H11B 8795   2.252   0.960  17.501  1.2385 -2.1840 -0.4795
   6823SM     P 8796   1.920   0.854  17.488 -0.2902  0.0412 -0.4015
   6823SM   O13 8797   1.934   0.727  17.564 -0.0291 -0.6483  0.7312
   6823SM   O14 8798   1.802   0.929  17.521 -0.0786 -0.0766  0.2489
   6823SM   O11 8799   1.920   0.825  17.334  0.6222 -0.4193 -0.1436
   6823SM   O12 8800   2.050   0.949  17.504  0.2943  0.1008  0.3645
   6823SM   C1S 8801   2.004   0.906  17.247  0.1374 -0.0373  0.4279
   6823SM   H1S 8802   2.107   0.896  17.288 -0.1587  0.4415  1.3190
   6823SM   H1T 8803   1.971   1.012  17.249 -1.7054 -0.5555 -0.4311
   6823SM    NF 8804   2.093   0.921  17.013  0.3620  0.1878 -0.0023
   6823SM   HNF 8805   2.059   0.995  16.956 -0.8115 -1.5783 -1.7113
   6823SM   C2S 8806   1.994   0.855  17.100 -0.7120 -0.7078  0.6666
   6823SM   H2S 8807   2.017   0.747  17.099 -0.3894 -0.6653  1.7343
   6823SM   C3S 8808   1.847   0.870  17.047 -0.3879 -0.3416  0.2365
   6823SM   H3S 8809   1.822   0.976  17.024  1.6030 -0.6180 -4.3256
   6823SM    O3 8810   1.749   0.826  17.134  0.1277  0.3718 -0.7650
   6823SM   HO3 8811   1.790   0.818  17.220 -0.4519 -0.0801 -0.5250
   6823SM   C4S 8812   1.817   0.815  16.906  0.4299  0.5337 -0.9280
   6823SM   H4S 8813   1.850   0.887  16.830 -1.9490  1.0683 -1.5273
   6823SM   C5S 8814   1.748   0.700  16.878 -0.0098 -0.2768  0.8135
   6823SM   H5S 8815   1.692   0.648  16.957 -1.1640 -0.5734 -0.1702
   6823SM   C6S 8816   1.697   0.669  16.742  0.3790 -0.3033 -0.1244
   6823SM   H6S 8817   1.592   0.704  16.732  0.8566  0.6010 -2.6039
   6823SM   H6T 8818   1.685   0.558  16.745 -2.9549 -0.0613  2.2996
   6823SM   C7S 8819   1.784   0.724  16.629  0.8921  0.2578 -0.3522
   6823SM   H7S 8820   1.890   0.694  16.642  0.8156  0.5020  0.8944
   6823SM   H7T 8821   1.776   0.835  16.634 -2.2460  0.1389 -0.9482
   6823SM   C8S 8822   1.737   0.690  16.492 -0.0571  0.2190  1.2871
   6823SM   H8S 8823   1.627   0.698  16.477  0.1804  1.3444 -0.0510
   6823SM   H8T 8824   1.762   0.585  16.463  0.2849  0.2446  1.4910
   6823SM   C9S 8825   1.806   0.779  16.381 -0.1106  0.4532 -0.3435
   6823SM   H9S 8826   1.917   0.770  16.391 -0.4123 -1.5579  2.4600
   6823SM   H9T 8827   1.785   0.886  16.399  0.4237  0.5132 -0.0561
   6823SM  C10S 8828   1.768   0.743  16.239  0.2544  0.0086  0.0314
   6823SM  H10S 8829   1.806   0.643  16.207 -1.4466 -0.2829 -1.2400
   6823SM  H10T 8830   1.813   0.814  16.167  2.9674 -1.3205  0.2882
   6823SM  C11S 8831   1.612   0.751  16.206  0.1697 -0.5041  0.1070
   6823SM  H11S 8832   1.564   0.845  16.241 -1.3051 -1.3229  0.3548
   6823SM  H11T 8833   1.571   0.666  16.264 -1.0949  1.0489  1.5841
   6823SM  C12S 8834   1.587   0.753  16.058  0.2779  0.1218  0.0610
   6823SM  H12S 8835   1.614   0.653  16.018 -3.8569 -0.9385 -0.5454
   6823SM  H12T 8836   1.657   0.822  16.005  1.7037 -2.9189 -2.2872
   6823SM  C13S 8837   1.454   0.798  15.995  0.2725 -0.1638 -0.5807
   6823SM  H13S 8838   1.428   0.890  16.051 -0.0019 -0.4822 -0.1845
   6823SM  H13T 8839   1.371   0.726  16.011  0.8663 -0.8765 -0.6417
   6823SM  C14S 8840   1.457   0.840  15.846  0.1145 -0.4778  0.2862
   6823SM  H14S 8841   1.360   0.891  15.827  1.2851  1.3531 -1.0551
   6823SM  H14T 8842   1.447   0.750  15.782 -2.0398  0.6047 -1.0046
   6823SM  C15S 8843   1.574   0.925  15.786  0.1280  0.2851 -0.4939
   6823SM  H15S 8844   1.667   0.864  15.794 -0.8957 -1.1548  1.2473
   6823SM  H15T 8845   1.593   1.023  15.835 -1.1688 -0.0752  0.7738
   6823SM  C16S 8846   1.564   0.948  15.628 -0.1897  0.7161  0.6576
   6823SM  H16S 8847   1.641   1.020  15.592  1.9264 -1.8516 -0.3253
   6823SM  H16T 8848   1.464   0.984  15.596  0.6039  1.4994 -1.1047
   6823SM  C17S 8849   1.600   0.823  15.543  0.1918 -0.2299  0.3721
   6823SM  H17S 8850   1.644   0.737  15.598 -1.8872 -0.6384  1.5320
   6823SM  H17T 8851   1.673   0.856  15.466  1.1191  2.3182  2.2089
   6823SM  C18S 8852   1.469   0.765  15.486 -0.2826  0.1673 -0.8334
   6823SM  H18S 8853   1.402   0.747  15.573  0.1495  0.3665 -0.4526
   6823SM  H18T 8854   1.470   0.665  15.438  0.4686 -0.5535  0.6090
   6823SM  H18U 8855   1.429   0.839  15.413 -0.9756  0.8473  0.2080
   6823SM   C1F 8856   2.227   0.903  17.030 -0.1219  0.0231  0.1311
   6823SM    OF 8857   2.267   0.830  17.113  0.4891 -0.3738  0.1038
   6823SM   C2F 8858   2.321   0.983  16.950 -0.1795 -0.9713  0.0289
   6823SM   H2F 8859   2.411   1.009  17.011 -1.5917  2.4445  0.8702
   6823SM   H2G 8860   2.264   1.077  16.937 -2.4140 -1.9890  1.7093
   6823SM   C3F 8861   2.368   0.917  16.820 -0.7101  0.0614  0.1113
   6823SM   H3F 8862   2.439   0.833  16.837 -2.5560 -1.4757  0.5335
   6823SM   H3G 8863   2.417   0.992  16.754 -0.0994 -0.0977  0.3763
   6823SM   C4F 8864   2.260   0.845  16.731 -0.0939  0.0672 -0.2665
   6823SM   H4F 8865   2.186   0.921  16.697  0.3065 -0.2081 -1.7982
   6823SM   H4G 8866   2.202   0.780  16.801  0.4233  0.5270  0.6136
   6823SM   C5F 8867   2.330   0.764  16.617 -0.9890 -0.6557  0.0825
   6823SM   H5F 8868   2.395   0.683  16.656  0.8188  0.4513 -0.4435
   6823SM   H5G 8869   2.390   0.846  16.570 -2.5929  1.5748  1.7497
   6823SM   C6F 8870   2.237   0.713  16.506 -0.2229 -0.2729 -0.3351
   6823SM   H6F 8871   2.139   0.666  16.532 -0.0853  1.0684  3.1617
   6823SM   H6G 8872   2.292   0.620  16.482  0.4279  0.1161 -0.3631
   6823SM   C7F 8873   2.232   0.808  16.391  0.7424 -0.0772  1.0051
   6823SM   H7F 8874   2.332   0.853  16.379 -0.1995  2.3135  1.5568
   6823SM   H7G 8875   2.160   0.887  16.419 -2.0710 -2.6127  1.5093
   6823SM   C8F 8876   2.199   0.739  16.258  0.6196 -0.1160 -0.7996
   6823SM   H8F 8877   2.096   0.701  16.273 -1.1195  3.6072 -2.1197
   6823SM   H8G 8878   2.273   0.656  16.259 -0.6371 -1.2888 -1.2057
   6823SM   C9F 8879   2.189   0.815  16.122  0.5680 -0.1622  0.2036
   6823SM   H9F 8880   2.283   0.875  16.131 -0.5781  1.5329  1.9166
   6823SM   H9G 8881   2.111   0.894  16.132  0.7418  0.0163  0.1717
   6823SM  C10F 8882   2.171   0.738  15.990 -0.2373  0.3404 -0.1435
   6823SM  H10F 8883   2.247   0.657  15.999 -1.3741 -0.7875 -0.2347
   6823SM  H10G 8884   2.203   0.801  15.905  0.7880 -0.7825 -0.6090
   6823SM  C11F 8885   2.026   0.688  15.977 -0.2718  0.5050  0.6756
   6823SM  H11F 8886   1.957   0.775  15.978 -0.2048  0.5628  0.3270
   6823SM  H11G 8887   2.014   0.619  16.064  2.9237 -1.4742 -0.2600
   6823SM  C12F 8888   2.008   0.610  15.845  0.4929 -0.2591 -0.4870
   6823SM  H12F 8889   1.923   0.540  15.856 -0.1994  0.5150 -0.8285
   6823SM  H12G 8890   2.099   0.546  15.847  0.0563 -0.9059 -1.1790
   6823SM  C13F 8891   2.004   0.697  15.720  0.3599 -0.1349  0.1154
   6823SM  H13F 8892   2.083   0.773  15.740 -0.9348  1.1097  0.7264
   6823SM  H13G 8893   1.907   0.746  15.697  1.0991  0.3589 -2.1586
   6823SM  C14F 8894   2.041   0.620  15.598 -0.4809  0.6441 -0.7195
   6823SM  H14F 8895   1.981   0.526  15.601 -1.3491  1.1882 -0.7480
   6823SM  H14G 8896   2.148   0.590  15.598 -1.4416 -3.3298 -0.6952
   6823SM  C15F 8897   2.017   0.693  15.466 -0.1759 -0.0258  0.4355
   6823SM  H15F 8898   2.084   0.781  15.464 -2.0560  1.5086  1.1758
   6823SM  H15G 8899   1.912   0.729  15.457 -0.1383  0.0517  0.3053
   6823SM  C16F 8900   2.052   0.598  15.356  0.8555 -0.5915  0.6593
   6823SM  H16F 8901   1.986   0.510  15.371 -0.3705  0.0407 -0.7603
   6823SM  H16G 8902   2.156   0.558  15.357  0.3502 -1.9336  1.9557
   6823SM  C17F 8903   2.026   0.662  15.218  0.6993 -0.1567 -0.4981
   6823SM  H17F 8904   2.092   0.749  15.199  2.5554 -1.4679 -0.3096
   6823SM  H17G 8905   1.920   0.696  15.221  0.4122 -1.1070  0.4291
   6823SM  C18F 8906   2.037   0.562  15.097 -0.0886 -0.0371  0.7705
   6823SM  H18F 8907   2.144   0.540  15.080  0.0768  0.7739  0.7442
   6823SM  H18G 8908   2.006   0.622  15.009 -0.0430 -0.6031  0.3653
   6823SM  C19F 8909   1.967   0.429  15.102 -0.1465  0.4282  0.8917
   6823SM  H19F 8910   1.856   0.440  15.101 -0.5007 -2.1843  1.4126
   6823SM  H19G 8911   1.994   0.375  15.196 -1.9272 -1.6265  0.3201
   6823SM  C20F 8912   2.006   0.350  14.973  0.6861  1.1296  0.1816
   6823SM  H20F 8913   1.967   0.246  14.984  2.6100  0.1619 -1.5266
   6823SM  H20G 8914   2.117   0.348  14.969  0.6388  0.3300 -2.6810
   6823SM  C21F 8915   1.955   0.410  14.846  0.1288 -0.1047  0.2391
   6823SM  H21F 8916   2.022   0.494  14.820 -0.4543 -0.0782 -1.2823
   6823SM  H21G 8917   1.856   0.455  14.866 -0.1372 -0.3546 -0.4694
   6823SM  C22F 8918   1.922   0.318  14.735 -0.8141  0.8753  0.5596
   6823SM  H22F 8919   1.899   0.383  14.647 -2.3370  0.6601  0.7625
   6823SM  H22G 8920   1.832   0.257  14.756  1.2419 -2.6763 -0.2102
   6823SM  C23F 8921   2.038   0.226  14.702  0.0461 -0.2573  0.3140
   6823SM  H23F 8922   2.061   0.162  14.790  0.9455 -1.0331 -0.4596
   6823SM  H23G 8923   2.118   0.299  14.677 -1.3796  1.0415 -0.6532
   6823SM  H23H 8924   2.040   0.155  14.617  1.0230  0.5962 -0.3970
   6923SM     N 8925   4.146   0.872  17.357 -0.3880  0.1373 -0.3808
   6923SM   C15 8926   4.038   0.772  17.390 -0.3590 -0.1214  0.1611
   6923SM  H15A 8927   4.050   0.735  17.491 -1.9960 -1.0898  0.0407
   6923SM  H15B 8928   4.035   0.682  17.330  0.9846 -2.1197  2.8817
   6923SM  H15C 8929   3.951   0.836  17.392  1.0729  1.9363  1.8772
   6923SM   C14 8930   4.110   0.932  17.232  0.6624 -0.5669  0.5697
   6923SM  H14A 8931   4.090   0.863  17.152 -0.4421  1.2791 -0.8448
   6923SM  H14B 8932   4.182   1.002  17.193 -1.2224  0.2216 -1.7520
   6923SM  H14C 8933   4.021   0.993  17.241  0.6496 -0.2638 -1.1919
   6923SM   C13 8934   4.142   0.977  17.467 -0.3958 -0.9759 -0.6111
   6923SM  H13A 8935   4.045   1.025  17.468  0.8783  1.7845 -1.3290
   6923SM  H13B 8936   4.222   1.048  17.451  1.7861 -2.8899  1.0443
   6923SM  H13C 8937   4.157   0.928  17.562 -0.4219 -1.6534 -0.9499
   6923SM   C12 8938   4.289   0.816  17.346 -0.1770 -0.2406 -0.4016
   6923SM  H12A 8939   4.311   0.752  17.430  0.8584 -0.9865 -1.2246
   6923SM  H12B 8940   4.364   0.894  17.353  0.5110 -1.0444  2.6533
   6923SM   C11 8941   4.323   0.728  17.228 -0.0187 -0.2206 -1.3462
   6923SM  H11A 8942   4.433   0.709  17.236 -0.3122 -1.2179  4.1766
   6923SM  H11B 8943   4.294   0.774  17.131 -0.5830 -1.7369 -1.9149
   6923SM     P 8944   4.289   0.488  17.333 -0.0355 -0.1737 -0.1647
   6923SM   O13 8945   4.398   0.530  17.426  0.4332 -0.2254  0.1788
   6923SM   O14 8946   4.164   0.433  17.390 -0.3592 -0.1965 -0.2927
   6923SM   O11 8947   4.353   0.394  17.227 -0.2544  0.3214  0.4801
   6923SM   O12 8948   4.250   0.608  17.237 -0.2095  0.4742  0.1913
   6923SM   C1S 8949   4.309   0.345  17.105 -0.0189 -0.0755 -0.2100
   6923SM   H1S 8950   4.200   0.322  17.105  0.1288 -0.9161  1.3324
   6923SM   H1T 8951   4.351   0.244  17.089 -0.5051 -0.0421 -1.8307
   6923SM    NF 8952   4.302   0.358  16.855  0.1984  0.5338 -0.9649
   6923SM   HNF 8953   4.367   0.299  16.808  1.3902  0.8788  0.1820
   6923SM   C2S 8954   4.360   0.423  16.974  0.2443  0.3278 -0.6769
   6923SM   H2S 8955   4.323   0.528  16.985 -0.3798  0.0487  0.0348
   6923SM   C3S 8956   4.516   0.436  16.965  0.2634 -0.6864  0.6181
   6923SM   H3S 8957   4.563   0.341  16.931  0.6689 -0.8960  1.7241
   6923SM    O3 8958   4.575   0.472  17.088  0.2595  0.1133  0.4337
   6923SM   HO3 8959   4.498   0.487  17.145 -0.4844 -0.6742 -0.3415
   6923SM   C4S 8960   4.544   0.546  16.873  0.2521 -0.5747  0.4407
   6923SM   H4S 8961   4.524   0.648  16.911  1.5124 -0.5068  0.9907
   6923SM   C5S 8962   4.615   0.527  16.761  0.4256  0.3398 -0.3278
   6923SM   H5S 8963   4.650   0.424  16.743 -1.4023 -0.5020  0.5920
   6923SM   C6S 8964   4.653   0.631  16.660  0.0764 -0.1737 -0.0156
   6923SM   H6S 8965   4.763   0.652  16.659  0.3948 -1.6590  0.9712
   6923SM   H6T 8966   4.590   0.722  16.677 -0.5535 -0.6760  0.3759
   6923SM   C7S 8967   4.606   0.567  16.522  0.2106  0.1836 -0.1658
   6923SM   H7S 8968   4.497   0.545  16.523  0.2478 -0.0041  0.0749
   6923SM   H7T 8969   4.655   0.469  16.502 -1.6871 -0.2867 -3.1106
   6923SM   C8S 8970   4.634   0.664  16.405 -0.1068 -0.3326 -0.1493
   6923SM   H8S 8971   4.739   0.699  16.411 -0.6146  1.2869 -0.2634
   6923SM   H8T 8972   4.574   0.757  16.416 -0.9985 -0.8881 -0.2175
   6923SM   C9S 8973   4.609   0.604  16.258  0.1222  0.1594 -0.5603
   6923SM   H9S 8974   4.503   0.569  16.248  0.7892 -2.8734  1.5696
   6923SM   H9T 8975   4.674   0.515  16.240  2.4294  1.8233 -0.8975
   6923SM  C10S 8976   4.640   0.713  16.157  0.7137  0.5595 -0.8076
   6923SM  H10S 8977   4.746   0.744  16.172  1.1173 -1.2486  0.3023
   6923SM  H10T 8978   4.578   0.801  16.187  1.1965  1.3155 -1.9345
   6923SM  C11S 8979   4.614   0.670  16.017  0.4978 -0.0472  0.4919
   6923SM  H11S 8980   4.509   0.645  15.991  0.7077  0.6770 -1.1725
   6923SM  H11T 8981   4.670   0.575  15.998 -0.5452 -0.4602 -0.6043
   6923SM  C12S 8982   4.663   0.779  15.919  0.2741 -0.0220  0.3390
   6923SM  H12S 8983   4.772   0.789  15.939  0.3688 -2.0446  0.9837
   6923SM  H12T 8984   4.609   0.873  15.943  0.1616  0.3237 -1.1505
   6923SM  C13S 8985   4.639   0.742  15.771 -0.7477  0.2765  0.2437
   6923SM  H13S 8986   4.536   0.772  15.746 -0.2075  1.0126 -1.1913
   6923SM  H13T 8987   4.669   0.637  15.747  0.8650  0.6352  0.5203
   6923SM  C14S 8988   4.717   0.836  15.676 -0.2725 -1.0366  0.3260
   6923SM  H14S 8989   4.826   0.817  15.680  0.1113  1.0013  1.0034
   6923SM  H14T 8990   4.691   0.940  15.705 -0.2320 -0.4402 -1.6139
   6923SM  C15S 8991   4.665   0.809  15.535 -0.6749  0.6269  1.0631
   6923SM  H15S 8992   4.688   0.902  15.479 -0.8946  1.4095  2.2197
   6923SM  H15T 8993   4.555   0.799  15.529 -0.5510 -1.1341  1.3455
   6923SM  C16S 8994   4.740   0.702  15.452  0.2596  0.5894  0.0439
   6923SM  H16S 8995   4.761   0.621  15.524 -3.6023 -1.4214 -0.8363
   6923SM  H16T 8996   4.829   0.736  15.395  0.4702 -0.3760 -0.2075
   6923SM  C17S 8997   4.641   0.629  15.359 -0.0936  0.7657  0.0175
   6923SM  H17S 8998   4.552   0.600  15.419 -1.6006  1.2506 -1.8707
   6923SM  H17T 8999   4.685   0.539  15.310  2.7278  2.7232 -1.2599
   6923SM  C18S 9000   4.579   0.713  15.251 -0.5181  0.1972  0.6509
   6923SM  H18S 9001   4.504   0.653  15.196 -0.3259  1.0081 -0.5382
   6923SM  H18T 9002   4.657   0.751  15.182 -0.5329 -0.6809  0.1405
   6923SM  H18U 9003   4.524   0.796  15.301 -1.3981 -1.7075  3.0455
   6923SM   C1F 9004   4.174   0.385  16.829  1.0893 -0.1297 -0.2097
   6923SM    OF 9005   4.119   0.468  16.903 -1.1078 -0.1387  0.7907
   6923SM   C2F 9006   4.116   0.312  16.709  0.5846  0.7522 -0.2423
   6923SM   H2F 9007   4.141   0.204  16.719 -0.4371  0.6407  1.6404
   6923SM   H2G 9008   4.161   0.343  16.612 -0.0197 -0.8875 -1.0833
   6923SM   C3F 9009   3.966   0.328  16.712 -0.3662 -0.4324 -0.1829
   6923SM   H3F 9010   3.942   0.434  16.733  1.0906 -0.5317  2.3492
   6923SM   H3G 9011   3.917   0.277  16.798  1.2814 -0.4149  0.8170
   6923SM   C4F 9012   3.897   0.292  16.581  0.0727  0.4905  0.0168
   6923SM   H4F 9013   3.942   0.347  16.496 -0.1757  2.8908  1.3652
   6923SM   H4G 9014   3.787   0.308  16.582  0.1689  1.1612  1.1259
   6923SM   C5F 9015   3.920   0.135  16.552  0.1262  0.1058  0.1642
   6923SM   H5F 9016   3.860   0.084  16.630 -0.2958  1.1473  0.5508
   6923SM   H5G 9017   4.025   0.104  16.574 -0.3416 -0.7939  1.2371
   6923SM   C6F 9018   3.857   0.086  16.418  0.2457 -0.3552 -1.2764
   6923SM   H6F 9019   3.762   0.142  16.408  0.5961  0.8542  1.4957
   6923SM   H6G 9020   3.838  -0.023  16.425 -1.5787 -0.0573 -1.2982
   6923SM   C7F 9021   3.947   0.113  16.302 -0.0896 -0.5964 -0.1714
   6923SM   H7F 9022   4.038   0.049  16.297  0.4427 -0.0574  1.8110
   6923SM   H7G 9023   3.981   0.217  16.322  1.1072 -0.7537 -1.2355
   6923SM   C8F 9024   3.877   0.107  16.159 -0.4620 -0.1024 -0.3967
   6923SM   H8F 9025   3.784   0.167  16.144  0.0131  0.6124 -0.5711
   6923SM   H8G 9026   3.840   0.004  16.142  0.8197 -0.6266 -0.0659
   6923SM   C9F 9027   3.961   0.161  16.043 -0.7132  0.2294  0.8113
   6923SM   H9F 9028   3.933   0.112  15.947 -1.6049  1.2555  0.5281
   6923SM   H9G 9029   4.069   0.141  16.060 -0.8862  0.9801  3.1935
   6923SM  C10F 9030   3.953   0.315  16.024  0.3043  0.1026  0.5297
   6923SM  H10F 9031   4.003   0.345  15.930 -1.1705 -3.0030 -1.4199
   6923SM  H10G 9032   3.989   0.361  16.118  0.3802  2.5509 -0.6447
   6923SM  C11F 9033   3.811   0.372  16.004 -0.5587 -0.3109 -1.1185
   6923SM  H11F 9034   3.821   0.480  15.980 -0.4741  0.2153  1.0193
   6923SM  H11G 9035   3.762   0.363  16.103  1.5719 -0.2608  0.0084
   6923SM  C12F 9036   3.731   0.294  15.898 -0.3739 -0.1421  0.4313
   6923SM  H12F 9037   3.626   0.331  15.899 -0.4492 -0.3379 -0.0433
   6923SM  H12G 9038   3.738   0.187  15.930  1.2955  0.0469  0.8018
   6923SM  C13F 9039   3.793   0.288  15.762  0.0525 -0.4271  0.0113
   6923SM  H13F 9040   3.897   0.249  15.764 -0.9655 -3.3263  0.4164
   6923SM  H13G 9041   3.795   0.386  15.710  0.7607  0.9146  2.4071
   6923SM  C14F 9042   3.702   0.192  15.681 -0.1091 -0.2499 -0.1951
   6923SM  H14F 9043   3.599   0.232  15.688 -0.5712 -1.5903  1.1250
   6923SM  H14G 9044   3.698   0.092  15.729  2.5466 -1.5640 -2.3776
   6923SM  C15F 9045   3.741   0.186  15.535  0.1464 -0.8371  0.3815
   6923SM  H15F 9046   3.848   0.160  15.517  0.2211 -0.5677  0.4291
   6923SM  H15G 9047   3.722   0.281  15.481  1.5213 -2.4372 -3.2464
   6923SM  C16F 9048   3.654   0.081  15.459 -0.8776  0.5788 -0.6427
   6923SM  H16F 9049   3.544   0.097  15.469 -0.7409  0.7067  0.9799
   6923SM  H16G 9050   3.679  -0.020  15.496  0.3744  1.1107  0.0216
   6923SM  C17F 9051   3.691   0.079  15.308 -0.0661  0.4693 -0.0258
   6923SM  H17F 9052   3.703  -0.019  15.258  1.1231  0.6511 -0.1132
   6923SM  H17G 9053   3.787   0.129  15.282 -0.6124  0.3278 -2.4877
   6923SM  C18F 9054   3.587   0.161  15.235  0.1033  0.4712 -0.2784
   6923SM  H18F 9055   3.570   0.251  15.298  0.9818  0.7012 -0.3563
   6923SM  H18G 9056   3.493   0.101  15.238  1.0090 -0.9517  2.1808
   6923SM  C19F 9057   3.622   0.196  15.090  0.0936  0.5923 -0.4430
   6923SM  H19F 9058   3.523   0.213  15.043 -0.5344  1.3516  1.0706
   6923SM  H19G 9059   3.674   0.112  15.042 -0.7966  1.8522 -3.8837
   6923SM  C20F 9060   3.719   0.314  15.076  0.0487 -0.4695  0.0302
   6923SM  H20F 9061   3.807   0.309  15.143  2.2520 -0.2755 -2.6627
   6923SM  H20G 9062   3.662   0.406  15.101  0.4613  0.3296 -1.7694
   6923SM  C21F 9063   3.773   0.319  14.929  0.1892 -0.1770 -0.7293
   6923SM  H21F 9064   3.690   0.329  14.856  0.3535  0.5620 -0.8220
   6923SM  H21G 9065   3.814   0.218  14.908 -2.1540 -1.3039 -0.2465
   6923SM  C22F 9066   3.889   0.417  14.905 -0.1821  0.3984  0.4707
   6923SM  H22F 9067   3.963   0.387  14.982  0.2601 -2.6230 -0.9966
   6923SM  H22G 9068   3.847   0.520  14.905 -0.6021  0.3053 -2.2851
   6923SM  C23F 9069   3.964   0.402  14.771 -0.6302 -0.1394  0.1217
   6923SM  H23F 9070   4.051   0.471  14.759 -1.5628  0.9627 -0.4949
   6923SM  H23G 9071   3.888   0.420  14.692 -0.9614  0.9765  0.6594
   6923SM  H23H 9072   4.005   0.299  14.762  2.5293  1.1536 -2.3115
   7023SM     N 9073   3.975   0.099  17.171  0.5905 -0.5607 -0.6496
   7023SM   C15 9074   4.101   0.117  17.245 -0.1796 -0.1471 -0.1878
   7023SM  H15A 9075   4.124   0.031  17.306  0.3768  1.4110  1.9009
   7023SM  H15B 9076   4.106   0.211  17.298 -0.2701  0.8315 -1.8291
   7023SM  H15C 9077   4.184   0.127  17.176  1.1947  0.5739  1.5055
   7023SM   C14 9078   3.874   0.075  17.284  0.0541  0.0343 -0.7355
   7023SM  H14A 9079   3.876  -0.030  17.311 -1.0373 -0.2712 -1.7596
   7023SM  H14B 9080   3.772   0.105  17.265 -0.9101 -1.0391  2.1244
   7023SM  H14C 9081   3.897   0.133  17.372  0.8631  0.4977 -1.2461
   7023SM   C13 9082   3.933   0.222  17.099  0.0546  0.1580  0.4207
   7023SM  H13A 9083   3.915   0.304  17.168  1.7255 -0.2453  1.3803
   7023SM  H13B 9084   3.841   0.199  17.048  0.0700 -0.8416  0.8224
   7023SM  H13C 9085   3.998   0.246  17.017  1.6928 -2.0684  0.9845
   7023SM   C12 9086   3.972  -0.021  17.083 -0.6044 -0.2489  0.5291
   7023SM  H12A 9087   4.046  -0.021  17.004  0.2582  1.1822  1.2917
   7023SM  H12B 9088   3.882  -0.009  17.025 -1.1187 -0.5674  1.2373
   7023SM   C11 9089   3.990  -0.163  17.157  0.2608 -0.3476  0.0180
   7023SM  H11A 9090   4.074  -0.149  17.229  1.3250  0.9598 -1.3962
   7023SM  H11B 9091   4.031  -0.243  17.092 -1.2372 -1.7039  0.6956
   7023SM     P 9092   3.794  -0.312  17.172 -0.0151  0.7247  0.0703
   7023SM   O13 9093   3.871  -0.432  17.134  0.1751 -0.8658  0.2999
   7023SM   O14 9094   3.678  -0.346  17.254 -0.5383  0.2509 -0.1496
   7023SM   O11 9095   3.761  -0.251  17.029  0.6319 -0.5507  0.3370
   7023SM   O12 9096   3.879  -0.210  17.236  0.6768 -0.2308  0.2636
   7023SM   C1S 9097   3.644  -0.172  17.011 -0.4902 -0.8877  0.1502
   7023SM   H1S 9098   3.653  -0.074  17.064 -3.9144 -0.6755  0.5794
   7023SM   H1T 9099   3.552  -0.219  17.054 -0.2949 -0.0626  1.5515
   7023SM    NF 9100   3.555  -0.005  16.863  0.0714  0.3121  0.3774
   7023SM   HNF 9101   3.457   0.007  16.878 -0.2927  0.6566 -1.9992
   7023SM   C2S 9102   3.621  -0.136  16.866 -0.2130  0.1944 -0.2543
   7023SM   H2S 9103   3.723  -0.126  16.823  0.5712 -1.1370  1.1697
   7023SM   C3S 9104   3.539  -0.251  16.802 -0.2783 -0.5177 -0.1622
   7023SM   H3S 9105   3.436  -0.257  16.843 -0.2986 -2.0203 -0.3820
   7023SM    O3 9106   3.602  -0.379  16.832 -0.1919  0.4463 -0.6155
   7023SM   HO3 9107   3.671  -0.359  16.895  1.0237 -0.3828 -1.6303
   7023SM   C4S 9108   3.539  -0.238  16.652  0.4030 -0.6870 -0.7295
   7023SM   H4S 9109   3.642  -0.227  16.613  0.4455  1.1221 -0.1789
   7023SM   C5S 9110   3.435  -0.232  16.571 -0.4557  0.5156 -0.2239
   7023SM   H5S 9111   3.337  -0.233  16.622 -0.3813 -0.7739 -0.0694
   7023SM   C6S 9112   3.428  -0.215  16.422 -0.9115 -0.0153  0.3645
   7023SM   H6S 9113   3.352  -0.141  16.387 -1.9177 -1.4645 -0.6453
   7023SM   H6T 9114   3.386  -0.311  16.383 -1.7313  0.9927 -1.3582
   7023SM   C7S 9115   3.570  -0.194  16.364 -0.4292 -0.7738 -0.6869
   7023SM   H7S 9116   3.641  -0.274  16.391  0.2877 -0.7873 -2.4769
   7023SM   H7T 9117   3.606  -0.099  16.409 -3.5356 -0.4167  1.3494
   7023SM   C8S 9118   3.568  -0.187  16.211 -0.9827 -0.5788  0.3413
   7023SM   H8S 9119   3.665  -0.145  16.175 -0.4890  0.2609  2.4955
   7023SM   H8T 9120   3.482  -0.129  16.172  0.5317 -0.0414 -2.5206
   7023SM   C9S 9121   3.564  -0.319  16.148 -0.3876 -0.3104  0.4311
   7023SM   H9S 9122   3.460  -0.352  16.171 -1.0773  0.0519 -1.8531
   7023SM   H9T 9123   3.636  -0.391  16.192  0.0787  0.7924  1.4947
   7023SM  C10S 9124   3.584  -0.326  15.990  0.0172 -0.1815  0.0402
   7023SM  H10S 9125   3.553  -0.428  15.959  0.4304 -0.3961  0.3195
   7023SM  H10T 9126   3.693  -0.322  15.974 -0.5336 -0.2009 -5.2486
   7023SM  C11S 9127   3.509  -0.211  15.923  0.2231  0.3028  0.6992
   7023SM  H11S 9128   3.523  -0.111  15.969  3.7051  0.0533  0.4574
   7023SM  H11T 9129   3.400  -0.231  15.933  0.1380  0.9995  1.2670
   7023SM  C12S 9130   3.554  -0.186  15.775  0.1901 -0.0927  0.7598
   7023SM  H12S 9131   3.661  -0.163  15.798  0.0704  0.8320  0.4355
   7023SM  H12T 9132   3.494  -0.098  15.743 -0.0732  0.3065  2.2551
   7023SM  C13S 9133   3.544  -0.304  15.675 -0.3271  0.6949  0.2789
   7023SM  H13S 9134   3.439  -0.313  15.640  0.5625  0.1013 -2.5704
   7023SM  H13T 9135   3.582  -0.400  15.717  0.1348  1.7034  2.2955
   7023SM  C14S 9136   3.602  -0.276  15.536  0.2646  0.9197  0.4829
   7023SM  H14S 9137   3.712  -0.266  15.536  0.1957  1.7454 -0.2395
   7023SM  H14T 9138   3.564  -0.178  15.501 -0.1561  0.5979  0.0339
   7023SM  C15S 9139   3.556  -0.384  15.437 -0.6104 -0.1287  0.3448
   7023SM  H15S 9140   3.448  -0.365  15.421 -0.9198 -1.1904  1.0891
   7023SM  H15T 9141   3.562  -0.480  15.492  0.0182  0.1822  0.8441
   7023SM  C16S 9142   3.638  -0.379  15.311 -0.1307 -0.8117  0.7805
   7023SM  H16S 9143   3.741  -0.420  15.323 -0.1989 -0.7134  1.8472
   7023SM  H16T 9144   3.648  -0.275  15.275 -0.4538 -0.8631  0.5444
   7023SM  C17S 9145   3.589  -0.460  15.189  0.2831 -0.0387  0.5181
   7023SM  H17S 9146   3.493  -0.414  15.154  1.0792  1.1178 -0.2432
   7023SM  H17T 9147   3.577  -0.565  15.224 -1.8073  0.3991  1.3185
   7023SM  C18S 9148   3.679  -0.450  15.065 -0.1116 -0.3389 -0.0745
   7023SM  H18S 9149   3.780  -0.487  15.093 -0.7932 -0.9078  1.7561
   7023SM  H18T 9150   3.700  -0.353  15.015  4.6369 -0.1522  1.7869
   7023SM  H18U 9151   3.647  -0.519  14.983  1.0962 -1.7241  0.5687
   7023SM   C1F 9152   3.630   0.104  16.876 -0.0169  0.5021 -0.0755
   7023SM    OF 9153   3.748   0.107  16.872  0.2022  0.2388 -0.2285
   7023SM   C2F 9154   3.558   0.228  16.919 -0.0246  0.2293 -0.2455
   7023SM   H2F 9155   3.556   0.229  17.030  1.8091 -0.2785 -0.1773
   7023SM   H2G 9156   3.453   0.225  16.882  0.6575  0.6950 -2.3872
   7023SM   C3F 9157   3.625   0.358  16.857 -0.2183 -0.7332  0.5329
   7023SM   H3F 9158   3.638   0.333  16.750 -1.4114  1.0481 -0.0804
   7023SM   H3G 9159   3.728   0.371  16.896 -0.4301  0.0505  0.8545
   7023SM   C4F 9160   3.538   0.478  16.866  0.2797 -0.0151  0.0237
   7023SM   H4F 9161   3.512   0.496  16.972 -0.4633 -2.5203  0.3248
   7023SM   H4G 9162   3.444   0.459  16.810 -0.0778  0.2727  0.5252
   7023SM   C5F 9163   3.594   0.613  16.803 -0.1423  0.3287  0.1649
   7023SM   H5F 9164   3.685   0.639  16.861  2.3467 -0.1307 -3.2286
   7023SM   H5G 9165   3.518   0.693  16.813  0.2298  0.5604  1.3264
   7023SM   C6F 9166   3.628   0.612  16.650  0.4833 -0.5432  0.0245
   7023SM   H6F 9167   3.546   0.560  16.596  0.3947 -2.0839  1.5700
   7023SM   H6G 9168   3.720   0.551  16.638  1.8027  1.1996  0.7530
   7023SM   C7F 9169   3.651   0.753  16.603  0.2511 -0.2850  0.1762
   7023SM   H7F 9170   3.727   0.808  16.662  0.0670 -1.3864  1.4821
   7023SM   H7G 9171   3.557   0.812  16.608 -0.5849 -1.0259 -3.5804
   7023SM   C8F 9172   3.712   0.749  16.464 -0.5887  0.0293  0.1572
   7023SM   H8F 9173   3.801   0.686  16.442  2.2900  3.6482  0.4926
   7023SM   H8G 9174   3.751   0.851  16.441  0.6782 -0.2546  0.9287
   7023SM   C9F 9175   3.610   0.715  16.358 -0.1446  0.0774  0.1809
   7023SM   H9F 9176   3.526   0.786  16.345 -0.2663  0.4825  2.7649
   7023SM   H9G 9177   3.563   0.615  16.368 -0.7881  0.5332  2.0031
   7023SM  C10F 9178   3.680   0.709  16.225 -0.0245 -0.8652 -0.5779
   7023SM  H10F 9179   3.780   0.660  16.227  0.1623 -0.4886  1.7607
   7023SM  H10G 9180   3.693   0.811  16.184  0.4644 -1.2864 -1.5245
   7023SM  C11F 9181   3.590   0.647  16.116 -0.4888 -0.3407  0.1434
   7023SM  H11F 9182   3.485   0.684  16.122 -0.2195  1.0411 -2.2822
   7023SM  H11G 9183   3.594   0.537  16.120 -1.6865 -0.4003  0.1716
   7023SM  C12F 9184   3.639   0.701  15.977 -0.4443  0.0786  0.1324
   7023SM  H12F 9185   3.743   0.663  15.970 -0.8495 -1.0553  0.0400
   7023SM  H12G 9186   3.635   0.812  15.987 -0.1176  0.1626 -0.5996
   7023SM  C13F 9187   3.557   0.647  15.871  0.4268  0.5225  0.0994
   7023SM  H13F 9188   3.458   0.694  15.888  1.3581  1.9119  2.0082
   7023SM  H13G 9189   3.553   0.536  15.873  1.5771  0.4449 -0.7687
   7023SM  C14F 9190   3.596   0.692  15.727  0.7063 -0.0181 -0.4320
   7023SM  H14F 9191   3.705   0.685  15.709  0.8816 -2.5754  1.2678
   7023SM  H14G 9192   3.564   0.795  15.698  2.5692 -0.3732 -4.4474
   7023SM  C15F 9193   3.523   0.600  15.626  0.2700  0.5669 -0.7545
   7023SM  H15F 9194   3.416   0.614  15.650  0.1262  1.6092 -1.9174
   7023SM  H15G 9195   3.564   0.498  15.642  1.2690  0.6195 -2.6808
   7023SM  C16F 9196   3.546   0.637  15.483  0.3692  0.0624 -0.1499
   7023SM  H16F 9197   3.649   0.649  15.445 -0.3365 -0.6894 -2.4741
   7023SM  H16G 9198   3.507   0.739  15.461 -0.7688 -0.0603  1.1563
   7023SM  C17F 9199   3.482   0.541  15.390  0.9325  0.3871  0.4478
   7023SM  H17F 9200   3.381   0.518  15.432  0.0172  3.5521  0.1885
   7023SM  H17G 9201   3.536   0.444  15.402 -0.7336 -0.4527  1.6961
   7023SM  C18F 9202   3.483   0.590  15.243  0.0874  0.6552 -0.2834
   7023SM  H18F 9203   3.585   0.597  15.199  0.5369  2.9446  1.0147
   7023SM  H18G 9204   3.466   0.699  15.251 -1.7136  0.3468  0.6867
   7023SM  C19F 9205   3.376   0.528  15.151  0.4317  0.2240 -0.0002
   7023SM  H19F 9206   3.294   0.496  15.218  0.0824  0.0947 -0.4863
   7023SM  H19G 9207   3.415   0.430  15.115  1.2629  0.7521 -0.5870
   7023SM  C20F 9208   3.311   0.625  15.050  0.0784 -0.1125 -0.1234
   7023SM  H20F 9209   3.260   0.697  15.116  2.3788  1.4873  0.0239
   7023SM  H20G 9210   3.235   0.569  14.991 -0.8630  1.5940 -0.5876
   7023SM  C21F 9211   3.409   0.708  14.969 -0.1003 -0.1288 -0.5596
   7023SM  H21F 9212   3.464   0.780  15.034  1.2661 -1.2563 -0.4491
   7023SM  H21G 9213   3.352   0.781  14.907 -0.4674 -0.6439 -0.8318
   7023SM  C22F 9214   3.503   0.638  14.876  0.5016 -0.2925 -0.7559
   7023SM  H22F 9215   3.567   0.578  14.944 -1.9230 -0.6301  1.3667
   7023SM  H22G 9216   3.553   0.718  14.818  0.5783  2.3812  2.6802
   7023SM  C23F 9217   3.438   0.542  14.775 -0.0274  0.3221  0.1327
   7023SM  H23F 9218   3.525   0.499  14.721 -0.5205 -1.4519  0.6802
   7023SM  H23G 9219   3.377   0.593  14.697  1.6689  0.9395 -0.8501
   7023SM  H23H 9220   3.387   0.453  14.817  2.0498 -2.5021 -2.8484
   7123SM     N 9221   3.380   5.600  17.123  0.7898  0.3967  0.4204
   7123SM   C15 9222   3.505   5.535  17.074 -0.0060  0.4026 -0.2534
   7123SM  H15A 9223   3.565   5.514  17.161  1.4918  1.6607 -0.9440
   7123SM  H15B 9224   3.565   5.608  17.022 -0.3031  0.5550 -0.3835
   7123SM  H15C 9225   3.486   5.451  17.009 -2.0964  1.0799 -0.6276
   7123SM   C14 9226   3.303   5.645  17.001  0.3602  0.3990 -0.0834
   7123SM  H14A 9227   3.360   5.728  16.961  0.8442  0.9958  1.7554
   7123SM  H14B 9228   3.205   5.685  17.023  1.1417  3.4627 -1.6005
   7123SM  H14C 9229   3.297   5.568  16.925  0.9777  0.2433  0.0216
   7123SM   C13 9230   3.299   5.500  17.206  0.0133 -0.4229  0.8835
   7123SM  H13A 9231   3.358   5.470  17.291  2.3705  0.2577 -0.4218
   7123SM  H13B 9232   3.269   5.413  17.151 -1.9333  1.6851 -1.6748
   7123SM  H13C 9233   3.211   5.546  17.248  1.5112  2.5110  1.1042
   7123SM   C12 9234   3.409   5.724  17.208 -0.0099 -0.1674  0.0957
   7123SM  H12A 9235   3.468   5.795  17.152  1.2637 -1.2846 -0.0251
   7123SM  H12B 9236   3.478   5.695  17.286  0.0871 -2.4646 -0.7690
   7123SM   C11 9237   3.292   5.807  17.272  0.4708  0.2725  0.1730
   7123SM  H11A 9238   3.341   5.890  17.326  0.5963 -0.1905  0.7767
   7123SM  H11B 9239   3.237   5.750  17.351  1.2034 -0.4635  0.1647
   7123SM     P 9240   3.074   5.942  17.215  0.2391 -0.2824 -0.0438
   7123SM   O13 9241   2.952   5.860  17.230 -0.2116 -0.3813  0.2339
   7123SM   O14 9242   3.112   6.028  17.327 -0.0492 -0.0828  0.2187
   7123SM   O11 9243   3.054   6.036  17.092 -0.2555 -0.0967  0.0624
   7123SM   O12 9244   3.200   5.857  17.174  0.5127  0.2752 -0.8881
   7123SM   C1S 9245   3.032   5.980  16.959 -0.0972 -0.4182 -0.6699
   7123SM   H1S 9246   2.940   5.918  16.966 -0.9980  1.0125  1.8187
   7123SM   H1T 9247   3.113   5.907  16.937  1.7008  1.2466  0.1511
   7123SM    NF 9248   3.021   6.000  16.715 -0.1622 -0.6378 -0.8447
   7123SM   HNF 9249   3.108   5.983  16.670  0.1786  0.4974 -0.6482
   7123SM   C2S 9250   3.027   6.081  16.841 -0.0850 -0.1009  0.5421
   7123SM   H2S 9251   2.927   6.128  16.851 -0.0505 -0.4216  3.1627
   7123SM   C3S 9252   3.139   6.190  16.850  0.7416 -0.0758 -0.5816
   7123SM   H3S 9253   3.239   6.144  16.832  0.9668 -0.7622  2.0270
   7123SM    O3 9254   3.164   6.242  16.985  0.4355 -0.0733 -0.0690
   7123SM   HO3 9255   3.113   6.184  17.042 -1.0729  2.7464  1.6793
   7123SM   C4S 9256   3.108   6.297  16.745 -0.5703 -1.0150  0.2718
   7123SM   H4S 9257   3.150   6.272  16.647 -0.4690 -0.5521  0.1993
   7123SM   C5S 9258   3.034   6.408  16.755 -0.1100 -0.2752 -0.1103
   7123SM   H5S 9259   2.975   6.430  16.845  0.2798 -0.3424  0.1606
   7123SM   C6S 9260   3.021   6.517  16.646 -0.0586 -0.8748 -0.5002
   7123SM   H6S 9261   3.082   6.603  16.683 -1.1060 -0.7334  0.9844
   7123SM   H6T 9262   2.920   6.559  16.628  1.1129  1.8358 -1.2732
   7123SM   C7S 9263   3.058   6.481  16.501  0.0326 -0.2613 -0.5376
   7123SM   H7S 9264   2.979   6.414  16.460 -1.0598  0.4560  0.3491
   7123SM   H7T 9265   3.158   6.433  16.511  0.5813  0.4169 -2.4011
   7123SM   C8S 9266   3.073   6.589  16.397  0.1679 -1.0903  0.5462
   7123SM   H8S 9267   3.146   6.668  16.425  0.1644 -1.5452  1.9388
   7123SM   H8T 9268   2.975   6.640  16.391  0.7267 -0.1513 -1.4141
   7123SM   C9S 9269   3.118   6.518  16.263  0.2356 -0.1529  0.2434
   7123SM   H9S 9270   3.049   6.432  16.250  0.4979 -0.3974  0.4560
   7123SM   H9T 9271   3.221   6.478  16.274 -0.0260 -1.3976 -1.5281
   7123SM  C10S 9272   3.103   6.608  16.142 -0.2455  0.2537  0.2575
   7123SM  H10S 9273   3.182   6.685  16.133 -0.0521  0.1597  1.1067
   7123SM  H10T 9274   3.007   6.662  16.137  0.4532  1.6308  1.3255
   7123SM  C11S 9275   3.111   6.520  16.012 -0.2512  0.0360  0.5706
   7123SM  H11S 9276   3.016   6.463  15.998  1.1193 -2.4152  0.7433
   7123SM  H11T 9277   3.196   6.457  16.046 -0.0327  1.0768  2.0803
   7123SM  C12S 9278   3.129   6.614  15.894  0.0406  0.6865  0.7472
   7123SM  H12S 9279   3.227   6.665  15.911  2.1594 -1.4756 -3.4975
   7123SM  H12T 9280   3.039   6.679  15.890 -2.0762 -2.1080  0.2943
   7123SM  C13S 9281   3.146   6.540  15.765 -0.3746  0.7015  0.4794
   7123SM  H13S 9282   3.057   6.479  15.738  0.2172 -0.4317  1.0267
   7123SM  H13T 9283   3.221   6.460  15.784 -0.7638  0.2127 -0.0087
   7123SM  C14S 9284   3.186   6.619  15.647  0.0178  0.0016 -0.5882
   7123SM  H14S 9285   3.296   6.635  15.655  0.3562 -2.7032  1.6870
   7123SM  H14T 9286   3.122   6.710  15.637  2.4798  1.9459  0.1439
   7123SM  C15S 9287   3.165   6.525  15.526 -0.3458 -0.2466 -1.3660
   7123SM  H15S 9288   3.057   6.499  15.524 -0.9011  1.6456  0.7339
   7123SM  H15T 9289   3.231   6.437  15.542 -1.0277 -0.5676 -0.1873
   7123SM  C16S 9290   3.207   6.600  15.397  0.0901  0.6586 -0.9986
   7123SM  H16S 9291   3.311   6.637  15.409  1.2918 -2.5856 -0.3734
   7123SM  H16T 9292   3.138   6.685  15.375 -0.1224  0.2341 -2.0774
   7123SM  C17S 9293   3.201   6.506  15.273 -0.7896 -0.3714 -0.2325
   7123SM  H17S 9294   3.100   6.461  15.260 -0.2913 -1.5554 -0.0557
   7123SM  H17T 9295   3.263   6.416  15.290 -1.1598 -0.5604  0.1377
   7123SM  C18S 9296   3.253   6.569  15.148 -0.0062 -0.4064 -0.2612
   7123SM  H18S 9297   3.358   6.604  15.161 -0.0368 -0.7828  1.1620
   7123SM  H18T 9298   3.189   6.655  15.120 -1.6959 -0.4383  3.0569
   7123SM  H18U 9299   3.244   6.507  15.057 -1.4073 -0.1636 -0.3023
   7123SM   C1F 9300   2.910   5.947  16.670 -1.0244  0.2624  0.5578
   7123SM    OF 9301   2.810   5.941  16.738  0.3503  0.1466 -0.1062
   7123SM   C2F 9302   2.924   5.881  16.537  0.3782  0.7581  0.6662
   7123SM   H2F 9303   3.017   5.911  16.482  0.1012 -1.6559 -1.3038
   7123SM   H2G 9304   2.836   5.892  16.470 -0.8206 -3.7967  1.1669
   7123SM   C3F 9305   2.944   5.724  16.546 -0.0095  0.0976  0.3996
   7123SM   H3F 9306   2.874   5.683  16.622 -1.4495  3.6532  1.1989
   7123SM   H3G 9307   3.042   5.712  16.597  0.4806  1.6137 -0.1601
   7123SM   C4F 9308   2.940   5.658  16.412 -0.8862  0.4558 -0.2355
   7123SM   H4F 9309   2.846   5.696  16.366 -0.2794  1.6883 -0.5073
   7123SM   H4G 9310   2.937   5.547  16.424 -0.2556  0.0899 -2.7633
   7123SM   C5F 9311   3.063   5.687  16.324 -0.2283 -0.0174 -0.3013
   7123SM   H5F 9312   3.131   5.599  16.325  1.4903  1.2661 -0.1537
   7123SM   H5G 9313   3.130   5.769  16.357  0.5202 -0.9829  0.6326
   7123SM   C6F 9314   3.027   5.706  16.182 -0.1681  0.1676  0.5603
   7123SM   H6F 9315   3.114   5.740  16.123 -0.8222  1.0594  0.0891
   7123SM   H6G 9316   2.963   5.796  16.168 -0.1821 -0.0682 -1.1763
   7123SM   C7F 9317   2.958   5.581  16.118  0.5948  0.0711 -0.2035
   7123SM   H7F 9318   2.855   5.564  16.154  0.1109  2.2175 -0.4353
   7123SM   H7G 9319   3.020   5.493  16.148  0.5457  0.2849  0.5420
   7123SM   C8F 9320   2.940   5.581  15.968  0.0008  0.5038 -0.0979
   7123SM   H8F 9321   2.869   5.666  15.957 -0.3506  0.2700  0.2875
   7123SM   H8G 9322   2.880   5.493  15.936 -0.1161  1.0470 -1.4409
   7123SM   C9F 9323   3.066   5.594  15.890  0.2635  0.3199  0.2645
   7123SM   H9F 9324   3.141   5.523  15.931  2.5362  1.5378 -1.5194
   7123SM   H9G 9325   3.115   5.692  15.904  0.3917  0.6828 -2.1988
   7123SM  C10F 9326   3.082   5.565  15.738 -0.7720  0.2645 -0.1075
   7123SM  H10F 9327   3.059   5.457  15.724  1.2870 -0.2165 -0.0257
   7123SM  H10G 9328   3.184   5.598  15.710 -0.9570 -0.2120 -1.4019
   7123SM  C11F 9329   2.995   5.651  15.651 -0.2331  0.2817  0.3867
   7123SM  H11F 9330   3.026   5.757  15.664  1.9546 -0.5168  2.2818
   7123SM  H11G 9331   2.893   5.639  15.694 -1.9993 -2.6352 -3.9244
   7123SM  C12F 9332   3.004   5.606  15.505 -0.0217 -0.0296 -0.0655
   7123SM  H12F 9333   2.970   5.502  15.489 -1.3647  0.2232  0.9886
   7123SM  H12G 9334   3.103   5.605  15.456 -0.8734  1.1564 -1.9194
   7123SM  C13F 9335   2.904   5.681  15.421  0.2771  0.0161  0.2259
   7123SM  H13F 9336   2.914   5.791  15.429  0.2509  0.3559 -2.9467
   7123SM  H13G 9337   2.802   5.647  15.449  0.3402  0.0620  0.5130
   7123SM  C14F 9338   2.916   5.648  15.270  0.1891  0.9080  0.2156
   7123SM  H14F 9339   2.827   5.686  15.216  1.1948  2.0302 -0.7173
   7123SM  H14G 9340   2.916   5.538  15.256  1.1958  0.9830 -0.5194
   7123SM  C15F 9341   3.046   5.705  15.204  0.1192  0.0210 -0.4676
   7123SM  H15F 9342   3.137   5.663  15.254 -0.6274 -0.2787  0.6881
   7123SM  H15G 9343   3.052   5.814  15.225  1.9575  0.4531 -2.8269
   7123SM  C16F 9344   3.058   5.678  15.055 -0.1867  0.1970  0.2083
   7123SM  H16F 9345   2.958   5.701  15.012 -0.5970 -0.3805  0.8204
   7123SM  H16G 9346   3.078   5.569  15.046  3.1967  0.8782 -2.0956
   7123SM  C17F 9347   3.164   5.755  14.976 -0.5873 -0.7491 -0.0287
   7123SM  H17F 9348   3.253   5.784  15.036  0.6212 -1.2792 -1.5153
   7123SM  H17G 9349   3.139   5.853  14.931  3.0575  0.4511  0.2318
   7123SM  C18F 9350   3.199   5.693  14.838  0.4224 -0.1720  0.3228
   7123SM  H18F 9351   3.106   5.688  14.778  0.5685 -0.1406  0.0952
   7123SM  H18G 9352   3.234   5.587  14.844  1.8150  0.2581  0.1680
   7123SM  C19F 9353   3.300   5.773  14.750 -0.2409 -0.0648 -0.8386
   7123SM  H19F 9354   3.400   5.738  14.783 -0.1060  1.4689  0.4999
   7123SM  H19G 9355   3.289   5.882  14.764 -1.7252 -0.0784 -1.7451
   7123SM  C20F 9356   3.272   5.754  14.599 -0.3906 -0.2415 -0.5601
   7123SM  H20F 9357   3.351   5.802  14.537 -0.1879 -0.0754 -0.1765
   7123SM  H20G 9358   3.171   5.798  14.583 -1.2558 -0.5130  3.3433
   7123SM  C21F 9359   3.273   5.602  14.548 -0.6231 -0.3133  0.8422
   7123SM  H21F 9360   3.207   5.545  14.617 -0.6391 -0.7260  0.4993
   7123SM  H21G 9361   3.380   5.576  14.557  0.5164  2.7226 -1.8850
   7123SM  C22F 9362   3.219   5.609  14.410 -0.2786  0.2861 -0.0870
   7123SM  H22F 9363   3.287   5.672  14.349  3.5946 -1.9315  1.5991
   7123SM  H22G 9364   3.115   5.647  14.419 -0.1314  0.5205  0.7384
   7123SM  C23F 9365   3.224   5.483  14.327  0.0236  0.4067  0.1515
   7123SM  H23F 9366   3.157   5.406  14.371  0.8515  0.1513  0.9926
   7123SM  H23G 9367   3.328   5.444  14.327 -0.2836 -0.4332  0.8009
   7123SM  H23H 9368   3.194   5.504  14.222 -1.0941  3.0176  0.9029
   7223SM     N 9369   5.622   2.184  17.119  0.1020  0.4688  0.3180
   7223SM   C15 9370   5.649   2.040  17.167  0.2384  0.0806 -0.0574
   7223SM  H15A 9371   5.756   2.023  17.167  0.6994  2.6039 -0.3994
   7223SM  H15B 9372   5.607   1.974  17.093  0.4863 -0.4001  0.2302
   7223SM  H15C 9373   5.611   2.014  17.265 -1.3419  2.3178  0.0044
   7223SM   C14 9374   5.479   2.214  17.147  0.1687  0.3386  0.1936
   7223SM  H14A 9375   5.467   2.320  17.159 -0.9892  0.2394 -0.0126
   7223SM  H14B 9376   5.444   2.163  17.236  1.9986 -0.3971  0.5344
   7223SM  H14C 9377   5.416   2.193  17.062  0.5434 -1.8701  0.3958
   7223SM   C13 9378   5.705   2.280  17.208  0.0954 -0.7336  0.0053
   7223SM  H13A 9379   5.805   2.242  17.223 -0.9141 -3.7805 -0.3369
   7223SM  H13B 9380   5.655   2.284  17.304 -0.5647  0.5113 -0.3746
   7223SM  H13C 9381   5.703   2.382  17.173 -2.2511 -0.7658 -0.1247
   7223SM   C12 9382   5.659   2.199  16.970 -1.0589  0.0209  0.2247
   7223SM  H12A 9383   5.617   2.116  16.916  1.4799 -2.1787  1.4215
   7223SM  H12B 9384   5.767   2.191  16.969 -1.0144  0.1129  1.9754
   7223SM   C11 9385   5.619   2.331  16.896 -0.1255 -0.2064  0.2953
   7223SM  H11A 9386   5.519   2.366  16.929 -0.9985  0.6457 -2.9069
   7223SM  H11B 9387   5.601   2.306  16.789 -0.8353  0.8002  0.1613
   7223SM     P 9388   5.820   2.482  16.817 -0.2187  0.1223 -0.1123
   7223SM   O13 9389   5.891   2.602  16.869  0.0985 -0.1887  0.3194
   7223SM   O14 9390   5.895   2.353  16.794 -0.2510 -0.0073  0.0823
   7223SM   O11 9391   5.747   2.525  16.688  0.5638  0.0936  0.3506
   7223SM   O12 9392   5.703   2.444  16.918  0.1344  0.1537 -0.1065
   7223SM   C1S 9393   5.800   2.483  16.561 -0.1478  0.2898  0.5231
   7223SM   H1S 9394   5.826   2.375  16.554  3.8352  1.1820 -1.1656
   7223SM   H1T 9395   5.893   2.539  16.538 -0.2654  0.0753 -0.5422
   7223SM    NF 9396   5.731   2.450  16.322 -0.0508  0.6014 -0.0308
   7223SM   HNF 9397   5.754   2.530  16.267  0.9676  0.4445  0.1379
   7223SM   C2S 9398   5.683   2.495  16.456  0.2380  0.1858  0.3782
   7223SM   H2S 9399   5.612   2.412  16.477  0.9208 -0.5550 -0.2020
   7223SM   C3S 9400   5.608   2.634  16.454  0.6616 -0.5430 -0.2209
   7223SM   H3S 9401   5.683   2.702  16.407  1.2844 -1.1087 -0.0561
   7223SM    O3 9402   5.568   2.688  16.582  0.5457 -1.1038 -0.2807
   7223SM   HO3 9403   5.618   2.633  16.643  2.0693  2.8734  2.4482
   7223SM   C4S 9404   5.491   2.629  16.357 -0.0165 -1.2859  0.4949
   7223SM   H4S 9405   5.517   2.667  16.257 -0.3775  1.0556  1.2267
   7223SM   C5S 9406   5.365   2.576  16.378  0.1886 -0.2178 -0.8103
   7223SM   H5S 9407   5.333   2.531  16.472  0.8218 -2.7314 -1.7257
   7223SM   C6S 9408   5.259   2.570  16.261 -0.1840 -0.7673 -0.4381
   7223SM   H6S 9409   5.174   2.639  16.277  1.4572  1.5615 -1.1836
   7223SM   H6T 9410   5.215   2.468  16.265  0.2066 -0.8935  1.8218
   7223SM   C7S 9411   5.306   2.599  16.116 -0.1006  0.1855 -0.1675
   7223SM   H7S 9412   5.399   2.543  16.096  1.1774  1.1060  2.7562
   7223SM   H7T 9413   5.329   2.708  16.116 -0.1543  0.4799  5.3183
   7223SM   C8S 9414   5.194   2.565  16.009  0.1840 -0.7520 -0.0123
   7223SM   H8S 9415   5.106   2.625  16.041  0.7486  0.3624 -0.4629
   7223SM   H8T 9416   5.168   2.458  16.023 -0.7274 -0.5641 -0.2409
   7223SM   C9S 9417   5.236   2.603  15.864  0.4144  0.4191 -0.0364
   7223SM   H9S 9418   5.323   2.550  15.822  0.6699  0.2680  0.6682
   7223SM   H9T 9419   5.255   2.713  15.861 -1.3804  0.7460 -0.9451
   7223SM  C10S 9420   5.128   2.576  15.757  0.1919  0.1791  0.0098
   7223SM  H10S 9421   5.047   2.643  15.791  2.5271  1.5062  3.6262
   7223SM  H10T 9422   5.094   2.470  15.752 -1.0887  0.5384  0.8256
   7223SM  C11S 9423   5.167   2.611  15.609 -0.4700 -0.2135  0.4470
   7223SM  H11S 9424   5.250   2.539  15.593 -0.2543 -0.1271  1.1479
   7223SM  H11T 9425   5.210   2.713  15.601  0.1465 -0.3984  1.2295
   7223SM  C12S 9426   5.060   2.579  15.509  0.2795 -0.0070  0.3134
   7223SM  H12S 9427   4.979   2.648  15.540 -0.4689 -1.4868  1.8341
   7223SM  H12T 9428   5.033   2.473  15.533 -0.0913 -0.7178 -2.8264
   7223SM  C13S 9429   5.113   2.592  15.369  0.6158 -0.4080 -0.1946
   7223SM  H13S 9430   5.203   2.527  15.362  0.4743 -0.6417  0.1435
   7223SM  H13T 9431   5.158   2.694  15.359  0.4259 -0.3066 -0.0275
   7223SM  C14S 9432   5.023   2.545  15.256  0.2210 -0.4153 -0.2316
   7223SM  H14S 9433   4.947   2.621  15.226  2.6734  1.2706 -2.6771
   7223SM  H14T 9434   4.984   2.444  15.282  0.1786 -0.4395 -0.3866
   7223SM  C15S 9435   5.107   2.519  15.131  0.7221 -0.1431 -0.0793
   7223SM  H15S 9436   5.192   2.452  15.160  2.2121  1.3139 -0.9175
   7223SM  H15T 9437   5.167   2.603  15.089 -0.1224 -0.6157 -2.3817
   7223SM  C16S 9438   5.035   2.466  14.998  0.0023 -0.0094 -0.5148
   7223SM  H16S 9439   4.989   2.373  15.035  0.0946  0.5793  1.1417
   7223SM  H16T 9440   5.113   2.446  14.920 -0.1986  1.5952 -1.1707
   7223SM  C17S 9441   4.932   2.565  14.938 -0.1673 -0.3592 -0.2344
   7223SM  H17S 9442   4.857   2.566  15.020 -0.3361 -1.2676 -0.3609
   7223SM  H17T 9443   4.883   2.528  14.845 -3.0875  0.0183  1.0390
   7223SM  C18S 9444   4.990   2.707  14.907  0.6769 -0.4461 -0.6944
   7223SM  H18S 9445   4.905   2.756  14.856 -1.8731 -2.9412  0.9144
   7223SM  H18T 9446   5.083   2.728  14.850  0.4999  0.1795 -0.7635
   7223SM  H18U 9447   5.011   2.754  15.005  1.4514 -3.2046  0.5778
   7223SM   C1F 9448   5.776   2.331  16.283 -1.0614 -0.3796 -0.0879
   7223SM    OF 9449   5.761   2.225  16.339  0.2988  0.2253 -0.4582
   7223SM   C2F 9450   5.861   2.322  16.162 -0.0411 -0.1249 -0.2073
   7223SM   H2F 9451   5.912   2.224  16.158 -0.2998 -0.3080  0.6467
   7223SM   H2G 9452   5.947   2.392  16.166  1.6168 -2.0624 -0.3006
   7223SM   C3F 9453   5.767   2.319  16.038 -0.2198  0.0418 -0.1758
   7223SM   H3F 9454   5.717   2.417  16.019 -2.6886 -1.2711 -0.8973
   7223SM   H3G 9455   5.688   2.241  16.049 -2.7355  1.8265 -3.6374
   7223SM   C4F 9456   5.843   2.281  15.908 -0.6078  0.0255  0.0141
   7223SM   H4F 9457   5.908   2.196  15.935  0.7158  0.8523 -0.4958
   7223SM   H4G 9458   5.910   2.370  15.900 -0.8878  0.2746  0.3667
   7223SM   C5F 9459   5.755   2.254  15.786  0.4688  0.1662 -0.4385
   7223SM   H5F 9460   5.681   2.336  15.782 -0.5272 -0.6180  0.8945
   7223SM   H5G 9461   5.702   2.158  15.802 -0.5038  0.6297 -0.8329
   7223SM   C6F 9462   5.838   2.244  15.664  0.0172  0.0482  0.2510
   7223SM   H6F 9463   5.915   2.165  15.657 -1.1017 -0.9639 -1.8455
   7223SM   H6G 9464   5.889   2.343  15.656 -0.6987  0.4385  0.3843
   7223SM   C7F 9465   5.752   2.235  15.537 -0.0910  0.0595  0.3431
   7223SM   H7F 9466   5.700   2.332  15.539 -2.3819 -1.0786  3.1768
   7223SM   H7G 9467   5.675   2.158  15.560 -0.0436 -0.5580 -1.4015
   7223SM   C8F 9468   5.829   2.208  15.407 -0.1221  0.2205  0.9626
   7223SM   H8F 9469   5.886   2.113  15.414 -0.7015 -0.2719 -0.5494
   7223SM   H8G 9470   5.900   2.293  15.405 -0.2384  0.3176 -0.5886
   7223SM   C9F 9471   5.741   2.193  15.278  0.0134 -0.3846  0.2186
   7223SM   H9F 9472   5.687   2.289  15.272  1.7449  1.0297  4.0200
   7223SM   H9G 9473   5.672   2.109  15.301 -0.4474  0.0511  0.4261
   7223SM  C10F 9474   5.816   2.174  15.150  0.1430  0.7457 -0.3827
   7223SM  H10F 9475   5.889   2.091  15.157  0.2463  0.7241 -1.5404
   7223SM  H10G 9476   5.871   2.266  15.123  2.7191 -0.9024 -1.0984
   7223SM  C11F 9477   5.721   2.147  15.032 -0.6177  0.2061 -0.5121
   7223SM  H11F 9478   5.620   2.193  15.037 -1.2630 -1.2446  0.7970
   7223SM  H11G 9479   5.691   2.040  15.036 -3.3280  0.9276  1.9280
   7223SM  C12F 9480   5.790   2.161  14.899 -0.2025 -0.2292  0.2791
   7223SM  H12F 9481   5.876   2.090  14.890 -0.9077 -0.8906 -1.8680
   7223SM  H12G 9482   5.825   2.262  14.871  0.4634 -0.3538  0.6514
   7223SM  C13F 9483   5.701   2.118  14.776  0.2381 -0.4051  0.5292
   7223SM  H13F 9484   5.600   2.163  14.777  0.3256 -0.0789 -1.4801
   7223SM  H13G 9485   5.701   2.008  14.787  2.6639 -0.5026  0.0819
   7223SM  C14F 9486   5.777   2.162  14.641  0.8417  0.3979  0.2788
   7223SM  H14F 9487   5.876   2.113  14.648 -0.6657 -2.6124  3.4809
   7223SM  H14G 9488   5.781   2.273  14.644 -0.9400  0.4747  1.1829
   7223SM  C15F 9489   5.704   2.112  14.519  0.4400  0.2707 -0.3136
   7223SM  H15F 9490   5.632   2.191  14.487  0.0852  0.0004 -0.1826
   7223SM  H15G 9491   5.644   2.020  14.535 -1.7920  1.3088 -2.0413
   7223SM  C16F 9492   5.804   2.097  14.407  0.4981  0.3537  0.1732
   7223SM  H16F 9493   5.889   2.038  14.448 -0.2026  0.1290  1.3445
   7223SM  H16G 9494   5.840   2.197  14.377 -1.1442  1.6702  2.3559
   7223SM  C17F 9495   5.749   2.027  14.282 -0.6788  0.0704 -0.7670
   7223SM  H17F 9496   5.714   2.100  14.206  0.0312 -0.2499 -1.4233
   7223SM  H17G 9497   5.665   1.960  14.309 -1.2118  1.6216  1.7626
   7223SM  C18F 9498   5.864   1.953  14.207 -0.6548 -0.2396  0.4195
   7223SM  H18F 9499   5.826   1.918  14.108 -0.0744  0.5543 -0.1033
   7223SM  H18G 9500   5.912   1.865  14.255  3.4552  1.1300 -0.7874
   7223SM  C19F 9501   5.985   2.050  14.181 -0.4834 -0.2343  0.3729
   7223SM  H19F 9502   6.053   2.033  14.267 -0.1068 -1.1057 -0.0853
   7223SM  H19G 9503   5.955   2.157  14.188  0.4681 -0.0524  1.9014
   7223SM  C20F 9504   6.063   2.006  14.049 -0.1625  0.4680 -1.2063
   7223SM  H20F 9505   6.147   2.078  14.045 -0.1659  0.7865  1.9726
   7223SM  H20G 9506   6.005   2.012  13.954  0.7898 -1.6589 -1.9813
   7223SM  C21F 9507   6.133   1.866  14.062 -0.0672  1.2801 -0.1694
   7223SM  H21F 9508   6.187   1.849  13.967 -0.4109 -0.3038 -0.1152
   7223SM  H21G 9509   6.056   1.786  14.064  0.7454  0.3527 -2.5483
   7223SM  C22F 9510   6.221   1.853  14.183  0.3075 -0.0790 -0.2097
   7223SM  H22F 9511   6.153   1.847  14.270 -0.2023 -0.2462 -0.6132
   7223SM  H22G 9512   6.283   1.944  14.196 -0.9377  0.9810 -1.4502
   7223SM  C23F 9513   6.308   1.722  14.192 -0.6607 -0.2084  0.7596
   7223SM  H23F 9514   6.244   1.632  14.197  0.2929 -0.9702 -0.2688
   7223SM  H23G 9515   6.369   1.724  14.285  0.9558 -0.5781 -0.2526
   7223SM  H23H 9516   6.382   1.716  14.109 -0.8038 -1.3125  0.6962
   7323SM     N 9517   4.534   6.351  17.569  0.1556 -0.2768  0.2385
   7323SM   C15 9518   4.672   6.310  17.616  0.4838  0.5417 -0.0810
   7323SM  H15A 9519   4.752   6.375  17.582  0.2952  0.3581 -0.8907
   7323SM  H15B 9520   4.688   6.203  17.613 -0.4766  0.3999 -0.5457
   7323SM  H15C 9521   4.671   6.323  17.723  2.8082 -0.2375  0.1057
   7323SM   C14 9522   4.432   6.257  17.617  0.5554  0.7589  0.3086
   7323SM  H14A 9523   4.421   6.255  17.724  1.7455  1.0188  0.4506
   7323SM  H14B 9524   4.459   6.156  17.589  1.8659  1.4578 -1.0982
   7323SM  H14C 9525   4.333   6.287  17.586 -0.0454  1.1305  2.4586
   7323SM   C13 9526   4.497   6.496  17.599 -0.0306 -0.2110 -0.5099
   7323SM  H13A 9527   4.491   6.514  17.705 -0.7627 -1.4331 -0.3148
   7323SM  H13B 9528   4.406   6.519  17.546 -1.1772 -1.4257  0.8380
   7323SM  H13C 9529   4.575   6.556  17.556 -0.7433  1.2142  0.1271
   7323SM   C12 9530   4.545   6.341  17.418 -0.2064  0.4176  0.0372
   7323SM  H12A 9531   4.565   6.237  17.397 -3.9438 -0.3228 -0.5588
   7323SM  H12B 9532   4.630   6.394  17.377  0.0551 -0.1424 -0.1628
   7323SM   C11 9533   4.431   6.385  17.331  0.3103 -0.4937  0.4674
   7323SM  H11A 9534   4.336   6.342  17.371 -0.1796  0.5041  0.4334
   7323SM  H11B 9535   4.444   6.346  17.228 -0.4965  0.7295 -0.1244
   7323SM     P 9536   4.517   6.623  17.234  0.0427  0.2063  0.0693
   7323SM   O13 9537   4.458   6.761  17.232 -0.1034 -0.0567 -0.6368
   7323SM   O14 9538   4.654   6.619  17.290 -0.0421 -0.3937  0.1342
   7323SM   O11 9539   4.514   6.546  17.095  0.7038 -0.7862 -0.1292
   7323SM   O12 9540   4.425   6.529  17.329  0.1676  0.1076  0.1841
   7323SM   C1S 9541   4.383   6.548  17.025  0.7474  0.7960  0.6329
   7323SM   H1S 9542   4.329   6.645  17.028  1.2674  1.2026 -1.5422
   7323SM   H1T 9543   4.321   6.463  17.061  3.4644 -1.2797  0.7427
   7323SM    NF 9544   4.273   6.493  16.805 -0.1968  0.0440 -0.7457
   7323SM   HNF 9545   4.251   6.400  16.779 -1.9052 -0.3050  1.6312
   7323SM   C2S 9546   4.401   6.520  16.867 -0.0830 -0.5546 -0.3720
   7323SM   H2S 9547   4.441   6.610  16.816 -1.1005 -0.2567 -0.6441
   7323SM   C3S 9548   4.506   6.406  16.841 -0.4790 -0.0210  0.5750
   7323SM   H3S 9549   4.467   6.319  16.899  0.6933 -1.7424 -1.0765
   7323SM    O3 9550   4.641   6.444  16.877  0.0643  0.2746  0.2279
   7323SM   HO3 9551   4.635   6.521  16.934  0.5345  0.8825 -0.5217
   7323SM   C4S 9552   4.512   6.381  16.692 -0.1927 -0.0680 -0.1376
   7323SM   H4S 9553   4.546   6.466  16.630  0.4567 -0.0076  0.2870
   7323SM   C5S 9554   4.480   6.272  16.633  0.3135 -0.1478  0.5881
   7323SM   H5S 9555   4.444   6.188  16.695  1.4898 -1.0311  0.1112
   7323SM   C6S 9556   4.484   6.248  16.482 -0.2855  0.3004 -0.0044
   7323SM   H6S 9557   4.507   6.141  16.466 -0.5198  0.1438  0.7027
   7323SM   H6T 9558   4.579   6.297  16.448  0.3832  1.1595  2.8589
   7323SM   C7S 9559   4.368   6.284  16.395  0.1677  0.7380 -0.5512
   7323SM   H7S 9560   4.348   6.393  16.383  0.9168  0.7630 -1.6774
   7323SM   H7T 9561   4.281   6.263  16.460  1.2923 -0.2030  0.7171
   7323SM   C8S 9562   4.357   6.202  16.266  0.0851  0.6808  0.2383
   7323SM   H8S 9563   4.257   6.226  16.225 -0.6739  0.5133  1.9204
   7323SM   H8T 9564   4.357   6.092  16.280 -0.1389  0.6918  0.3233
   7323SM   C9S 9565   4.447   6.247  16.151 -0.3511  0.1033 -0.3776
   7323SM   H9S 9566   4.519   6.164  16.134  0.6518  1.1056 -1.1654
   7323SM   H9T 9567   4.494   6.345  16.174 -0.6196  0.0569  0.3928
   7323SM  C10S 9568   4.370   6.258  16.016  0.6445 -0.5984 -0.4217
   7323SM  H10S 9569   4.290   6.334  16.032 -0.5229 -1.2556 -2.6257
   7323SM  H10T 9570   4.314   6.166  15.991  1.8817 -1.3480 -0.5051
   7323SM  C11S 9571   4.459   6.306  15.899  0.2844 -0.1483  0.5041
   7323SM  H11S 9572   4.544   6.246  15.861 -0.0273  0.4668 -1.2586
   7323SM  H11T 9573   4.510   6.399  15.934  0.7926  1.0909 -3.1097
   7323SM  C12S 9574   4.367   6.333  15.772  0.1991 -0.3342 -0.1414
   7323SM  H12S 9575   4.281   6.400  15.796 -2.2591 -2.8581 -1.3720
   7323SM  H12T 9576   4.327   6.231  15.757 -0.4192 -0.1966  0.5051
   7323SM  C13S 9577   4.434   6.395  15.648 -0.2057  0.6499  1.1810
   7323SM  H13S 9578   4.527   6.338  15.626 -0.2750  0.9414  0.1146
   7323SM  H13T 9579   4.479   6.492  15.677  0.9563 -0.3900  3.0918
   7323SM  C14S 9580   4.357   6.392  15.518  0.5008  0.4420  0.4257
   7323SM  H14S 9581   4.249   6.420  15.527  0.0641 -1.4895  1.9277
   7323SM  H14T 9582   4.357   6.289  15.477 -1.5585  0.5207  0.1023
   7323SM  C15S 9583   4.423   6.474  15.403 -0.2627  0.4803  0.3608
   7323SM  H15S 9584   4.525   6.431  15.401 -0.5739 -0.3258  1.0765
   7323SM  H15T 9585   4.437   6.581  15.428  4.0831  0.1879 -0.0318
   7323SM  C16S 9586   4.353   6.457  15.262  0.2344  0.2796 -0.5140
   7323SM  H16S 9587   4.341   6.560  15.222  0.4806  0.5505  0.0878
   7323SM  H16T 9588   4.252   6.414  15.280  0.6969 -1.2475 -1.4090
   7323SM  C17S 9589   4.428   6.353  15.175  0.3435  0.1956  0.5249
   7323SM  H17S 9590   4.377   6.340  15.077  0.8770  1.6458  0.0280
   7323SM  H17T 9591   4.419   6.255  15.226  6.6296 -0.6029  0.8411
   7323SM  C18S 9592   4.572   6.375  15.157  0.0724 -0.1556 -0.3842
   7323SM  H18S 9593   4.622   6.353  15.254 -2.3558  0.1360  1.0144
   7323SM  H18T 9594   4.597   6.477  15.121  2.0375 -0.1803  0.7758
   7323SM  H18U 9595   4.605   6.302  15.080 -0.2886 -0.1464 -0.5495
   7323SM   C1F 9596   4.181   6.586  16.781 -0.0885 -0.2509 -0.7773
   7323SM    OF 9597   4.199   6.699  16.820  0.3411 -0.3741  0.2384
   7323SM   C2F 9598   4.059   6.537  16.715  0.1374  0.1821  0.7454
   7323SM   H2F 9599   3.996   6.625  16.691 -1.4382 -0.7090  1.4547
   7323SM   H2G 9600   4.006   6.469  16.786  1.4219 -0.3365  1.2486
   7323SM   C3F 9601   4.097   6.476  16.575  0.2741 -0.2869 -0.2509
   7323SM   H3F 9602   4.187   6.411  16.571  1.1491  0.8827 -0.2775
   7323SM   H3G 9603   4.118   6.555  16.501 -1.8785  1.2395  0.6630
   7323SM   C4F 9604   3.978   6.403  16.523 -0.5778  0.2417 -0.0132
   7323SM   H4F 9605   3.888   6.467  16.528  0.2485  2.1697 -4.5800
   7323SM   H4G 9606   3.956   6.312  16.583 -0.2312  1.1311  1.5122
   7323SM   C5F 9607   3.988   6.364  16.371 -0.3909 -0.2934 -0.7124
   7323SM   H5F 9608   3.895   6.309  16.344 -1.1205  0.6589 -0.1835
   7323SM   H5G 9609   4.076   6.298  16.352  0.6827  0.8551  0.1142
   7323SM   C6F 9610   4.002   6.484  16.275  0.7691 -0.0369  0.3808
   7323SM   H6F 9611   4.101   6.532  16.286  1.5109 -1.1624 -0.9909
   7323SM   H6G 9612   3.923   6.557  16.304 -2.7028 -3.1856 -0.3131
   7323SM   C7F 9613   3.987   6.430  16.128  0.5064  0.9373  0.1194
   7323SM   H7F 9614   3.881   6.397  16.119  1.1379 -1.0601 -0.4708
   7323SM   H7G 9615   4.050   6.340  16.114 -0.9415  0.2129 -2.3490
   7323SM   C8F 9616   4.022   6.527  16.011 -0.3439 -0.1835  0.5711
   7323SM   H8F 9617   4.131   6.535  16.029 -0.0011 -1.4032 -0.7658
   7323SM   H8G 9618   3.965   6.623  16.019 -1.1372 -0.5668 -0.2897
   7323SM   C9F 9619   3.988   6.469  15.873 -0.6166 -0.5124 -0.0931
   7323SM   H9F 9620   3.877   6.460  15.868 -0.7199 -0.7550  1.9561
   7323SM   H9G 9621   4.035   6.370  15.854 -0.0349 -0.0386 -1.2759
   7323SM  C10F 9622   4.038   6.562  15.746 -0.6252  0.1053 -0.2787
   7323SM  H10F 9623   4.148   6.553  15.732 -0.4822  1.5257 -0.1927
   7323SM  H10G 9624   4.024   6.669  15.770  1.8363  0.7923 -1.5102
   7323SM  C11F 9625   3.970   6.527  15.615  0.3010 -0.1484  0.3554
   7323SM  H11F 9626   3.864   6.547  15.640  0.7893 -0.4539  2.9128
   7323SM  H11G 9627   3.984   6.417  15.605  0.3156 -0.3251  2.0649
   7323SM  C12F 9628   4.018   6.595  15.486  0.1070 -0.2097  0.5650
   7323SM  H12F 9629   4.129   6.589  15.482  0.1562 -1.1264  2.3637
   7323SM  H12G 9630   3.984   6.701  15.482 -1.3403 -0.6211  1.3022
   7323SM  C13F 9631   3.959   6.535  15.360 -0.1642 -0.0153  0.1283
   7323SM  H13F 9632   3.849   6.555  15.358  0.3020  3.0389 -1.3916
   7323SM  H13G 9633   3.975   6.427  15.340 -0.4626  0.2796 -1.9932
   7323SM  C14F 9634   4.009   6.595  15.227  0.1875 -0.6043  0.3760
   7323SM  H14F 9635   4.117   6.576  15.209 -0.0331 -0.2262 -1.5606
   7323SM  H14G 9636   3.999   6.705  15.238  1.0408 -0.4179 -0.5150
   7323SM  C15F 9637   3.926   6.546  15.099 -0.5278 -0.1388  0.2617
   7323SM  H15F 9638   3.819   6.572  15.115 -0.2213  1.1266  0.3412
   7323SM  H15G 9639   3.940   6.435  15.100  1.2546  0.0709  0.3783
   7323SM  C16F 9640   3.985   6.611  14.970 -0.0048 -0.0507 -0.4779
   7323SM  H16F 9641   4.096   6.609  14.968 -0.0030 -0.0702 -0.3480
   7323SM  H16G 9642   3.982   6.722  14.975  1.3718 -0.0150  0.1665
   7323SM  C17F 9643   3.942   6.554  14.836 -0.6161  0.3322  0.0927
   7323SM  H17F 9644   3.832   6.537  14.840 -0.6619 -0.0198 -1.8016
   7323SM  H17G 9645   3.988   6.457  14.808 -0.6495 -0.2174  1.8013
   7323SM  C18F 9646   3.976   6.654  14.729 -0.0381  0.2737  0.2983
   7323SM  H18F 9647   4.077   6.697  14.746  0.6236 -1.2970  0.5364
   7323SM  H18G 9648   3.922   6.748  14.754 -2.6521 -1.1345  0.2960
   7323SM  C19F 9649   3.952   6.603  14.591  0.0210 -0.0631  0.5977
   7323SM  H19F 9650   3.846   6.571  14.588 -0.5408  1.7330 -1.7747
   7323SM  H19G 9651   4.005   6.508  14.572 -0.9470 -0.6459  0.7538
   7323SM  C20F 9652   3.984   6.705  14.483 -0.1451  0.3808  0.2892
   7323SM  H20F 9653   4.084   6.751  14.498 -1.4320  3.3466  0.6441
   7323SM  H20G 9654   3.918   6.795  14.493  1.9509  1.8117  2.2933
   7323SM  C21F 9655   3.977   6.645  14.340 -0.2532 -0.8110  0.2650
   7323SM  H21F 9656   4.057   6.571  14.317  0.4197  0.3063 -1.1760
   7323SM  H21G 9657   3.981   6.723  14.261 -3.0759 -2.3360 -1.5548
   7323SM  C22F 9658   3.848   6.563  14.317  0.2663  0.1621 -0.1055
   7323SM  H22F 9659   3.770   6.614  14.377  1.2813 -1.5229  2.8611
   7323SM  H22G 9660   3.851   6.468  14.375  0.1052 -0.6504 -1.3653
   7323SM  C23F 9661   3.802   6.551  14.173  0.2287  0.9210 -0.4578
   7323SM  H23F 9662   3.836   6.639  14.114 -1.7893  2.9041  1.1753
   7323SM  H23G 9663   3.691   6.550  14.178  0.2682  1.4809  2.2298
   7323SM  H23H 9664   3.843   6.455  14.134  0.8474  1.3588 -0.9143
   7423SM     N 9665   0.355   3.419  16.558 -0.3851  0.1955 -0.7797
   7423SM   C15 9666   0.301   3.289  16.615 -0.6723  0.3383  0.2207
   7423SM  H15A 9667   0.383   3.231  16.655 -2.8253 -1.8556  1.7091
   7423SM  H15B 9668   0.248   3.221  16.550  2.2834 -1.6289 -0.3180
   7423SM  H15C 9669   0.236   3.312  16.697 -0.2180 -1.2806  1.0826
   7423SM   C14 9670   0.245   3.498  16.508  0.1523  0.2926  0.7468
   7423SM  H14A 9671   0.278   3.594  16.471  0.8767 -0.1933  0.0948
   7423SM  H14B 9672   0.178   3.516  16.591  1.2634  1.6047  1.4231
   7423SM  H14C 9673   0.202   3.447  16.424  2.0572  0.8511 -0.6499
   7423SM   C13 9674   0.425   3.485  16.667 -0.0451 -1.3098 -0.3242
   7423SM  H13A 9675   0.476   3.570  16.625 -2.3602  1.6043  2.2822
   7423SM  H13B 9676   0.502   3.424  16.712 -2.2655 -2.8840  1.6077
   7423SM  H13C 9677   0.356   3.527  16.739 -1.2507  0.9972 -2.6986
   7423SM   C12 9678   0.455   3.381  16.445 -0.7063 -0.0466 -0.1600
   7423SM  H12A 9679   0.402   3.338  16.362  1.3078 -2.5829 -0.2609
   7423SM  H12B 9680   0.517   3.301  16.484  0.4236  1.3083  0.9228
   7423SM   C11 9681   0.544   3.495  16.384  0.5325 -0.4052 -0.3468
   7423SM  H11A 9682   0.599   3.454  16.297 -1.1695 -2.1551 -0.6830
   7423SM  H11B 9683   0.616   3.519  16.465 -0.4490  0.6155  0.2582
   7423SM     P 9684   0.405   3.641  16.214 -0.1735 -0.0879  0.0535
   7423SM   O13 9685   0.263   3.630  16.239 -0.1411 -0.0971  0.5380
   7423SM   O14 9686   0.449   3.761  16.144  0.1509  0.0367 -0.2671
   7423SM   O11 9687   0.455   3.518  16.135 -0.5433 -0.0880 -0.0279
   7423SM   O12 9688   0.474   3.618  16.357  0.7779  0.1124 -0.1315
   7423SM   C1S 9689   0.372   3.464  16.027 -0.2156 -0.0035  0.9850
   7423SM   H1S 9690   0.264   3.466  16.055  0.1118 -0.2407  2.3115
   7423SM   H1T 9691   0.386   3.355  16.012 -0.5100 -0.2490  2.3976
   7423SM    NF 9692   0.298   3.525  15.795  0.6201 -0.3406  0.7177
   7423SM   HNF 9693   0.297   3.467  15.714 -0.0055  0.4165  0.1704
   7423SM   C2S 9694   0.415   3.526  15.890  0.3777 -0.6775 -0.7347
   7423SM   H2S 9695   0.439   3.630  15.919 -1.9014 -0.2519 -0.1589
   7423SM   C3S 9696   0.543   3.452  15.843  0.0962 -0.4571  0.2945
   7423SM   H3S 9697   0.509   3.348  15.827 -0.2269 -0.5114  1.2210
   7423SM    O3 9698   0.637   3.454  15.945  0.5289 -0.0096  0.2984
   7423SM   HO3 9699   0.603   3.505  16.018  0.9692 -0.7159  1.0144
   7423SM   C4S 9700   0.599   3.504  15.713  0.3958 -0.2625  0.1831
   7423SM   H4S 9701   0.578   3.442  15.625  2.0106 -0.2556 -0.2395
   7423SM   C5S 9702   0.689   3.605  15.700 -0.2072 -0.7391  0.4517
   7423SM   H5S 9703   0.728   3.661  15.786 -0.6305 -0.5045  0.4925
   7423SM   C6S 9704   0.757   3.647  15.570  0.3221  0.1912 -0.2701
   7423SM   H6S 9705   0.863   3.670  15.595 -0.0219  0.9377  0.5485
   7423SM   H6T 9706   0.729   3.750  15.541  0.7610  0.5223  0.4452
   7423SM   C7S 9707   0.745   3.553  15.448  0.2119  0.1151 -0.2478
   7423SM   H7S 9708   0.645   3.506  15.440  0.4760 -0.3735 -0.7157
   7423SM   H7T 9709   0.816   3.471  15.472  1.1525  0.0568 -2.8608
   7423SM   C8S 9710   0.772   3.620  15.315 -1.0222 -0.0069 -0.7416
   7423SM   H8S 9711   0.717   3.716  15.323  0.1500  0.5717  0.9604
   7423SM   H8T 9712   0.731   3.562  15.229 -0.3082 -3.0197  0.8168
   7423SM   C9S 9713   0.918   3.657  15.287  0.2563 -0.0365 -0.3969
   7423SM   H9S 9714   0.985   3.569  15.302  1.7688  0.9171 -1.2262
   7423SM   H9T 9715   0.952   3.729  15.364  0.4889  0.3243 -0.8295
   7423SM  C10S 9716   0.916   3.713  15.144 -0.3496  0.6785 -0.8827
   7423SM  H10S 9717   0.879   3.818  15.145  1.0177  1.2185 -2.4503
   7423SM  H10T 9718   0.838   3.661  15.085  0.6562 -0.9357 -0.8340
   7423SM  C11S 9719   1.051   3.716  15.065  0.1217  0.3021 -0.3860
   7423SM  H11S 9720   1.075   3.608  15.052  0.3482  0.4228 -0.9917
   7423SM  H11T 9721   1.136   3.764  15.118 -0.7117  2.4193 -0.8743
   7423SM  C12S 9722   1.035   3.777  14.930 -0.3407  0.3460  0.4745
   7423SM  H12S 9723   1.005   3.884  14.930 -1.9622 -0.0285 -1.7609
   7423SM  H12T 9724   0.952   3.741  14.866  1.9028 -1.7680 -1.4629
   7423SM  C13S 9725   1.167   3.751  14.850 -0.9499 -0.3123 -0.2454
   7423SM  H13S 9726   1.223   3.669  14.900 -1.2001  1.1235  2.6024
   7423SM  H13T 9727   1.216   3.850  14.863 -0.9512 -0.5125  1.4508
   7423SM  C14S 9728   1.145   3.717  14.702  0.0440  0.7134 -0.1328
   7423SM  H14S 9729   1.063   3.641  14.700 -0.0016  0.5769  3.0154
   7423SM  H14T 9730   1.240   3.675  14.663 -0.5634 -0.3905 -0.4504
   7423SM  C15S 9731   1.113   3.833  14.606  0.0181  0.3129 -0.1475
   7423SM  H15S 9732   1.177   3.921  14.629 -0.7269  0.9873 -0.6075
   7423SM  H15T 9733   1.015   3.875  14.635 -0.1704  1.8533 -2.7411
   7423SM  C16S 9734   1.128   3.797  14.458 -0.3277  1.0326 -0.3193
   7423SM  H16S 9735   1.054   3.720  14.428 -0.4790  0.9191  0.3317
   7423SM  H16T 9736   1.231   3.758  14.443 -0.3402  0.8288  0.1071
   7423SM  C17S 9737   1.133   3.923  14.373 -0.5704 -0.0318  0.0277
   7423SM  H17S 9738   1.206   3.992  14.421 -1.1665  1.3068 -0.9169
   7423SM  H17T 9739   1.035   3.974  14.378 -1.5769 -1.8976 -0.1345
   7423SM  C18S 9740   1.169   3.899  14.222  0.2163 -0.2745 -0.5243
   7423SM  H18S 9741   1.246   3.824  14.196  1.0153  0.4227 -0.2307
   7423SM  H18T 9742   1.171   3.999  14.173  0.6023 -0.8093 -1.6523
   7423SM  H18U 9743   1.069   3.865  14.187 -0.3194  0.2886  0.4091
   7423SM   C1F 9744   0.195   3.600  15.824  0.0975 -0.0433  0.5651
   7423SM    OF 9745   0.198   3.671  15.923  0.1675  0.4021 -0.0856
   7423SM   C2F 9746   0.079   3.587  15.727 -0.9265  0.0274  0.5435
   7423SM   H2F 9747  -0.006   3.652  15.757  0.0186  1.5073  0.0966
   7423SM   H2G 9748   0.027   3.489  15.722 -1.2319  0.2496 -2.9361
   7423SM   C3F 9749   0.114   3.626  15.578  0.2545 -0.0938 -0.5907
   7423SM   H3F 9750   0.198   3.565  15.540  0.0168  0.2410 -1.6789
   7423SM   H3G 9751   0.146   3.733  15.577 -0.7844  0.2566  0.4529
   7423SM   C4F 9752  -0.008   3.606  15.483  0.2483  0.2585  0.7422
   7423SM   H4F 9753  -0.087   3.682  15.498 -1.8347 -1.3541 -1.3971
   7423SM   H4G 9754  -0.073   3.516  15.490 -0.4156  0.5289 -1.3443
   7423SM   C5F 9755   0.023   3.634  15.336  0.4050  0.9600  0.1654
   7423SM   H5F 9756   0.099   3.558  15.308 -1.1214 -0.9364  0.9030
   7423SM   H5G 9757   0.087   3.725  15.330  1.6884  0.0603 -0.0460
   7423SM   C6F 9758  -0.094   3.631  15.235 -0.0522  0.0238 -0.0437
   7423SM   H6F 9759  -0.174   3.697  15.274  1.0114  2.2857 -1.4978
   7423SM   H6G 9760  -0.142   3.530  15.235 -0.9442  0.4362 -0.2543
   7423SM   C7F 9761  -0.056   3.673  15.090 -0.2691 -0.2146 -0.0484
   7423SM   H7F 9762   0.036   3.625  15.050 -0.9663  0.8393 -3.2864
   7423SM   H7G 9763  -0.041   3.782  15.082 -2.6322  0.5036  3.3618
   7423SM   C8F 9764  -0.167   3.630  14.984 -0.2267  0.1386  0.0684
   7423SM   H8F 9765  -0.258   3.691  15.003 -1.9303 -1.5539 -2.0950
   7423SM   H8G 9766  -0.191   3.522  14.989  2.6927 -0.5779  0.9402
   7423SM   C9F 9767  -0.111   3.641  14.837 -0.0354  0.0654 -0.6926
   7423SM   H9F 9768  -0.017   3.588  14.812  0.5032  0.1431  1.0170
   7423SM   H9G 9769  -0.097   3.748  14.814 -0.3800  0.7182  1.8501
   7423SM  C10F 9770  -0.221   3.599  14.739  0.2457 -0.5697 -0.0885
   7423SM  H10F 9771  -0.317   3.626  14.786 -0.1078 -1.2058 -0.4225
   7423SM  H10G 9772  -0.234   3.488  14.743  0.9124 -0.7026 -0.9885
   7423SM  C11F 9773  -0.217   3.645  14.593 -0.8185 -0.4744  0.0925
   7423SM  H11F 9774  -0.127   3.616  14.534 -2.0638 -0.4098 -1.9258
   7423SM  H11G 9775  -0.220   3.756  14.595  1.5060 -0.2923 -2.2397
   7423SM  C12F 9776  -0.343   3.594  14.518  0.1451 -0.1885 -0.0535
   7423SM  H12F 9777  -0.421   3.651  14.572 -0.3659 -0.4653 -0.4916
   7423SM  H12G 9778  -0.369   3.486  14.524  1.5930 -0.8004 -3.0015
   7423SM  C13F 9779  -0.337   3.630  14.364  0.5195  0.5032 -0.1797
   7423SM  H13F 9780  -0.237   3.597  14.331  1.3659  0.0417  2.5498
   7423SM  H13G 9781  -0.343   3.740  14.348  0.4804  0.6356  0.6772
   7423SM  C14F 9782  -0.456   3.576  14.288  0.1957  0.0091 -0.3900
   7423SM  H14F 9783  -0.453   3.623  14.187  0.3280 -0.0323 -0.4052
   7423SM  H14G 9784  -0.549   3.614  14.335 -0.3924  0.7907 -2.0833
   7423SM  C15F 9785  -0.452   3.423  14.266 -0.0517 -0.3851 -0.3200
   7423SM  H15F 9786  -0.491   3.368  14.354  3.7597 -0.8631  1.2330
   7423SM  H15G 9787  -0.346   3.398  14.247  0.7283  0.7444  2.1675
   7423SM  C16F 9788  -0.548   3.389  14.149  0.4377  0.8002  0.1589
   7423SM  H16F 9789  -0.503   3.418  14.052 -1.2177 -0.8078 -1.1654
   7423SM  H16G 9790  -0.633   3.457  14.173  1.8582  1.6636  3.2035
   7423SM  C17F 9791  -0.603   3.246  14.121 -0.0235 -0.4342  0.1677
   7423SM  H17F 9792  -0.645   3.204  14.215  1.1999 -0.8049  0.5640
   7423SM  H17G 9793  -0.532   3.172  14.079 -0.4511  0.3519 -2.0827
   7423SM  C18F 9794  -0.715   3.249  14.011 -0.0421  0.0515 -0.2833
   7423SM  H18F 9795  -0.672   3.258  13.909  0.3201 -0.3052 -0.1650
   7423SM  H18G 9796  -0.767   3.345  14.031 -0.9150 -0.6093  0.6766
   7423SM  C19F 9797  -0.807   3.130  14.011  0.3518  0.2841  1.1170
   7423SM  H19F 9798  -0.750   3.037  14.031 -0.0072 -0.1943 -0.0239
   7423SM  H19G 9799  -0.851   3.114  13.911 -0.0662 -0.7218  1.4520
   7423SM  C20F 9800  -0.921   3.143  14.111  0.1960  0.1975 -0.2230
   7423SM  H20F 9801  -0.987   3.230  14.091 -0.5199 -0.4510 -0.7173
   7423SM  H20G 9802  -0.872   3.148  14.210  1.1287 -1.2689 -0.5845
   7423SM  C21F 9803  -1.013   3.024  14.117  0.9175  0.0567 -0.1357
   7423SM  H21F 9804  -1.081   3.024  14.205 -1.2319  0.0723 -1.7222
   7423SM  H21G 9805  -0.953   2.931  14.125 -0.1569 -0.6156  0.3160
   7423SM  C22F 9806  -1.106   3.006  13.998 -0.2414 -0.1496 -0.3718
   7423SM  H22F 9807  -1.044   3.002  13.905 -0.2681  2.0944 -0.5322
   7423SM  H22G 9808  -1.161   3.102  13.991  0.6875  0.6385  2.0896
   7423SM  C23F 9809  -1.197   2.881  14.014 -0.4050 -0.7140  0.3186
   7423SM  H23F 9810  -1.119   2.804  14.032  2.9555  1.7618 -2.3123
   7423SM  H23G 9811  -1.266   2.872  13.928 -0.5106 -0.4722  0.3792
   7423SM  H23H 9812  -1.256   2.887  14.108 -0.0078 -0.1375  0.5322
   7523SM     N 9813   5.164   5.241  17.285 -0.3204  0.6513  0.2441
   7523SM   C15 9814   5.289   5.180  17.346 -0.2031  0.2401 -0.1085
   7523SM  H15A 9815   5.334   5.105  17.284  0.3478 -1.6693  2.4091
   7523SM  H15B 9816   5.261   5.133  17.439  0.0793  0.9570  0.3505
   7523SM  H15C 9817   5.362   5.257  17.367 -1.4044  1.2842  0.4280
   7523SM   C14 9818   5.061   5.144  17.294  0.1131 -0.5125  0.0422
   7523SM  H14A 9819   4.962   5.187  17.282 -1.3274 -3.4846  0.5249
   7523SM  H14B 9820   5.045   5.096  17.389 -1.0571  0.6856  0.4944
   7523SM  H14C 9821   5.079   5.063  17.226 -0.4134  0.1212 -0.8731
   7523SM   C13 9822   5.137   5.358  17.365  0.6134 -0.3611  0.2588
   7523SM  H13A 9823   5.133   5.329  17.469 -1.6690  0.2227  0.3815
   7523SM  H13B 9824   5.048   5.415  17.342  3.0358  4.0920  0.6834
   7523SM  H13C 9825   5.219   5.426  17.349  0.8382 -0.5560  0.5766
   7523SM   C12 9826   5.201   5.279  17.138  0.7306  0.4552 -0.3868
   7523SM  H12A 9827   5.256   5.372  17.139 -1.4554  1.8147  0.9715
   7523SM  H12B 9828   5.113   5.306  17.081 -0.6314 -1.7128  0.5481
   7523SM   C11 9829   5.282   5.184  17.052  0.4264  0.1912 -0.2490
   7523SM  H11A 9830   5.374   5.160  17.109  1.1297  3.3020  0.0640
   7523SM  H11B 9831   5.328   5.226  16.960  3.2257 -1.4629  0.2801
   7523SM     P 9832   5.087   5.044  16.946  0.3418  0.0007 -0.3417
   7523SM   O13 9833   5.021   4.927  17.006 -0.1897  0.3109 -0.2028
   7523SM   O14 9834   5.011   5.175  16.938  0.0218  0.1351 -0.7058
   7523SM   O11 9835   5.143   4.999  16.807  0.4153 -0.3277 -0.1127
   7523SM   O12 9836   5.224   5.059  17.031 -0.5969  0.6570 -0.5865
   7523SM   C1S 9837   5.171   5.101  16.706  0.1424 -0.3173 -0.3418
   7523SM   H1S 9838   5.280   5.118  16.704 -0.0664  1.0297 -0.9838
   7523SM   H1T 9839   5.126   5.201  16.723  3.7224  2.0941 -3.4097
   7523SM    NF 9840   5.159   5.156  16.458 -0.8805  0.3295 -0.0209
   7523SM   HNF 9841   5.081   5.201  16.415 -1.9127 -0.9502  0.4503
   7523SM   C2S 9842   5.126   5.061  16.557 -0.7357 -0.6471 -0.3608
   7523SM   H2S 9843   5.180   4.966  16.538 -1.4401 -1.3652  1.0091
   7523SM   C3S 9844   4.979   5.014  16.546 -0.1684  0.5340  0.0493
   7523SM   H3S 9845   4.918   5.106  16.556 -1.3271 -0.3711  1.8766
   7523SM    O3 9846   4.929   4.923  16.644 -0.1814  0.2118  0.3367
   7523SM   HO3 9847   5.003   4.934  16.704  0.6965 -0.9719 -0.4802
   7523SM   C4S 9848   4.945   4.958  16.413 -0.3384 -0.2210  0.4393
   7523SM   H4S 9849   4.938   5.043  16.343  1.1721  1.6558  2.4343
   7523SM   C5S 9850   4.943   4.834  16.363  1.3023 -0.1183  0.8070
   7523SM   H5S 9851   4.961   4.753  16.435 -1.8645  0.3666  2.3171
   7523SM   C6S 9852   4.916   4.783  16.224  0.0343  0.1531 -0.0996
   7523SM   H6S 9853   4.841   4.703  16.240  1.0484 -0.7994  0.0193
   7523SM   H6T 9854   5.003   4.736  16.173 -0.0721  0.2818 -0.4018
   7523SM   C7S 9855   4.855   4.888  16.128  0.1447 -0.6459  0.2679
   7523SM   H7S 9856   4.926   4.971  16.108 -0.3178 -0.6939 -1.7871
   7523SM   H7T 9857   4.761   4.926  16.172 -1.5124 -2.9226 -1.0745
   7523SM   C8S 9858   4.836   4.819  15.995  0.3780 -0.0553 -0.4991
   7523SM   H8S 9859   4.777   4.726  16.004 -1.5285  1.3179  4.9015
   7523SM   H8T 9860   4.940   4.790  15.967  0.1134 -0.1125 -1.4700
   7523SM   C9S 9861   4.775   4.918  15.894  0.9881 -0.0421  0.1008
   7523SM   H9S 9862   4.837   5.009  15.885 -1.4634  1.6836 -0.5094
   7523SM   H9T 9863   4.677   4.960  15.924  0.5795 -1.7071  1.2621
   7523SM  C10S 9864   4.760   4.871  15.745 -0.4622  0.0841  0.0976
   7523SM  H10S 9865   4.688   4.786  15.738 -0.0383 -0.5214  2.3500
   7523SM  H10T 9866   4.857   4.830  15.709 -2.1281 -3.3598 -0.9129
   7523SM  C11S 9867   4.713   4.983  15.652 -0.4818  1.2510 -0.3688
   7523SM  H11S 9868   4.781   5.070  15.639  0.2442  0.7520  0.0078
   7523SM  H11T 9869   4.613   5.011  15.691 -1.1303 -3.9278  2.5820
   7523SM  C12S 9870   4.694   4.919  15.514  0.1132  0.4182  0.2044
   7523SM  H12S 9871   4.637   4.990  15.451  1.3624  0.8508 -0.4829
   7523SM  H12T 9872   4.626   4.832  15.514  0.1730  0.2892 -2.5419
   7523SM  C13S 9873   4.824   4.881  15.448 -0.3396  0.2843  0.6509
   7523SM  H13S 9874   4.880   4.806  15.508 -0.7967 -1.3897 -0.9528
   7523SM  H13T 9875   4.885   4.975  15.446 -0.6420  0.5378  2.2835
   7523SM  C14S 9876   4.813   4.836  15.302  0.1656 -0.0359  0.0799
   7523SM  H14S 9877   4.750   4.910  15.250  1.8654  2.4393  1.3537
   7523SM  H14T 9878   4.761   4.737  15.302  0.4899 -0.2074 -0.1435
   7523SM  C15S 9879   4.943   4.828  15.233 -0.2257  0.0856 -0.4758
   7523SM  H15S 9880   5.004   4.749  15.283  0.2964  0.4970 -0.4533
   7523SM  H15T 9881   4.998   4.921  15.257 -0.6555  1.1899 -3.4572
   7523SM  C16S 9882   4.922   4.791  15.089 -0.0619  0.0806 -0.1299
   7523SM  H16S 9883   4.865   4.874  15.043  0.2016  0.1483 -0.3360
   7523SM  H16T 9884   4.872   4.692  15.079 -0.0170 -0.4744  3.5672
   7523SM  C17S 9885   5.059   4.787  15.024  0.1389 -0.2856 -0.0200
   7523SM  H17S 9886   5.128   4.710  15.064  1.4955  0.6722 -0.4249
   7523SM  H17T 9887   5.104   4.884  15.055 -0.9736 -0.5193  2.4830
   7523SM  C18S 9888   5.066   4.768  14.868  0.1877 -0.0609  0.2128
   7523SM  H18S 9889   4.981   4.831  14.834 -0.4376 -1.8090 -1.6829
   7523SM  H18T 9890   5.048   4.660  14.846  1.2527 -0.3452  0.6767
   7523SM  H18U 9891   5.167   4.802  14.835  1.1824  0.1978  3.2823
   7523SM   C1F 9892   5.280   5.193  16.424 -0.1057  0.0115  0.2413
   7523SM    OF 9893   5.380   5.123  16.451 -0.0782 -0.0293 -0.3274
   7523SM   C2F 9894   5.300   5.321  16.345  0.4524 -0.0187 -0.2638
   7523SM   H2F 9895   5.401   5.364  16.364 -1.1154  3.5988  0.6754
   7523SM   H2G 9896   5.232   5.399  16.385  0.8339  0.8164 -1.1919
   7523SM   C3F 9897   5.282   5.315  16.191 -0.3170  0.8303  0.0577
   7523SM   H3F 9898   5.286   5.416  16.145 -1.5090  1.1727  0.6826
   7523SM   H3G 9899   5.178   5.279  16.175  0.3888 -0.9324 -0.8320
   7523SM   C4F 9900   5.369   5.205  16.126  0.0751 -0.7208  0.7974
   7523SM   H4F 9901   5.351   5.111  16.184  0.7904 -0.9513  0.6626
   7523SM   H4G 9902   5.476   5.237  16.125 -0.3387  0.7315 -1.2343
   7523SM   C5F 9903   5.333   5.175  15.981 -0.0048 -0.3180  0.2230
   7523SM   H5F 9904   5.224   5.152  15.974 -0.8311  2.8660  1.0042
   7523SM   H5G 9905   5.396   5.085  15.964 -0.0372 -0.6256  1.6158
   7523SM   C6F 9906   5.383   5.283  15.883  0.9127 -0.2653  0.1687
   7523SM   H6F 9907   5.494   5.284  15.882  1.0078 -3.0368 -0.8672
   7523SM   H6G 9908   5.334   5.376  15.919 -0.8366 -0.6733 -1.0468
   7523SM   C7F 9909   5.323   5.262  15.743 -0.6061  0.0418 -0.2706
   7523SM   H7F 9910   5.214   5.281  15.751 -0.5164  0.6768 -0.5075
   7523SM   H7G 9911   5.328   5.156  15.710 -1.8479 -0.9174  2.3125
   7523SM   C8F 9912   5.407   5.367  15.647  0.2699  0.3958  0.5202
   7523SM   H8F 9913   5.500   5.313  15.620 -0.0956 -0.3422  0.7090
   7523SM   H8G 9914   5.414   5.460  15.707 -0.6564  0.5852  0.3537
   7523SM   C9F 9915   5.334   5.382  15.518  0.0961 -0.1965  1.1033
   7523SM   H9F 9916   5.234   5.430  15.525  0.3870  1.9296 -4.2010
   7523SM   H9G 9917   5.317   5.282  15.474 -1.5763 -0.8679  3.1444
   7523SM  C10F 9918   5.407   5.465  15.406 -0.3971  0.8170 -0.3862
   7523SM  H10F 9919   5.508   5.418  15.405 -0.9571 -0.4496  0.0706
   7523SM  H10G 9920   5.414   5.568  15.447  0.2717  0.2724  0.9277
   7523SM  C11F 9921   5.346   5.460  15.260 -0.1514  0.3402 -0.8629
   7523SM  H11F 9922   5.406   5.534  15.203  3.0201 -0.0702  1.6508
   7523SM  H11G 9923   5.241   5.495  15.272 -0.7540 -2.1210  3.2995
   7523SM  C12F 9924   5.357   5.323  15.203  0.1368  0.0107 -0.3725
   7523SM  H12F 9925   5.286   5.257  15.257 -0.9152  1.9653  0.7204
   7523SM  H12G 9926   5.461   5.283  15.214  0.6373  1.2874 -0.3096
   7523SM  C13F 9927   5.308   5.317  15.058 -0.1234 -0.7829  0.1403
   7523SM  H13F 9928   5.203   5.352  15.054  0.4732  0.9673 -1.4401
   7523SM  H13G 9929   5.314   5.218  15.009 -0.1387  0.3226 -2.2167
   7523SM  C14F 9930   5.383   5.410  14.963 -0.1850 -0.0355 -0.1258
   7523SM  H14F 9931   5.489   5.399  14.992 -0.6489  0.6061  1.9941
   7523SM  H14G 9932   5.356   5.515  14.986  2.7074  0.4065  1.7337
   7523SM  C15F 9933   5.380   5.394  14.809  1.0699  0.2632  0.2285
   7523SM  H15F 9934   5.420   5.293  14.784  1.3377 -0.2386  2.3983
   7523SM  H15G 9935   5.458   5.461  14.767  0.9484 -0.2044 -0.7645
   7523SM  C16F 9936   5.245   5.429  14.744 -0.3790 -0.3797  0.3739
   7523SM  H16F 9937   5.206   5.515  14.802 -0.8772 -1.0276  1.0134
   7523SM  H16G 9938   5.172   5.351  14.773 -1.2302  0.3697  0.2938
   7523SM  C17F 9939   5.256   5.452  14.597  0.0023 -0.4471  0.1128
   7523SM  H17F 9940   5.284   5.351  14.562 -0.5507 -0.1757 -1.2055
   7523SM  H17G 9941   5.334   5.529  14.581 -0.3985  0.1132  0.8053
   7523SM  C18F 9942   5.120   5.499  14.531 -0.3138 -0.5426 -0.1305
   7523SM  H18F 9943   5.100   5.605  14.559  0.9815 -0.4243  0.4050
   7523SM  H18G 9944   5.048   5.426  14.572  2.2657 -2.9745  0.3816
   7523SM  C19F 9945   5.129   5.489  14.371  0.6310  0.3612 -0.3111
   7523SM  H19F 9946   5.221   5.531  14.325 -1.5284  0.1151 -5.6006
   7523SM  H19G 9947   5.045   5.543  14.322  1.1226  0.1769 -1.3892
   7523SM  C20F 9948   5.120   5.342  14.315  0.1332  0.6356 -0.3602
   7523SM  H20F 9949   5.029   5.309  14.369  1.2890  0.3988  1.5575
   7523SM  H20G 9950   5.201   5.270  14.340 -1.8291 -1.3319  0.6867
   7523SM  C21F 9951   5.084   5.338  14.171  0.2392 -0.7012  0.4307
   7523SM  H21F 9952   5.183   5.347  14.121  0.3225 -0.3346  0.6669
   7523SM  H21G 9953   5.017   5.422  14.143  0.4234 -0.5456  0.4590
   7523SM  C22F 9954   5.012   5.207  14.127  0.5611  0.4071 -0.4175
   7523SM  H22F 9955   4.984   5.227  14.021 -0.4622  1.3176  0.0136
   7523SM  H22G 9956   4.918   5.184  14.181  1.8057 -1.5165  1.0845
   7523SM  C23F 9957   5.094   5.078  14.148 -0.0461 -0.2377  0.3095
   7523SM  H23F 9958   5.039   4.986  14.118 -1.4241  1.0320 -1.2053
   7523SM  H23G 9959   5.123   5.073  14.255 -0.1317  6.2097  1.0112
   7523SM  H23H 9960   5.181   5.086  14.080  0.6666  1.9324  1.4107
   7623SM     N 9961   5.875   4.431  17.017 -0.5362 -0.6586  0.3360
   7623SM   C15 9962   5.781   4.359  16.924 -0.3225  0.0635  0.4207
   7623SM  H15A 9963   5.781   4.407  16.827 -0.6745 -1.3311 -0.2923
   7623SM  H15B 9964   5.678   4.358  16.956 -1.0229  1.1403 -1.6464
   7623SM  H15C 9965   5.807   4.257  16.903  2.1342  0.7671 -0.3238
   7623SM   C14 9966   5.825   4.568  17.046  0.4182 -0.0224  0.1113
   7623SM  H14A 9967   5.817   4.623  16.953 -1.1246 -0.4683 -0.0588
   7623SM  H14B 9968   5.894   4.603  17.122  1.9166  3.1655 -2.4747
   7623SM  H14C 9969   5.727   4.570  17.091  0.3549  0.3217 -0.0392
   7623SM   C13 9970   5.879   4.358  17.148 -0.2973 -0.4688  0.1560
   7623SM  H13A 9971   5.901   4.252  17.142 -0.3586 -0.7138  2.8100
   7623SM  H13B 9972   5.779   4.375  17.187  0.6435 -1.0294  3.0369
   7623SM  H13C 9973   5.947   4.410  17.214 -0.2366  1.5464 -1.4216
   7623SM   C12 9974   6.015   4.447  16.946  0.0405  0.6612 -0.2649
   7623SM  H12A 9975   6.054   4.348  16.931 -3.3327 -0.5125 -2.2951
   7623SM  H12B 9976   6.086   4.482  17.020 -0.0370 -0.2650  0.2564
   7623SM   C11 9977   6.027   4.528  16.810  0.0626 -0.5168  1.2252
   7623SM  H11A 9978   5.977   4.475  16.726 -3.7110  0.6937  2.4840
   7623SM  H11B 9979   6.134   4.523  16.780  0.2535  0.0168  1.7853
   7623SM     P 9980   6.073   4.779  16.841 -0.0209 -0.0608  0.4450
   7623SM   O13 9981   5.994   4.899  16.887 -0.1126  0.0562 -0.3437
   7623SM   O14 9982   6.191   4.734  16.920  0.0996 -0.1389 -0.3934
   7623SM   O11 9983   6.117   4.800  16.691 -0.0041  0.0913  0.2629
   7623SM   O12 9984   5.973   4.657  16.825 -0.0490  0.2243  0.8399
   7623SM   C1S 9985   6.043   4.787  16.569  0.7423 -0.2103  0.1054
   7623SM   H1S 9986   5.955   4.854  16.573  0.8510 -0.0409 -0.2582
   7623SM   H1T 9987   5.997   4.686  16.565  0.6425 -0.1799  0.4685
   7623SM    NF 9988   6.025   4.838  16.327 -0.1753 -0.2972  0.3262
   7623SM   HNF 9989   6.008   4.766  16.260 -1.3415  0.2044  0.0484
   7623SM   C2S 9990   6.119   4.824  16.436 -0.2791  0.3765  0.0930
   7623SM   H2S 9991   6.175   4.920  16.444  0.7199 -0.1055 -0.8956
   7623SM   C3S 9992   6.225   4.712  16.401  0.2399  0.1020  0.0043
   7623SM   H3S 9993   6.175   4.614  16.384 -0.6655  0.6679 -0.7224
   7623SM    O3 9994   6.318   4.680  16.503  0.4596  0.2532  0.2292
   7623SM   HO3 9995   6.292   4.738  16.575  0.3094 -0.5074  0.7970
   7623SM   C4S 9996   6.318   4.754  16.283  0.0606  0.2378 -0.0342
   7623SM   H4S 9997   6.372   4.848  16.302 -1.3121  1.0063  0.1331
   7623SM   C5S 9998   6.349   4.685  16.172  0.2857  0.6514 -0.6927
   7623SM   H5S 9999   6.318   4.580  16.158 -1.5556  1.0924 -0.2510
   7623SM   C6S10000   6.450   4.725  16.069  0.9857 -0.1476 -0.3470
   7623SM   H6S10001   6.548   4.684  16.102  0.7426  0.2005  0.8472
   7623SM   H6T10002   6.458   4.836  16.069 -0.8457  0.0153  0.2502
   7623SM   C7S10003   6.420   4.690  15.926 -0.4200  0.3882 -0.0473
   7623SM   H7S10004   6.315   4.719  15.905 -1.0337 -2.1203 -0.7404
   7623SM   H7T10005   6.445   4.582  15.914  1.1067  0.8229 -1.0428
   7623SM   C8S10006   6.510   4.762  15.825 -0.1838 -0.5274  0.1655
   7623SM   H8S10007   6.612   4.775  15.866  0.3737  2.1941 -1.7777
   7623SM   H8T10008   6.483   4.864  15.791  0.0385 -0.6553 -0.4111
   7623SM   C9S10009   6.519   4.678  15.695  0.3934  0.1349  0.3367
   7623SM   H9S10010   6.420   4.640  15.662  0.2480  1.2648 -0.5814
   7623SM   H9T10011   6.586   4.592  15.718  0.6333 -0.0863 -1.1231
   7623SM  C10S10012   6.579   4.761  15.584  0.1715 -0.0953 -0.3355
   7623SM  H10S10013   6.689   4.752  15.580  0.3200  1.6576 -1.2160
   7623SM  H10T10014   6.558   4.868  15.604  1.3177 -0.0918  0.9881
   7623SM  C11S10015   6.514   4.722  15.451 -0.3579  0.3585  0.0283
   7623SM  H11S10016   6.410   4.761  15.454  0.5950  3.0595  0.7495
   7623SM  H11T10017   6.516   4.611  15.444 -1.2625  0.1790  1.9014
   7623SM  C12S10018   6.587   4.768  15.327 -0.1541 -1.0212  0.5080
   7623SM  H12S10019   6.683   4.714  15.311  0.4718  0.1528  0.1259
   7623SM  H12T10020   6.617   4.875  15.336 -0.5527 -1.0062  1.8006
   7623SM  C13S10021   6.501   4.758  15.203  0.5432 -0.1365 -0.4303
   7623SM  H13S10022   6.400   4.802  15.217 -0.2038 -1.1830 -2.2780
   7623SM  H13T10023   6.484   4.648  15.197 -0.2413  0.0591 -2.2760
   7623SM  C14S10024   6.561   4.828  15.083 -0.4900  0.2817 -0.1689
   7623SM  H14S10025   6.649   4.765  15.057 -1.3508 -0.8915 -0.3007
   7623SM  H14T10026   6.592   4.932  15.107 -0.1169  0.3533 -0.9368
   7623SM  C15S10027   6.465   4.828  14.962  0.7225  0.2909 -0.2273
   7623SM  H15S10028   6.523   4.878  14.881  2.0262  0.3335  0.7053
   7623SM  H15T10029   6.372   4.885  14.984 -0.7941 -0.8030 -3.2702
   7623SM  C16S10030   6.427   4.686  14.925  0.6958  0.1382  0.2482
   7623SM  H16S10031   6.320   4.664  14.947  0.5179 -0.7313 -1.3292
   7623SM  H16T10032   6.502   4.619  14.973  0.6425  1.3370  2.1103
   7623SM  C17S10033   6.443   4.665  14.775  0.6188  0.5714  0.9092
   7623SM  H17S10034   6.551   4.671  14.749  0.3381 -1.9914 -1.2082
   7623SM  H17T10035   6.396   4.746  14.715  1.3673  0.7176  0.5100
   7623SM  C18S10036   6.394   4.530  14.736  0.1598  0.8536  0.7998
   7623SM  H18S10037   6.290   4.502  14.765  0.5693 -0.2825  1.2227
   7623SM  H18T10038   6.475   4.460  14.765  2.5566  3.2308  0.2753
   7623SM  H18U10039   6.393   4.525  14.625  2.2372  1.1645  0.7269
   7623SM   C1F10040   5.936   4.939  16.322 -0.4201 -0.8882 -0.6835
   7623SM    OF10041   5.953   5.035  16.396  0.1311 -0.2981 -0.3690
   7623SM   C2F10042   5.826   4.926  16.230 -0.3939  0.2893 -0.0533
   7623SM   H2F10043   5.741   4.983  16.275 -0.2820 -1.3102  2.4052
   7623SM   H2G10044   5.803   4.818  16.233 -2.6384  0.7022 -0.1369
   7623SM   C3F10045   5.855   4.983  16.087 -0.5828 -0.6444  0.0249
   7623SM   H3F10046   5.937   4.924  16.040 -0.7372  0.4301 -1.7138
   7623SM   H3G10047   5.885   5.088  16.105 -1.0344 -0.3216 -1.0350
   7623SM   C4F10048   5.733   4.969  15.994 -0.1475  0.5805  0.4019
   7623SM   H4F10049   5.644   5.023  16.034 -0.9979  0.1119 -0.8015
   7623SM   H4G10050   5.706   4.862  15.988  3.0593 -0.4127  1.2953
   7623SM   C5F10051   5.768   5.003  15.846  0.2226 -0.2504  0.1567
   7623SM   H5F10052   5.862   4.955  15.813  0.0016 -0.3966 -0.2682
   7623SM   H5G10053   5.804   5.108  15.841  0.8030 -0.4500  0.0741
   7623SM   C6F10054   5.651   4.969  15.749  0.3649  0.0508  0.0159
   7623SM   H6F10055   5.587   5.060  15.740  2.1062  1.1817 -1.6843
   7623SM   H6G10056   5.591   4.883  15.786 -0.1794 -0.5012 -2.0507
   7623SM   C7F10057   5.696   4.929  15.611  0.3158 -0.1531  0.7312
   7623SM   H7F10058   5.606   4.920  15.546  0.7850 -1.7260  0.2522
   7623SM   H7G10059   5.749   4.832  15.620 -0.0905 -0.3963  0.5593
   7623SM   C8F10060   5.787   5.021  15.539  0.4811  0.8092 -0.4534
   7623SM   H8F10061   5.871   5.048  15.606 -0.6431  0.7099  1.0407
   7623SM   H8G10062   5.743   5.123  15.539 -0.5241  0.4350  1.6925
   7623SM   C9F10063   5.840   4.971  15.410  0.5247  0.5819  0.0933
   7623SM   H9F10064   5.891   4.875  15.433  1.4056  1.3015  1.2708
   7623SM   H9G10065   5.915   5.031  15.354 -0.4176  0.1533 -1.7094
   7623SM  C10F10066   5.726   4.935  15.311  0.4154  0.0294  0.0914
   7623SM  H10F10067   5.656   5.020  15.302 -0.5717 -0.8737 -1.1218
   7623SM  H10G10068   5.668   4.851  15.354 -0.3565 -0.6386 -2.1014
   7623SM  C11F10069   5.792   4.889  15.170 -0.0514 -0.4858 -0.7426
   7623SM  H11F10070   5.841   4.981  15.132  0.0963  0.7259  2.1225
   7623SM  H11G10071   5.705   4.867  15.104 -3.4332  2.5677  2.2156
   7623SM  C12F10072   5.879   4.772  15.174  0.0677 -0.3328 -0.4734
   7623SM  H12F10073   5.837   4.685  15.229  1.3511  0.0815  1.2721
   7623SM  H12G10074   5.967   4.797  15.237 -0.8444 -1.8657  1.5332
   7623SM  C13F10075   5.919   4.723  15.031  0.0327 -0.4756 -0.0830
   7623SM  H13F10076   5.823   4.694  14.981 -0.5429  0.9672  0.1439
   7623SM  H13G10077   5.993   4.641  15.046  1.0567  0.0728 -1.8359
   7623SM  C14F10078   6.000   4.824  14.952 -0.2674 -0.0934  0.0760
   7623SM  H14F10079   6.089   4.852  15.013 -0.8576 -2.1953  2.0610
   7623SM  H14G10080   5.947   4.918  14.927 -0.1709  0.1426  0.7364
   7623SM  C15F10081   6.055   4.755  14.828 -0.2479 -0.3720  0.3343
   7623SM  H15F10082   6.087   4.652  14.854 -1.5602 -1.8798 -3.3636
   7623SM  H15G10083   6.147   4.812  14.803  0.7000 -0.9097  2.3642
   7623SM  C16F10084   5.954   4.739  14.709  0.9228  0.0730  0.2915
   7623SM  H16F10085   5.896   4.828  14.677 -2.1966 -1.2377  1.9230
   7623SM  H16G10086   5.887   4.659  14.745  3.1047 -2.0465 -0.1078
   7623SM  C17F10087   6.030   4.691  14.583 -0.6243  0.7340 -0.2830
   7623SM  H17F10088   6.080   4.593  14.601  0.2842  1.1694 -0.3611
   7623SM  H17G10089   6.115   4.759  14.562 -0.6755  0.3572 -1.8214
   7623SM  C18F10090   5.941   4.683  14.462  0.3493 -0.1766 -0.0056
   7623SM  H18F10091   5.898   4.783  14.445  0.1262 -0.2838 -0.0759
   7623SM  H18G10092   5.861   4.612  14.492 -2.0963  2.3645 -0.1382
   7623SM  C19F10093   6.013   4.614  14.344  0.4780  0.1296 -0.3100
   7623SM  H19F10094   6.073   4.524  14.367  1.6812  0.8297 -0.6365
   7623SM  H19G10095   6.075   4.695  14.301  1.6596 -0.6819 -0.1680
   7623SM  C20F10096   5.915   4.563  14.242  0.2786 -0.5604 -0.7363
   7623SM  H20F10097   5.864   4.659  14.217  1.1333  0.6744  1.8832
   7623SM  H20G10098   5.835   4.505  14.292 -0.8227  0.2806 -1.4871
   7623SM  C21F10099   5.973   4.479  14.124 -0.4488 -0.1678  0.1780
   7623SM  H21F10100   6.013   4.382  14.159  1.8404  0.3446 -0.8436
   7623SM  H21G10101   6.057   4.538  14.081 -2.2935  1.6466 -1.1737
   7623SM  C22F10102   5.869   4.456  14.017 -0.1641 -0.4515  0.1459
   7623SM  H22F10103   5.832   4.558  13.990  0.1518 -0.0810  1.0688
   7623SM  H22G10104   5.786   4.399  14.063 -0.8923  1.3082  1.1122
   7623SM  C23F10105   5.912   4.375  13.895  0.0873 -0.1683 -0.2700
   7623SM  H23F10106   6.002   4.415  13.843  0.3181  1.3008  1.1783
   7623SM  H23G10107   5.827   4.365  13.824 -0.5555 -0.4169  0.5223
   7623SM  H23H10108   5.939   4.270  13.923 -3.7474 -2.2704 -3.4369
   7723SM     N10109   6.139   0.701  17.362 -0.3198 -0.1929 -0.1340
   7723SM   C1510110   6.093   0.564  17.317 -0.3198 -0.3606  0.0818
   7723SM  H15A10111   6.169   0.501  17.272 -0.2277  0.1231 -0.4515
   7723SM  H15B10112   6.020   0.581  17.239  0.0027  1.5427  0.1419
   7723SM  H15C10113   6.057   0.513  17.404  4.6485 -0.7391  2.2532
   7723SM   C1410114   6.021   0.775  17.407 -0.0891  0.0330 -0.1584
   7723SM  H14A10115   5.963   0.720  17.479 -1.1330  0.5232 -0.5997
   7723SM  H14B10116   5.960   0.799  17.321  1.1545  0.0762 -1.0515
   7723SM  H14C10117   6.041   0.870  17.453  1.2715 -1.0197  1.5246
   7723SM   C1310118   6.235   0.686  17.476 -0.0982  0.3498  0.8137
   7723SM  H13A10119   6.303   0.605  17.454 -2.1287 -1.3250  0.3783
   7723SM  H13B10120   6.186   0.670  17.571 -1.7952 -1.5894 -0.2982
   7723SM  H13C10121   6.290   0.778  17.481 -0.4368  0.7610 -1.6213
   7723SM   C1210122   6.198   0.784  17.251 -0.1286 -0.1497  0.8161
   7723SM  H12A10123   6.222   0.881  17.292  0.9410  0.1025 -0.3664
   7723SM  H12B10124   6.122   0.799  17.175  0.7189 -0.6242 -0.1481
   7723SM   C1110125   6.325   0.740  17.180 -0.2639 -0.3110  0.6180
   7723SM  H11A10126   6.335   0.814  17.098  2.1769 -0.2951  0.8496
   7723SM  H11B10127   6.305   0.637  17.144  1.8209 -0.2542 -0.8968
   7723SM     P10128   6.560   0.645  17.254  0.0425 -0.0538  0.3585
   7723SM   O1310129   6.683   0.701  17.313 -0.1623  0.8760 -0.6098
   7723SM   O1410130   6.521   0.515  17.316 -0.0502  0.6920  0.3363
   7723SM   O1110131   6.573   0.628  17.097  0.3607 -0.3451  0.3982
   7723SM   O1210132   6.446   0.753  17.263 -0.1840 -0.5089 -0.1730
   7723SM   C1S10133   6.613   0.741  17.021 -0.2264 -0.5802  0.2315
   7723SM   H1S10134   6.724   0.746  17.025 -0.2499 -0.0657  0.3700
   7723SM   H1T10135   6.571   0.838  17.057 -0.5421 -0.8234  0.5158
   7723SM    NF10136   6.644   0.819  16.781  0.2016  0.0720  0.0949
   7723SM   HNF10137   6.585   0.879  16.727 -0.0133  0.4695  0.7567
   7723SM   C2S10138   6.579   0.725  16.867  0.2245  0.2227 -0.3655
   7723SM   H2S10139   6.613   0.624  16.837 -0.1837 -0.6082  1.7571
   7723SM   C3S10140   6.425   0.711  16.844  0.2962  0.4818 -1.1035
   7723SM   H3S10141   6.373   0.806  16.870 -3.1149 -1.6263  0.6114
   7723SM    O310142   6.375   0.596  16.918  0.2962 -0.8451 -0.1110
   7723SM   HO310143   6.450   0.573  16.975  0.6467  2.3305  0.8977
   7723SM   C4S10144   6.398   0.682  16.700  0.8570  0.9497 -0.3762
   7723SM   H4S10145   6.432   0.580  16.675  0.9520  1.2030 -1.3195
   7723SM   C5S10146   6.352   0.759  16.599 -0.0341  0.6065 -0.1522
   7723SM   H5S10147   6.342   0.868  16.616  0.2924  0.6662 -0.3325
   7723SM   C6S10148   6.326   0.717  16.458 -0.0754  0.4020  0.5455
   7723SM   H6S10149   6.225   0.744  16.421 -0.0296  2.5862  1.8726
   7723SM   H6T10150   6.337   0.608  16.441  2.7195  0.6153  0.5427
   7723SM   C7S10151   6.437   0.778  16.367 -0.3260  0.4449  0.1575
   7723SM   H7S10152   6.539   0.764  16.410 -0.6785 -0.1533  0.8329
   7723SM   H7T10153   6.421   0.888  16.365 -3.6778  0.0659 -0.8900
   7723SM   C8S10154   6.435   0.723  16.223  0.5502  0.3891 -0.2917
   7723SM   H8S10155   6.414   0.615  16.235  2.2652  0.0106 -0.3578
   7723SM   H8T10156   6.542   0.727  16.190  1.1186  0.0432  1.4253
   7723SM   C9S10157   6.356   0.786  16.114 -0.6210 -0.2810 -0.1817
   7723SM   H9S10158   6.348   0.897  16.105  0.3729 -0.3358 -2.2252
   7723SM   H9T10159   6.253   0.750  16.134 -0.3981 -0.2312  1.1532
   7723SM  C10S10160   6.403   0.735  15.975  0.1318  0.0870 -0.3164
   7723SM  H10S10161   6.389   0.625  15.966 -0.6002  0.0280  1.2450
   7723SM  H10T10162   6.506   0.772  15.953 -0.0343  0.5635 -0.2990
   7723SM  C11S10163   6.326   0.798  15.857  0.1929 -0.6523 -0.1177
   7723SM  H11S10164   6.340   0.908  15.850  0.9792 -0.7138  0.3573
   7723SM  H11T10165   6.218   0.776  15.874 -0.5251  0.3887 -2.8997
   7723SM  C12S10166   6.377   0.744  15.719  0.3712  0.0011  0.3312
   7723SM  H12S10167   6.348   0.637  15.720  0.5691 -0.0532  0.9044
   7723SM  H12T10168   6.487   0.747  15.707  0.5103  0.5938  1.5719
   7723SM  C13S10169   6.300   0.810  15.600  0.2557 -0.3074  0.0894
   7723SM  H13S10170   6.308   0.921  15.594  0.6216 -0.3135  0.4164
   7723SM  H13T10171   6.194   0.796  15.631 -0.0480 -0.5736 -1.0099
   7723SM  C14S10172   6.327   0.750  15.460  0.3638  0.4773  0.4639
   7723SM  H14S10173   6.293   0.645  15.446  1.3615  0.2167 -0.0799
   7723SM  H14T10174   6.436   0.761  15.443  0.4003 -0.7025 -0.1360
   7723SM  C15S10175   6.252   0.839  15.356  0.8124  0.3424  0.7264
   7723SM  H15S10176   6.318   0.925  15.331  0.1678  1.7321  3.4276
   7723SM  H15T10177   6.155   0.876  15.397 -0.7510 -1.4087 -1.1807
   7723SM  C16S10178   6.227   0.782  15.213 -0.7815  0.3048 -0.3147
   7723SM  H16S10179   6.174   0.686  15.231 -0.3060  0.3292  1.3821
   7723SM  H16T10180   6.333   0.766  15.181 -0.1710  2.5218  0.4427
   7723SM  C17S10181   6.159   0.874  15.116 -0.4926 -0.8065 -0.5394
   7723SM  H17S10182   6.218   0.967  15.099  1.2553 -1.1017  3.0751
   7723SM  H17T10183   6.067   0.919  15.160  0.6900  0.6306  0.5726
   7723SM  C18S10184   6.110   0.807  14.987 -0.0708 -0.5759  0.1489
   7723SM  H18S10185   6.066   0.885  14.922  0.0126 -0.5059  0.1770
   7723SM  H18T10186   6.025   0.739  15.008  0.6454 -0.7305  3.0721
   7723SM  H18U10187   6.194   0.754  14.937  1.2172  1.3176  0.2019
   7723SM   C1F10188   6.773   0.820  16.762  0.0448 -0.5493  0.0870
   7723SM    OF10189   6.848   0.726  16.784  0.3062 -0.3071 -0.7230
   7723SM   C2F10190   6.828   0.952  16.709 -0.5913  0.1628 -0.7421
   7723SM   H2F10191   6.938   0.944  16.725 -0.9657 -1.2200  1.5431
   7723SM   H2G10192   6.781   1.032  16.770 -0.6507  0.1119 -0.7222
   7723SM   C3F10193   6.805   0.974  16.560  0.1788 -0.5135  0.2691
   7723SM   H3F10194   6.831   1.082  16.555  0.8441 -0.6573  0.5418
   7723SM   H3G10195   6.697   0.970  16.535  0.4400  1.1782 -1.3239
   7723SM   C4F10196   6.871   0.886  16.458 -0.5458  0.2087  0.5291
   7723SM   H4F10197   6.868   0.776  16.475 -0.4808 -0.6053 -3.4981
   7723SM   H4G10198   6.979   0.907  16.453 -0.0759 -1.6854  1.6426
   7723SM   C5F10199   6.806   0.910  16.311  0.1951 -0.1847  0.1636
   7723SM   H5F10200   6.815   1.020  16.297 -1.1800 -0.0980 -0.1506
   7723SM   H5G10201   6.701   0.875  16.307  0.3423 -0.6779  0.5123
   7723SM   C6F10202   6.876   0.824  16.205 -0.2980  1.0240  0.0621
   7723SM   H6F10203   6.884   0.717  16.236  0.3078  1.2494  0.7224
   7723SM   H6G10204   6.979   0.866  16.200  0.7591 -1.4932 -2.2562
   7723SM   C7F10205   6.808   0.828  16.069  0.8165 -0.0518  0.7212
   7723SM   H7F10206   6.793   0.935  16.042  1.5375  0.0046  0.5057
   7723SM   H7G10207   6.717   0.764  16.068  1.5767 -1.1686  0.6514
   7723SM   C8F10208   6.900   0.766  15.964  0.6159 -0.2485  1.5618
   7723SM   H8F10209   6.918   0.658  15.982 -0.7874 -1.0021 -1.1663
   7723SM   H8G10210   6.994   0.824  15.954  0.7482 -0.7603 -0.4008
   7723SM   C9F10211   6.827   0.778  15.827 -0.8240  0.3921  0.0896
   7723SM   H9F10212   6.792   0.883  15.810 -1.1961  0.5054  1.4796
   7723SM   H9G10213   6.729   0.727  15.821 -0.2042 -1.0374  1.4674
   7723SM  C10F10214   6.923   0.727  15.712 -0.7327  0.0588 -0.0089
   7723SM  H10F10215   6.960   0.630  15.752  1.4340  1.5236  1.8532
   7723SM  H10G10216   7.015   0.790  15.709  1.0002 -2.2886  0.4834
   7723SM  C11F10217   6.868   0.718  15.578  0.1469  0.0768 -0.6442
   7723SM  H11F10218   6.854   0.823  15.545  1.4046  0.9765  1.5227
   7723SM  H11G10219   6.775   0.658  15.574  0.9474 -1.6340  2.7358
   7723SM  C12F10220   6.966   0.645  15.470 -0.0085 -0.1966 -0.2680
   7723SM  H12F10221   6.977   0.538  15.500 -1.0739 -1.1801 -3.0649
   7723SM  H12G10222   7.061   0.700  15.488 -1.2863  1.6200  1.3424
   7723SM  C13F10223   6.935   0.644  15.317 -0.4084  0.2324 -0.0283
   7723SM  H13F10224   6.839   0.588  15.307 -0.9785  1.1225  0.3472
   7723SM  H13G10225   7.015   0.585  15.266  0.6715  1.7356 -0.1332
   7723SM  C14F10226   6.932   0.786  15.251 -0.9202  0.2079 -0.5827
   7723SM  H14F10227   7.012   0.853  15.291 -2.4301  0.7520  1.7043
   7723SM  H14G10228   6.835   0.829  15.282 -1.2220  0.7021 -2.1462
   7723SM  C15F10229   6.944   0.789  15.096  0.6534 -0.1951 -0.2074
   7723SM  H15F10230   6.865   0.725  15.053  1.7378 -0.2063 -2.2931
   7723SM  H15G10231   7.039   0.742  15.063  0.4431 -0.1185 -0.9238
   7723SM  C16F10232   6.922   0.929  15.034 -0.1773  0.4985 -0.7259
   7723SM  H16F10233   7.013   0.981  15.074 -0.5034 -0.2758  1.1175
   7723SM  H16G10234   6.828   0.975  15.072 -0.4665 -2.6700  2.9275
   7723SM  C17F10235   6.929   0.937  14.879 -0.8289 -0.3464  0.2411
   7723SM  H17F10236   6.845   0.889  14.825 -0.3196  1.2246 -2.0944
   7723SM  H17G10237   7.028   0.892  14.853 -0.2443  1.2057 -0.3340
   7723SM  C18F10238   6.940   1.084  14.836  0.1175  0.2365 -0.4346
   7723SM  H18F10239   7.019   1.137  14.892  1.9399 -1.2715 -1.4582
   7723SM  H18G10240   6.843   1.137  14.851 -0.4343 -0.6214 -0.8192
   7723SM  C19F10241   6.977   1.097  14.688 -0.2923 -0.6443  1.1920
   7723SM  H19F10242   6.930   1.016  14.628  2.2523 -0.5405 -1.1489
   7723SM  H19G10243   7.085   1.074  14.681 -0.1392  0.4866 -0.7196
   7723SM  C20F10244   6.958   1.240  14.632  0.1743 -0.2081  1.0930
   7723SM  H20F10245   7.056   1.290  14.617 -0.5292  1.3506  1.4419
   7723SM  H20G10246   6.894   1.298  14.702  1.4811  2.2121  0.3737
   7723SM  C21F10247   6.891   1.249  14.495  0.6421 -0.1535  0.1586
   7723SM  H21F10248   6.878   1.356  14.471  0.4602 -0.3095 -0.4533
   7723SM  H21G10249   6.794   1.195  14.494 -0.2335  1.2858  1.9856
   7723SM  C22F10250   6.978   1.197  14.377 -0.8031 -0.2231  0.5795
   7723SM  H22F10251   7.006   1.093  14.402  0.2632 -0.6863 -2.1250
   7723SM  H22G10252   7.057   1.276  14.374 -1.6115  0.6206 -2.5441
   7723SM  C23F10253   6.910   1.190  14.240  0.2077  0.0297  0.0116
   7723SM  H23F10254   6.990   1.189  14.163 -0.7256  0.9042 -1.0018
   7723SM  H23G10255   6.859   1.286  14.218  2.2541  0.5754 -2.8494
   7723SM  H23H10256   6.835   1.108  14.237  0.2553  0.0008 -2.0700
   7823SM     N10257   0.133   5.774  17.192  1.0024  0.2638 -0.0873
   7823SM   C1510258   0.145   5.859  17.311 -0.0477 -0.2013 -0.1513
   7823SM  H15A10259   0.075   5.822  17.384 -1.6282 -0.5916 -1.7774
   7823SM  H15B10260   0.135   5.966  17.300 -2.1928 -0.3994 -0.6889
   7823SM  H15C10261   0.244   5.856  17.353 -1.2372  2.2916  3.3371
   7823SM   C1410262   0.194   5.640  17.225 -0.2265 -0.0766  0.0765
   7823SM  H14A10263   0.301   5.649  17.233 -0.2496  1.7036 -1.0679
   7823SM  H14B10264   0.183   5.572  17.142  2.3316  0.4645 -0.7979
   7823SM  H14C10265   0.150   5.592  17.311 -0.1101  0.4947  0.4589
   7823SM   C1310266  -0.014   5.744  17.152 -0.4860  0.0937 -0.3288
   7823SM  H13A10267  -0.071   5.728  17.243 -1.1636  2.1309 -0.3290
   7823SM  H13B10268  -0.029   5.653  17.096 -3.0883 -0.6278  1.3626
   7823SM  H13C10269  -0.062   5.823  17.096 -4.4780 -0.5636  1.8002
   7823SM   C1210270   0.195   5.824  17.071 -0.4084  0.3672 -0.4008
   7823SM  H12A10271   0.290   5.868  17.097 -0.1545  0.2311 -1.0668
   7823SM  H12B10272   0.135   5.908  17.040 -0.5192 -0.5190 -2.7928
   7823SM   C1110273   0.217   5.729  16.945  0.1693 -0.7324  0.4735
   7823SM  H11A10274   0.226   5.787  16.851 -0.5803  0.8625  1.3436
   7823SM  H11B10275   0.128   5.665  16.922  0.6433 -0.1885 -3.4996
   7823SM     P10276   0.469   5.690  16.953  0.7307  0.3696  0.2410
   7823SM   O1310277   0.488   5.800  17.050  0.4763  0.0492  0.2063
   7823SM   O1410278   0.559   5.571  16.977 -0.0498 -0.1899 -0.3238
   7823SM   O1110279   0.490   5.740  16.802 -0.5144  0.3441 -0.3181
   7823SM   O1210280   0.325   5.638  16.957  0.1244  0.3373 -0.3581
   7823SM   C1S10281   0.439   5.681  16.687  0.5912  0.2480  0.3726
   7823SM   H1S10282   0.328   5.685  16.680  0.5457 -0.4449  0.6052
   7823SM   H1T10283   0.465   5.573  16.682 -2.0619 -0.4473 -0.2913
   7823SM    NF10284   0.406   5.698  16.448  0.7811 -0.4120  0.0359
   7823SM   HNF10285   0.422   5.603  16.424  0.2485 -0.5570  0.2412
   7823SM   C2S10286   0.485   5.750  16.556 -0.2939 -0.4018  0.0903
   7823SM   H2S10287   0.474   5.860  16.564  2.0438  0.0333 -1.7399
   7823SM   C3S10288   0.640   5.738  16.537  0.6910  0.2669 -0.2644
   7823SM   H3S10289   0.666   5.630  16.526  1.6346  0.5239 -0.6523
   7823SM    O310290   0.717   5.778  16.651  0.3004 -0.4041 -0.3790
   7823SM   HO310291   0.655   5.775  16.724  0.7473 -1.8383 -0.0353
   7823SM   C4S10292   0.679   5.805  16.408 -0.4448  0.0115 -0.3821
   7823SM   H4S10293   0.641   5.905  16.381  1.3260  0.7925 -0.0971
   7823SM   C5S10294   0.765   5.747  16.325  0.1390  0.2540  0.0715
   7823SM   H5S10295   0.815   5.653  16.355 -0.2369 -0.1686 -0.5774
   7823SM   C6S10296   0.800   5.799  16.189 -0.9525  0.3038  0.3451
   7823SM   H6S10297   0.901   5.760  16.161 -0.4507  2.5404 -1.2039
   7823SM   H6T10298   0.810   5.908  16.210 -0.7571 -0.1406  2.8226
   7823SM   C7S10299   0.690   5.764  16.083 -0.1922  0.1774 -0.4661
   7823SM   H7S10300   0.589   5.793  16.121  0.7389  3.1334  0.0098
   7823SM   H7T10301   0.683   5.655  16.064 -1.6236  0.2106 -0.2803
   7823SM   C8S10302   0.712   5.834  15.952  0.4306  0.0314  0.6233
   7823SM   H8S10303   0.815   5.811  15.915  0.1907  2.5047 -2.0039
   7823SM   H8T10304   0.718   5.943  15.974  1.5662 -0.0663  0.8735
   7823SM   C9S10305   0.598   5.808  15.849 -0.1203 -0.0168  0.2276
   7823SM   H9S10306   0.509   5.867  15.880  0.5383  0.5004  1.1807
   7823SM   H9T10307   0.577   5.700  15.833 -1.9801  0.6899 -2.9917
   7823SM  C10S10308   0.627   5.879  15.711  0.5542  0.3208 -0.1527
   7823SM  H10S10309   0.725   5.843  15.672  0.3736  1.1474 -1.4135
   7823SM  H10T10310   0.630   5.987  15.734  0.0024  0.2040  0.5073
   7823SM  C11S10311   0.505   5.847  15.606 -0.5189 -0.4045 -0.5638
   7823SM  H11S10312   0.414   5.902  15.638  1.3186  1.8333  1.3060
   7823SM  H11T10313   0.496   5.737  15.601  0.3490 -0.4417 -1.7640
   7823SM  C12S10314   0.540   5.878  15.465 -0.1502 -0.1681 -0.0281
   7823SM  H12S10315   0.631   5.819  15.441 -1.2381 -1.5822 -0.9226
   7823SM  H12T10316   0.584   5.979  15.458  0.2588 -0.2248  1.5096
   7823SM  C13S10317   0.417   5.837  15.375 -0.1625  0.0872 -0.1533
   7823SM  H13S10318   0.341   5.917  15.368 -1.7942 -1.3207  0.7866
   7823SM  H13T10319   0.383   5.740  15.419  2.6906  0.4584  3.2705
   7823SM  C14S10320   0.461   5.802  15.232  0.8731 -0.8899  0.1004
   7823SM  H14S10321   0.379   5.764  15.168 -0.7229 -0.1288  1.5973
   7823SM  H14T10322   0.536   5.721  15.246 -0.3841 -1.7725  2.1730
   7823SM  C15S10323   0.515   5.925  15.155 -0.0846  0.1813  0.5748
   7823SM  H15S10324   0.583   5.889  15.075  0.6991  0.1907  1.2228
   7823SM  H15T10325   0.581   5.984  15.223  2.3153 -0.3233 -1.1840
   7823SM  C16S10326   0.399   6.011  15.088 -0.6382  0.2234 -0.0822
   7823SM  H16S10327   0.320   6.053  15.154 -0.2236  0.2511  0.4001
   7823SM  H16T10328   0.349   5.937  15.021 -0.9955  0.6515 -0.2930
   7823SM  C17S10329   0.467   6.124  15.002  0.4736  0.2750  0.1851
   7823SM  H17S10330   0.526   6.196  15.063  0.6740 -0.2840  0.6546
   7823SM  H17T10331   0.378   6.180  14.966 -1.5896 -1.4288  2.2958
   7823SM  C18S10332   0.537   6.080  14.871 -0.0553 -0.1633 -0.6475
   7823SM  H18S10333   0.477   6.013  14.806  4.2116 -1.7054 -3.4366
   7823SM  H18T10334   0.628   6.026  14.904 -0.6958 -0.3838  0.8667
   7823SM  H18U10335   0.561   6.167  14.806 -0.2502  0.8215  0.5639
   7823SM   C1F10336   0.285   5.739  16.414  0.1152 -0.6833  0.5004
   7823SM    OF10337   0.232   5.829  16.474 -0.8065 -0.2427 -0.4801
   7823SM   C2F10338   0.216   5.680  16.300 -0.0789  0.5742  0.0982
   7823SM   H2F10339   0.222   5.570  16.311  1.8250  0.4801 -1.3869
   7823SM   H2G10340   0.283   5.715  16.219  0.1404  0.1145  0.0778
   7823SM   C3F10341   0.071   5.725  16.270  0.1441  0.8120 -0.2322
   7823SM   H3F10342   0.067   5.833  16.294  2.0171  0.8178  0.1601
   7823SM   H3G10343   0.005   5.680  16.347  0.8002 -0.3514 -0.3312
   7823SM   C4F10344   0.015   5.685  16.136 -0.0209  0.0028 -0.1279
   7823SM   H4F10345  -0.093   5.711  16.135  0.2127  1.2147  1.3429
   7823SM   H4G10346   0.007   5.577  16.111 -1.7455  0.0378  0.1628
   7823SM   C5F10347   0.088   5.762  16.025 -0.5182  0.4273  0.4418
   7823SM   H5F10348   0.188   5.716  16.013 -0.7586 -0.2087  0.8027
   7823SM   H5G10349   0.092   5.870  16.052  1.3519 -0.0742  2.4012
   7823SM   C6F10350   0.013   5.736  15.890  0.0318 -0.4038 -0.0785
   7823SM   H6F10351  -0.092   5.771  15.900 -0.3998 -2.0230  1.6517
   7823SM   H6G10352   0.016   5.629  15.863 -1.4986 -0.3462 -0.5694
   7823SM   C7F10353   0.093   5.808  15.774  0.1290  0.0825  0.6183
   7823SM   H7F10354   0.203   5.808  15.788  1.0068  0.6526 -4.3134
   7823SM   H7G10355   0.070   5.917  15.780  3.6430  0.9263  0.7173
   7823SM   C8F10356   0.048   5.756  15.640 -0.7662 -0.0337 -0.3949
   7823SM   H8F10357  -0.060   5.730  15.642 -0.6784 -0.3777  0.1355
   7823SM   H8G10358   0.108   5.664  15.626 -1.5709 -0.7362  0.6253
   7823SM   C9F10359   0.083   5.845  15.526 -0.3854 -0.7849  0.9275
   7823SM   H9F10360   0.175   5.905  15.542  0.1202 -1.3013  0.0096
   7823SM   H9G10361  -0.001   5.917  15.541  0.8021  0.8184  0.2008
   7823SM  C10F10362   0.062   5.785  15.394  0.5691  0.1300  0.2072
   7823SM  H10F10363  -0.029   5.722  15.391 -0.6836  1.8717 -0.5402
   7823SM  H10G10364   0.144   5.711  15.394 -0.4862 -1.0698 -0.0482
   7823SM  C11F10365   0.072   5.876  15.273  0.0107 -0.2227  0.0684
   7823SM  H11F10366   0.161   5.941  15.284 -0.6080  0.9472 -1.4004
   7823SM  H11G10367  -0.023   5.934  15.276 -0.6571 -1.0572 -2.3593
   7823SM  C12F10368   0.082   5.810  15.132  0.3284  0.7829 -0.0226
   7823SM  H12F10369   0.170   5.745  15.149  0.5321  1.4847  1.8399
   7823SM  H12G10370   0.099   5.884  15.050  1.2992 -0.0659 -0.6081
   7823SM  C13F10371  -0.033   5.714  15.112 -0.3725  0.2611  0.5306
   7823SM  H13F10372  -0.125   5.776  15.112  0.5244  1.6647 -0.5172
   7823SM  H13G10373  -0.028   5.640  15.195  0.3874 -0.5146 -0.1753
   7823SM  C14F10374  -0.022   5.631  14.980  0.2542 -0.9841 -0.6308
   7823SM  H14F10375   0.079   5.588  14.963  1.0384  1.5037 -2.9605
   7823SM  H14G10376  -0.037   5.706  14.900  1.2922  0.3868  0.4087
   7823SM  C15F10377  -0.121   5.514  14.985 -0.0536 -0.0525  0.0594
   7823SM  H15F10378  -0.210   5.543  15.045 -0.0385 -2.6620  1.5076
   7823SM  H15G10379  -0.069   5.429  15.034  1.7914  0.5865 -0.6800
   7823SM  C16F10380  -0.171   5.476  14.842  0.1498 -0.3240 -0.5442
   7823SM  H16F10381  -0.097   5.417  14.783  0.0340  1.0206 -2.0990
   7823SM  H16G10382  -0.192   5.568  14.783  0.6613  1.2168  1.5724
   7823SM  C17F10383  -0.288   5.384  14.846 -0.7905 -0.2502 -0.0409
   7823SM  H17F10384  -0.355   5.412  14.930  0.0989  0.0681  0.5727
   7823SM  H17G10385  -0.253   5.280  14.863  0.3734  0.0228 -0.6530
   7823SM  C18F10386  -0.354   5.381  14.710 -0.1745  0.2427  0.7415
   7823SM  H18F10387  -0.274   5.350  14.641  0.3736  2.7041  0.1691
   7823SM  H18G10388  -0.389   5.481  14.675 -1.9704 -0.6391 -0.1286
   7823SM  C19F10389  -0.480   5.298  14.701  0.1364 -0.2042 -0.4407
   7823SM  H19F10390  -0.523   5.300  14.598 -0.1250 -1.8352 -0.3939
   7823SM  H19G10391  -0.559   5.340  14.766  1.3861  2.0955 -0.3128
   7823SM  C20F10392  -0.471   5.144  14.734 -0.1041  0.1486 -0.3908
   7823SM  H20F10393  -0.577   5.117  14.752  0.7434 -2.6077  1.0123
   7823SM  H20G10394  -0.419   5.122  14.830 -0.3805  1.2582  0.0325
   7823SM  C21F10395  -0.411   5.053  14.631  0.1602  0.5922 -0.6082
   7823SM  H21F10396  -0.442   5.068  14.526 -0.4545  0.3491 -0.4672
   7823SM  H21G10397  -0.443   4.952  14.668 -0.9004  1.0724 -0.1615
   7823SM  C22F10398  -0.260   5.050  14.638 -0.0177  0.2329 -0.0051
   7823SM  H22F10399  -0.223   4.960  14.690  1.1736 -0.1355 -1.4370
   7823SM  H22G10400  -0.220   5.127  14.708 -0.5132  1.0470 -0.5971
   7823SM  C23F10401  -0.175   5.049  14.506 -0.5879  0.0380  0.3519
   7823SM  H23F10402  -0.066   5.047  14.530 -0.0309 -0.0951 -2.0106
   7823SM  H23G10403  -0.191   5.148  14.458 -0.1278  0.4272  0.9745
   7823SM  H23H10404  -0.203   4.968  14.436  0.6299 -1.0011  1.0160
   7923SM     N10405   5.572   6.617  17.538 -1.0008 -0.4449  0.4311
   7923SM   C1510406   5.468   6.651  17.643  0.7989 -0.6327  0.7193
   7923SM  H15A10407   5.404   6.722  17.593 -0.8417 -1.8595  0.9983
   7923SM  H15B10408   5.509   6.699  17.731  2.0054  1.7904 -1.0414
   7923SM  H15C10409   5.411   6.562  17.662  1.1965 -1.7353 -2.6857
   7923SM   C1410410   5.646   6.734  17.493 -0.5219 -0.3542  0.6045
   7923SM  H14A10411   5.572   6.793  17.441 -1.3456  0.4604  2.6056
   7923SM  H14B10412   5.720   6.690  17.427  1.3276  1.9781  1.0104
   7923SM  H14C10413   5.703   6.791  17.565 -1.7027 -0.9423  2.0644
   7923SM   C1310414   5.671   6.521  17.588  0.3763  0.2597 -0.5338
   7923SM  H13A10415   5.628   6.425  17.613  3.7731 -1.4145 -0.5285
   7923SM  H13B10416   5.720   6.561  17.675 -1.1038 -2.2797  1.6077
   7923SM  H13C10417   5.739   6.505  17.506 -2.6978 -0.7940 -3.0986
   7923SM   C1210418   5.493   6.564  17.418 -0.7016  0.4218 -0.0747
   7923SM  H12A10419   5.409   6.627  17.390 -2.6623 -1.9487  0.1669
   7923SM  H12B10420   5.439   6.473  17.441 -3.7736  1.6941 -1.6567
   7923SM   C1110421   5.571   6.523  17.289 -0.2550 -0.3235  0.9390
   7923SM  H11A10422   5.634   6.606  17.250  0.5779 -0.5444  1.7636
   7923SM  H11B10423   5.497   6.494  17.211 -0.5550 -1.1263  1.5015
   7923SM     P10424   5.770   6.364  17.248  0.4225  0.0246  0.3202
   7923SM   O1310425   5.886   6.449  17.283  0.3571  0.6787  0.1331
   7923SM   O1410426   5.774   6.220  17.262  0.5123 -0.3004  0.0605
   7923SM   O1110427   5.730   6.402  17.099 -0.4593 -0.2340  0.2013
   7923SM   O1210428   5.643   6.414  17.329 -0.5335 -0.2709 -0.1574
   7923SM   C1S10429   5.636   6.325  17.023  0.1502 -0.0783 -0.2997
   7923SM   H1S10430   5.574   6.263  17.091 -0.7613  2.7939  1.6742
   7923SM   H1T10431   5.694   6.252  16.961 -0.5173  1.4721 -2.9068
   7923SM    NF10432   5.474   6.334  16.838  0.2047  0.1226  0.5609
   7923SM   HNF10433   5.495   6.325  16.741 -1.4911 -0.1670  0.1833
   7923SM   C2S10434   5.542   6.413  16.934 -0.3288 -0.3517 -0.5413
   7923SM   H2S10435   5.458   6.454  16.993 -2.0862 -1.0317 -2.4605
   7923SM   C3S10436   5.619   6.536  16.873 -0.0730 -0.1216  0.3606
   7923SM   H3S10437   5.696   6.518  16.796  0.2261  1.1463  0.3390
   7923SM    O310438   5.684   6.616  16.974  0.0684 -0.2138 -0.4039
   7923SM   HO310439   5.675   6.561  17.052  4.4810  0.0779  0.5862
   7923SM   C4S10440   5.517   6.617  16.786 -0.1074  0.3211 -0.5959
   7923SM   H4S10441   5.492   6.567  16.691 -0.3242 -0.2154 -0.2625
   7923SM   C5S10442   5.459   6.729  16.824  1.4480 -0.2242  0.1405
   7923SM   H5S10443   5.479   6.772  16.924  0.4535 -0.9486  0.6594
   7923SM   C6S10444   5.359   6.805  16.742  0.1513 -0.1497  0.3554
   7923SM   H6S10445   5.395   6.910  16.728  0.0419  0.0716  1.6279
   7923SM   H6T10446   5.269   6.812  16.806 -0.1227  2.1782 -0.1721
   7923SM   C7S10447   5.319   6.750  16.603 -0.3741 -0.4564 -0.0664
   7923SM   H7S10448   5.294   6.645  16.632  0.9603  0.2367  4.3318
   7923SM   H7T10449   5.397   6.755  16.525 -1.8341 -0.2243 -1.5710
   7923SM   C8S10450   5.188   6.818  16.550  0.0691 -0.6141 -0.4433
   7923SM   H8S10451   5.216   6.921  16.521 -0.9974 -0.3510 -0.5697
   7923SM   H8T10452   5.116   6.832  16.634 -1.0994 -2.6491 -1.0329
   7923SM   C9S10453   5.117   6.748  16.438 -0.4495  0.3838  0.0535
   7923SM   H9S10454   5.031   6.806  16.398  0.3825  0.9542 -0.9468
   7923SM   H9T10455   5.086   6.646  16.470  0.4496  0.2891  0.6492
   7923SM  C10S10456   5.210   6.730  16.317  0.3296 -0.1531 -0.3406
   7923SM  H10S10457   5.285   6.651  16.341 -0.8799 -1.0323  0.6358
   7923SM  H10T10458   5.261   6.829  16.312 -0.5501  0.5717  2.7990
   7923SM  C11S10459   5.135   6.694  16.196  0.2549  0.1333  0.4969
   7923SM  H11S10460   5.065   6.778  16.178  0.7613  0.3378 -0.5656
   7923SM  H11T10461   5.074   6.601  16.203 -0.0505  0.3524  0.8170
   7923SM  C12S10462   5.230   6.682  16.075 -0.0266 -0.8052  0.2889
   7923SM  H12S10463   5.304   6.601  16.096  0.9612 -0.4703 -1.5982
   7923SM  H12T10464   5.282   6.780  16.068 -1.4557  0.0941  1.6824
   7923SM  C13S10465   5.169   6.658  15.930 -0.2033  0.3379 -0.2892
   7923SM  H13S10466   5.080   6.722  15.915  0.3915  0.7034 -2.6168
   7923SM  H13T10467   5.124   6.557  15.924 -0.2782  0.4549 -2.3446
   7923SM  C14S10468   5.265   6.676  15.818 -0.0061 -0.3571 -0.0495
   7923SM  H14S10469   5.349   6.603  15.827 -1.0755 -1.8175 -1.3647
   7923SM  H14T10470   5.301   6.779  15.837  1.1501 -1.2285  2.9896
   7923SM  C15S10471   5.198   6.660  15.684  0.4816  0.3013  0.2132
   7923SM  H15S10472   5.105   6.721  15.681  0.8697  0.8699 -0.9027
   7923SM  H15T10473   5.175   6.552  15.670  0.6166  0.0374  1.8629
   7923SM  C16S10474   5.287   6.699  15.564 -0.0834 -0.4285 -0.3116
   7923SM  H16S10475   5.380   6.640  15.578 -0.8654 -1.3952  0.9960
   7923SM  H16T10476   5.324   6.804  15.557  0.8795 -0.8760 -3.7562
   7923SM  C17S10477   5.216   6.667  15.432  0.4375 -0.0287 -0.4234
   7923SM  H17S10478   5.114   6.710  15.419  0.4773 -0.3536 -1.9763
   7923SM  H17T10479   5.201   6.557  15.431 -2.3714  0.0554  4.1585
   7923SM  C18S10480   5.291   6.696  15.306 -0.1877  0.4236  1.0182
   7923SM  H18S10481   5.251   6.653  15.211 -0.2060  0.2935  1.0844
   7923SM  H18T10482   5.392   6.650  15.308 -0.0114  0.6786 -0.5152
   7923SM  H18U10483   5.290   6.806  15.292 -2.2427  0.4374  0.9597
   7923SM   C1F10484   5.391   6.238  16.872 -0.2615 -0.2391 -0.3636
   7923SM    OF10485   5.350   6.224  16.986  0.7301  0.1681  0.2460
   7923SM   C2F10486   5.335   6.147  16.767 -0.2011 -0.2931  0.3698
   7923SM   H2F10487   5.356   6.041  16.790 -0.2577 -0.3758  0.0499
   7923SM   H2G10488   5.369   6.163  16.662 -2.1786 -2.5854 -0.7429
   7923SM   C3F10489   5.174   6.162  16.748  0.2038 -0.2617  0.0480
   7923SM   H3F10490   5.116   6.148  16.842  0.7327  1.0663  0.5954
   7923SM   H3G10491   5.131   6.084  16.682  2.2326 -2.2439  0.9432
   7923SM   C4F10492   5.145   6.298  16.697 -0.4903  0.1260  0.7092
   7923SM   H4F10493   5.183   6.375  16.768  1.5000 -0.7033  0.6144
   7923SM   H4G10494   5.035   6.311  16.692 -0.6382  0.0537  2.8185
   7923SM   C5F10495   5.214   6.338  16.560 -0.2521 -0.4217 -0.3942
   7923SM   H5F10496   5.325   6.334  16.556 -0.2847 -2.0883 -0.3745
   7923SM   H5G10497   5.175   6.437  16.528 -1.2616 -0.9869 -0.9794
   7923SM   C6F10498   5.167   6.251  16.445 -0.0629  0.2841 -0.1702
   7923SM   H6F10499   5.057   6.234  16.445 -0.0068 -0.4382  1.7021
   7923SM   H6G10500   5.221   6.156  16.465  1.0156  1.1136  1.0252
   7923SM   C7F10501   5.215   6.299  16.312 -0.4085  0.4664  0.0549
   7923SM   H7F10502   5.303   6.367  16.323 -0.2417  0.2203  0.2461
   7923SM   H7G10503   5.135   6.359  16.263  1.0865 -0.6299 -4.1504
   7923SM   C8F10504   5.256   6.179  16.224  0.5663 -0.0969 -0.3232
   7923SM   H8F10505   5.164   6.118  16.212 -0.5722  1.2581  1.1044
   7923SM   H8G10506   5.340   6.122  16.271  1.3756  1.9531  0.8358
   7923SM   C9F10507   5.312   6.234  16.087 -0.1201 -0.3814 -0.0135
   7923SM   H9F10508   5.420   6.256  16.106 -0.5422  1.1441  0.7600
   7923SM   H9G10509   5.250   6.322  16.059  1.0704  0.4594 -0.0961
   7923SM  C10F10510   5.305   6.142  15.971  0.3447 -0.5938  0.6238
   7923SM  H10F10511   5.198   6.112  15.960  0.3528 -0.9181  1.3428
   7923SM  H10G10512   5.365   6.054  16.002 -0.2926 -1.4634 -0.5463
   7923SM  C11F10513   5.364   6.185  15.840 -0.6071 -0.2598 -0.0780
   7923SM  H11F10514   5.388   6.103  15.769  1.7976 -0.6296  1.0330
   7923SM  H11G10515   5.460   6.231  15.872 -1.0229 -0.6867  1.9725
   7923SM  C12F10516   5.279   6.288  15.761  0.0268  0.0275  0.2279
   7923SM  H12F10517   5.338   6.382  15.758 -0.4902  0.4545  2.1334
   7923SM  H12G10518   5.197   6.312  15.832  2.3536 -1.1503  3.5521
   7923SM  C13F10519   5.224   6.251  15.626 -0.4212 -0.2169 -0.6848
   7923SM  H13F10520   5.139   6.318  15.600 -0.0751  0.8413  0.7341
   7923SM  H13G10521   5.196   6.144  15.616 -0.3631 -0.1696 -1.3841
   7923SM  C14F10522   5.326   6.276  15.513 -0.4935 -0.2464  0.2611
   7923SM  H14F10523   5.427   6.233  15.532 -0.3013 -0.0111 -0.2357
   7923SM  H14G10524   5.343   6.385  15.503  0.2342 -0.3702  0.0820
   7923SM  C15F10525   5.272   6.231  15.374  0.0474  0.3833  0.6104
   7923SM  H15F10526   5.172   6.278  15.366 -0.0651  0.1879  0.8762
   7923SM  H15G10527   5.264   6.121  15.359  0.1043  0.5961 -1.2473
   7923SM  C16F10528   5.375   6.285  15.272 -0.6260 -0.3642  0.1393
   7923SM  H16F10529   5.476   6.248  15.299  0.1603  1.4312 -0.2203
   7923SM  H16G10530   5.377   6.395  15.285 -2.7589 -0.3889  1.3032
   7923SM  C17F10531   5.339   6.249  15.131  0.1759  0.3282  0.2572
   7923SM  H17F10532   5.248   6.302  15.095  0.8215  2.3431  1.4039
   7923SM  H17G10533   5.319   6.140  15.130 -0.1807  0.3776  0.8657
   7923SM  C18F10534   5.453   6.289  15.029 -0.0609 -0.2750 -0.0266
   7923SM  H18F10535   5.550   6.235  15.042 -0.3145 -0.7127  0.0848
   7923SM  H18G10536   5.474   6.398  15.034  0.4320 -0.3052 -1.2061
   7923SM  C19F10537   5.397   6.258  14.896 -0.0151  0.2727  0.5808
   7923SM  H19F10538   5.309   6.320  14.868  1.4518  1.9466 -0.5890
   7923SM  H19G10539   5.358   6.154  14.896  2.7187 -0.8410  0.6606
   7923SM  C20F10540   5.506   6.274  14.778 -0.9462  0.4448 -0.2130
   7923SM  H20F10541   5.578   6.192  14.797 -1.2613  0.6467  2.1977
   7923SM  H20G10542   5.549   6.376  14.785 -0.3449  0.2463 -0.8779
   7923SM  C21F10543   5.472   6.244  14.630 -0.2665  0.1457 -0.0769
   7923SM  H21F10544   5.362   6.260  14.621 -0.2581  0.6799  0.7065
   7923SM  H21G10545   5.494   6.137  14.610 -1.9186 -0.0508 -1.0145
   7923SM  C22F10546   5.531   6.346  14.533 -0.7589 -0.5219  0.1311
   7923SM  H22F10547   5.639   6.358  14.555 -0.3428  1.4159 -2.5034
   7923SM  H22G10548   5.489   6.447  14.547  2.0110  0.4991  1.8705
   7923SM  C23F10549   5.500   6.300  14.390  0.1987 -0.1476 -0.0320
   7923SM  H23F10550   5.396   6.264  14.380  0.2338 -1.7288  3.6334
   7923SM  H23G10551   5.557   6.208  14.363  0.8837 -0.2226  1.5498
   7923SM  H23H10552   5.521   6.380  14.316  0.9555  0.3791  0.7273
   8023SM     N10553   6.206   6.359  17.096 -0.7958 -0.1233 -0.4828
   8023SM   C1510554   6.181   6.469  17.195  0.2868  0.5279  0.7130
   8023SM  H15A10555   6.214   6.457  17.297  0.4721  1.3394  0.7587
   8023SM  H15B10556   6.077   6.498  17.190  0.3875  0.7381 -1.0464
   8023SM  H15C10557   6.226   6.561  17.160  0.5818  0.2070  0.2339
   8023SM   C1410558   6.312   6.282  17.164 -0.3602 -0.0272 -0.7763
   8023SM  H14A10559   6.286   6.258  17.266  0.5469 -0.8178 -0.7035
   8023SM  H14B10560   6.404   6.340  17.167  0.5204 -1.1817 -3.0330
   8023SM  H14C10561   6.341   6.194  17.108  2.0150  0.4912 -0.5004
   8023SM   C1310562   6.078   6.273  17.106 -0.1790  0.4943  0.2676
   8023SM  H13A10563   6.099   6.176  17.063  2.0891  0.8214  0.4940
   8023SM  H13B10564   6.000   6.320  17.049  0.1427  2.2673  1.2118
   8023SM  H13C10565   6.045   6.266  17.209  1.5515  1.4765  0.9296
   8023SM   C1210566   6.241   6.391  16.956 -0.0343 -0.6342 -1.0076
   8023SM  H12A10567   6.338   6.439  16.957  0.3727 -1.4016  0.8731
   8023SM  H12B10568   6.174   6.469  16.924 -1.9796 -1.3757  1.0081
   8023SM   C1110569   6.234   6.280  16.846  0.0714 -0.2972 -0.1545
   8023SM  H11A10570   6.258   6.322  16.745 -0.9176 -0.3430 -0.4154
   8023SM  H11B10571   6.128   6.253  16.831 -0.0741  1.5672 -3.5168
   8023SM     P10572   6.259   6.017  16.853  0.3857  0.3680  0.4133
   8023SM   O1310573   6.362   5.919  16.886  0.5111 -0.5866  0.3126
   8023SM   O1410574   6.130   6.007  16.934 -0.6143 -0.8053 -0.1603
   8023SM   O1110575   6.232   6.000  16.697 -0.4768  0.2247 -0.0789
   8023SM   O1210576   6.322   6.161  16.866  0.0910  0.7618 -0.0968
   8023SM   C1S10577   6.319   6.061  16.597  0.5436 -0.2508 -0.4305
   8023SM   H1S10578   6.427   6.061  16.622  0.5212  0.7167 -0.2881
   8023SM   H1T10579   6.296   6.170  16.595 -0.1006 -0.2944  1.9181
   8023SM    NF10580   6.381   6.068  16.357  0.4267  0.6262 -0.1921
   8023SM   HNF10581   6.348   6.153  16.316 -1.8825  0.4609  1.1421
   8023SM   C2S10582   6.289   6.000  16.449  0.2562 -0.8511 -0.3339
   8023SM   H2S10583   6.310   5.892  16.465  1.1103 -0.7360 -0.6307
   8023SM   C3S10584   6.139   6.025  16.410 -0.1070 -0.2391  0.4086
   8023SM   H3S10585   6.123   6.135  16.411 -1.0950 -0.3468 -1.2899
   8023SM    O310586   6.047   5.967  16.500  0.0062 -0.3859 -0.0851
   8023SM   HO310587   6.088   5.958  16.586 -0.1468  1.3132  0.2066
   8023SM   C4S10588   6.116   5.962  16.279  0.2359 -0.3542  0.2002
   8023SM   H4S10589   6.114   5.852  16.284  0.7370 -0.4016 -0.5555
   8023SM   C5S10590   6.083   6.021  16.165  0.1255  0.4185 -0.4789
   8023SM   H5S10591   6.072   6.130  16.154  1.3694  0.7033  0.7858
   8023SM   C6S10592   6.042   5.949  16.041  1.4471  0.8983  0.2271
   8023SM   H6S10593   5.932   5.959  16.029  0.9227 -3.4726 -0.2151
   8023SM   H6T10594   6.060   5.840  16.044 -1.7381  0.2670  0.0429
   8023SM   C7S10595   6.108   6.002  15.919 -0.3682 -0.6033  0.4086
   8023SM   H7S10596   6.217   5.984  15.930  0.1133  0.6063 -1.7402
   8023SM   H7T10597   6.100   6.112  15.922 -0.0335 -0.5977  1.4903
   8023SM   C8S10598   6.065   5.939  15.791 -1.0136 -0.4237 -0.4421
   8023SM   H8S10599   5.956   5.956  15.783 -1.0847 -0.8915 -0.4894
   8023SM   H8T10600   6.081   5.830  15.792  1.1737 -0.1674 -1.1491
   8023SM   C9S10601   6.126   5.996  15.660 -0.1554  0.6416 -0.5435
   8023SM   H9S10602   6.228   5.954  15.668 -0.0658  0.3787 -2.4997
   8023SM   H9T10603   6.120   6.107  15.659  1.4627  0.8121 -3.7278
   8023SM  C10S10604   6.053   5.944  15.535 -0.1735 -0.3228  0.5100
   8023SM  H10S10605   5.945   5.967  15.554 -0.8083  0.6963 -3.4596
   8023SM  H10T10606   6.063   5.834  15.530  2.3361 -0.1571  0.8879
   8023SM  C11S10607   6.094   6.015  15.410  0.1541  0.4204 -0.4888
   8023SM  H11S10608   6.203   5.995  15.400 -0.1778 -1.7745 -0.1940
   8023SM  H11T10609   6.075   6.123  15.427 -0.2860  0.6355 -2.2174
   8023SM  C12S10610   6.012   5.976  15.287 -0.2066  0.7407 -0.6291
   8023SM  H12S10611   5.910   5.984  15.330  1.1075  2.9836  2.4369
   8023SM  H12T10612   6.027   5.867  15.271  1.5053  0.7865  0.3294
   8023SM  C13S10613   6.025   6.056  15.153 -0.2670 -0.3943  0.6622
   8023SM  H13S10614   6.129   6.046  15.115 -0.1801  0.7347  0.5619
   8023SM  H13T10615   6.023   6.165  15.176 -2.2041  0.0368 -1.2326
   8023SM  C14S10616   5.928   6.013  15.047 -0.0786 -0.3130  0.2424
   8023SM  H14S10617   5.830   6.052  15.080 -0.1370  1.8695 -2.2333
   8023SM  H14T10618   5.923   5.902  15.043 -0.9869 -0.2570 -0.5234
   8023SM  C15S10619   5.970   6.055  14.907  0.6596 -0.3558 -0.8756
   8023SM  H15S10620   6.071   6.016  14.884  1.0912  0.0151  0.2973
   8023SM  H15T10621   5.980   6.166  14.901 -0.1304 -0.1898  0.4745
   8023SM  C16S10622   5.871   6.005  14.799 -0.0218  0.3182  0.1891
   8023SM  H16S10623   5.770   6.043  14.822 -0.6404 -0.5295 -1.0337
   8023SM  H16T10624   5.857   5.895  14.813 -3.6408  0.6854  0.4468
   8023SM  C17S10625   5.910   6.037  14.652  0.5320 -0.0311  0.5323
   8023SM  H17S10626   5.856   5.974  14.577  2.2884 -0.4329 -0.4531
   8023SM  H17T10627   6.016   6.006  14.639  0.4690 -0.0876  0.1336
   8023SM  C18S10628   5.890   6.181  14.599 -0.8697 -0.2184 -0.2406
   8023SM  H18S10629   5.978   6.213  14.540 -1.4842  0.1269 -0.9846
   8023SM  H18T10630   5.874   6.260  14.676 -1.7882 -0.8523  0.2401
   8023SM  H18U10631   5.801   6.185  14.532 -0.0283 -2.2357 -1.5935
   8023SM   C1F10632   6.514   6.043  16.363  0.4955 -0.4606 -0.0111
   8023SM    OF10633   6.569   5.959  16.433 -0.1865  0.8038 -0.1913
   8023SM   C2F10634   6.600   6.140  16.281  0.1908 -0.5627  0.5460
   8023SM   H2F10635   6.692   6.149  16.342 -1.4255  1.0364  2.8810
   8023SM   H2G10636   6.551   6.239  16.279  1.7860  0.3145  2.0185
   8023SM   C3F10637   6.613   6.095  16.136  0.8781  0.1053  0.0918
   8023SM   H3F10638   6.669   5.999  16.137  0.1907 -0.3090 -0.1299
   8023SM   H3G10639   6.670   6.169  16.076 -0.2968 -0.1688 -1.4436
   8023SM   C4F10640   6.486   6.087  16.050  0.4478  0.4010 -0.0456
   8023SM   H4F10641   6.420   6.175  16.064 -1.3943 -0.8081 -0.7715
   8023SM   H4G10642   6.425   6.006  16.096  2.5183 -0.8666  0.6323
   8023SM   C5F10643   6.507   6.047  15.904  0.0523 -0.6082 -0.2927
   8023SM   H5F10644   6.410   6.024  15.855 -0.3693 -0.0535  0.2648
   8023SM   H5G10645   6.574   5.959  15.917 -2.2237 -2.1256  2.4128
   8023SM   C6F10646   6.557   6.162  15.819  0.4411 -0.7524 -0.3260
   8023SM   H6F10647   6.659   6.196  15.846  0.6024 -1.1547 -0.4303
   8023SM   H6G10648   6.486   6.244  15.842  0.3612 -0.9881  0.2986
   8023SM   C7F10649   6.559   6.129  15.672  0.9633  0.2017  0.1435
   8023SM   H7F10650   6.464   6.077  15.646  1.6417 -0.9009 -0.2235
   8023SM   H7G10651   6.624   6.039  15.663 -0.8473 -1.2413  0.6540
   8023SM   C8F10652   6.605   6.246  15.583 -0.2124  0.2867  0.6634
   8023SM   H8F10653   6.713   6.264  15.602 -0.4071  0.1059  2.0528
   8023SM   H8G10654   6.547   6.337  15.613  1.3896  1.1524  1.2490
   8023SM   C9F10655   6.582   6.214  15.434 -0.9257  0.0627  0.6353
   8023SM   H9F10656   6.475   6.192  15.411 -0.2718 -1.3233 -1.3331
   8023SM   H9G10657   6.641   6.120  15.425  1.4704  1.4930  0.6007
   8023SM  C10F10658   6.645   6.318  15.346  0.0962 -0.2547 -0.7949
   8023SM  H10F10659   6.747   6.340  15.384 -1.3053  0.8850  2.6357
   8023SM  H10G10660   6.596   6.417  15.342 -0.0711 -0.2414  0.9840
   8023SM  C11F10661   6.656   6.282  15.196  0.1420  1.0232  0.4938
   8023SM  H11F10662   6.551   6.294  15.160  0.0316  0.1867  0.5346
   8023SM  H11G10663   6.684   6.175  15.185 -1.2785  0.6866 -0.1383
   8023SM  C12F10664   6.748   6.359  15.097 -0.1269 -0.1957 -0.3214
   8023SM  H12F10665   6.849   6.348  15.142 -1.0320  1.6188  2.3936
   8023SM  H12G10666   6.728   6.468  15.108 -2.6583 -0.6333 -0.1258
   8023SM  C13F10667   6.746   6.304  14.952 -0.4086 -0.1353 -0.0109
   8023SM  H13F10668   6.810   6.377  14.898 -0.0685  0.2451  0.8867
   8023SM  H13G10669   6.646   6.327  14.909  0.3710  0.4003 -1.6389
   8023SM  C14F10670   6.788   6.160  14.926  0.5473 -0.1374  0.2223
   8023SM  H14F10671   6.708   6.089  14.958  0.7359 -0.2230  0.5058
   8023SM  H14G10672   6.875   6.140  14.993  0.6887  0.3803  0.1958
   8023SM  C15F10673   6.818   6.146  14.776 -0.0990  0.1531  0.4530
   8023SM  H15F10674   6.878   6.233  14.743 -1.7149  0.9947 -0.3675
   8023SM  H15G10675   6.728   6.149  14.712  0.9251 -1.5553 -1.1876
   8023SM  C16F10676   6.890   6.014  14.748 -0.4837  0.3056  0.0347
   8023SM  H16F10677   6.827   5.925  14.774  0.5272 -0.1512  0.9831
   8023SM  H16G10678   6.975   6.012  14.819 -0.2884  1.3696 -0.1612
   8023SM  C17F10679   6.924   5.973  14.604  0.4089 -0.1212  0.3798
   8023SM  H17F10680   6.925   5.862  14.598 -2.3804 -0.1513 -0.8566
   8023SM  H17G10681   7.024   6.016  14.580 -0.3502  1.0568 -0.8296
   8023SM  C18F10682   6.836   6.024  14.494  0.0747  0.0619 -0.0462
   8023SM  H18F10683   6.817   6.133  14.501  0.5231  0.2246 -1.3121
   8023SM  H18G10684   6.729   5.996  14.506  0.0437  0.1923 -0.0186
   8023SM  C19F10685   6.891   5.991  14.358 -0.3255 -0.1306  0.2531
   8023SM  H19F10686   6.890   5.880  14.349 -1.1643 -0.1517  0.5389
   8023SM  H19G10687   6.999   6.015  14.344 -0.2420 -0.4605  0.3150
   8023SM  C20F10688   6.805   6.055  14.244 -0.6525 -0.0256 -0.2464
   8023SM  H20F10689   6.811   6.166  14.242  2.5971 -0.0110  2.2172
   8023SM  H20G10690   6.699   6.022  14.246 -0.1723 -1.9531  3.8407
   8023SM  C21F10691   6.863   6.010  14.106  0.3455 -0.4883  0.9738
   8023SM  H21F10692   6.888   5.902  14.108 -0.7965 -0.7631  1.8748
   8023SM  H21G10693   6.956   6.066  14.087  0.4050 -1.1631 -0.8904
   8023SM  C22F10694   6.766   6.041  13.991 -0.1596 -0.3347 -0.5117
   8023SM  H22F10695   6.684   5.966  13.994 -0.9378  0.5017 -0.2802
   8023SM  H22G10696   6.809   6.031  13.890 -0.3647 -0.9775 -0.5418
   8023SM  C23F10697   6.718   6.184  13.991 -0.3552 -0.1964  0.5984
   8023SM  H23F10698   6.803   6.255  14.001  1.5794 -2.0011 -1.8820
   8023SM  H23G10699   6.645   6.216  14.070  0.5219 -1.8571  2.1520
   8023SM  H23H10700   6.668   6.196  13.892  2.6165 -2.4348 -1.3172
   8123SM     N10701   4.570   2.618  11.660  0.5770  0.5357  0.1564
   8123SM   C1510702   4.635   2.717  11.748  0.2475 -0.2195  0.4442
   8123SM  H15A10703   4.702   2.677  11.822 -0.6296 -0.9400  0.8612
   8123SM  H15B10704   4.555   2.774  11.794  0.0251 -0.6021  0.5378
   8123SM  H15C10705   4.687   2.796  11.696 -0.4860 -0.5658 -0.8699
   8123SM   C1410706   4.493   2.692  11.552 -0.2775  0.5605  0.3432
   8123SM  H14A10707   4.440   2.779  11.588 -1.9587 -0.4257  0.3481
   8123SM  H14B10708   4.426   2.628  11.496 -0.7402 -0.8592  2.3750
   8123SM  H14C10709   4.563   2.734  11.481 -2.0111  1.1968 -1.0512
   8123SM   C1310710   4.671   2.524  11.602  0.5332  0.4767  0.1764
   8123SM  H13A10711   4.714   2.456  11.673  2.0420  0.3769 -0.8016
   8123SM  H13B10712   4.753   2.580  11.560  1.0741 -0.7590 -0.4459
   8123SM  H13C10713   4.629   2.461  11.525  0.9216  1.1313 -0.5851
   8123SM   C1210714   4.477   2.525  11.750 -0.6724 -0.4806  0.2041
   8123SM  H12A10715   4.539   2.474  11.823  0.3720  0.7463  0.2244
   8123SM  H12B10716   4.429   2.465  11.674  0.2209 -1.4430  0.3662
   8123SM   C1110717   4.360   2.590  11.827 -0.2814  0.2200 -0.6062
   8123SM  H11A10718   4.384   2.690  11.868 -0.9592  0.4330 -0.7249
   8123SM  H11B10719   4.337   2.517  11.908  2.2671 -2.0951 -1.7994
   8123SM     P10720   4.143   2.506  11.698 -0.0256 -0.2219 -0.0368
   8123SM   O1310721   4.068   2.581  11.596 -0.2007  0.0533 -0.2533
   8123SM   O1410722   4.192   2.371  11.663 -0.3255 -0.0693  0.5100
   8123SM   O1110723   4.064   2.508  11.833  0.2763  0.6864  0.1994
   8123SM   O1210724   4.260   2.606  11.731  0.0299 -0.3078 -0.1408
   8123SM   C1S10725   4.021   2.633  11.890 -0.1208 -0.1001 -0.8885
   8123SM   H1S10726   3.936   2.672  11.830  0.7655  0.0018 -2.1180
   8123SM   H1T10727   4.099   2.712  11.885 -0.5854  0.5356  1.1469
   8123SM    NF10728   3.975   2.757  12.100  0.0309  0.2837 -0.6315
   8123SM   HNF10729   4.052   2.789  12.155  0.3106  2.1668 -2.0006
   8123SM   C2S10730   3.990   2.627  12.043 -0.6721 -0.1180 -0.4242
   8123SM   H2S10731   3.891   2.578  12.054 -1.9728  2.5017  0.3793
   8123SM   C3S10732   4.084   2.529  12.131 -0.1377  0.4260  0.7889
   8123SM   H3S10733   4.187   2.570  12.125 -0.8074  1.9821 -0.9597
   8123SM    O310734   4.086   2.398  12.070 -0.5016 -0.3380 -0.1870
   8123SM   HO310735   4.068   2.416  11.978  2.4700 -0.0253 -0.8113
   8123SM   C4S10736   4.025   2.523  12.269  0.1434  0.1135 -0.2551
   8123SM   H4S10737   3.926   2.475  12.273  0.3724 -0.4856 -1.3018
   8123SM   C5S10738   4.079   2.581  12.377  0.2855 -0.1163 -0.1260
   8123SM   H5S10739   4.164   2.651  12.370 -0.1045  0.3536 -0.2491
   8123SM   C6S10740   4.014   2.581  12.517  0.5200  0.5509  0.3725
   8123SM   H6S10741   4.090   2.567  12.597  1.2173  1.6577 -0.0683
   8123SM   H6T10742   3.928   2.513  12.536  0.5820  0.4931  0.4433
   8123SM   C7S10743   3.967   2.723  12.553 -0.1505 -0.2579 -0.3118
   8123SM   H7S10744   3.887   2.740  12.477 -1.6630  0.5418  1.3894
   8123SM   H7T10745   4.041   2.805  12.539 -0.7830  0.1319 -1.5797
   8123SM   C8S10746   3.891   2.748  12.685 -0.6173  0.7783  0.0133
   8123SM   H8S10747   3.810   2.672  12.694 -1.2944  1.4585 -0.2101
   8123SM   H8T10748   3.853   2.851  12.673  0.4400  1.0659 -1.0291
   8123SM   C9S10749   3.987   2.743  12.801 -0.3084 -0.1064  0.3677
   8123SM   H9S10750   4.076   2.804  12.774  0.1710 -1.1099 -0.3863
   8123SM   H9T10751   4.025   2.641  12.824  2.1001 -0.1491 -3.0104
   8123SM  C10S10752   3.927   2.805  12.931 -0.7858 -0.2046  0.1240
   8123SM  H10S10753   3.822   2.772  12.918 -0.5756 -0.1244 -2.4519
   8123SM  H10T10754   3.931   2.916  12.918 -0.9109 -0.1204  0.8104
   8123SM  C11S10755   3.991   2.765  13.063  0.2899  0.0726 -0.4668
   8123SM  H11S10756   4.095   2.801  13.074  0.6963 -1.3151  0.6780
   8123SM  H11T10757   3.994   2.654  13.075 -1.0275  0.2387  1.9293
   8123SM  C12S10758   3.911   2.818  13.182  0.2566  0.0993 -0.9809
   8123SM  H12S10759   3.811   2.771  13.187  1.2007 -1.9013  1.5807
   8123SM  H12T10760   3.905   2.928  13.166  1.5697  0.3580  0.0951
   8123SM  C13S10761   3.987   2.785  13.314  0.4613  0.4321  0.3151
   8123SM  H13S10762   4.087   2.833  13.320  0.4155  0.5281  0.3186
   8123SM  H13T10763   3.985   2.675  13.330 -5.0946  0.1457 -0.3187
   8123SM  C14S10764   3.909   2.856  13.432 -0.2379  0.1969  0.4888
   8123SM  H14S10765   3.805   2.835  13.398  0.9424 -4.7614 -0.9029
   8123SM  H14T10766   3.925   2.965  13.427  1.3656  0.1342  2.6599
   8123SM  C15S10767   3.937   2.799  13.572 -0.6226  0.2213 -0.2326
   8123SM  H15S10768   4.046   2.808  13.591 -0.9732  1.5844  1.3930
   8123SM  H15T10769   3.917   2.690  13.568  1.6975 -0.2367 -0.7484
   8123SM  C16S10770   3.871   2.875  13.686  0.0229 -0.5536 -0.6815
   8123SM  H16S10771   3.767   2.842  13.710  0.3621  0.5311  2.7963
   8123SM  H16T10772   3.874   2.984  13.669  3.3158 -0.4072  0.1118
   8123SM  C17S10773   3.948   2.846  13.817 -0.4912 -0.3467  0.4432
   8123SM  H17S10774   3.897   2.905  13.896  0.1186 -0.3417  0.8394
   8123SM  H17T10775   4.054   2.880  13.823 -1.7616  3.9012  1.9910
   8123SM  C18S10776   3.929   2.697  13.854 -0.5054 -0.9109 -0.5975
   8123SM  H18S10777   3.823   2.666  13.865  0.3382 -3.8371  0.0218
   8123SM  H18T10778   3.979   2.687  13.953 -2.2711  2.9914  0.9027
   8123SM  H18U10779   3.980   2.624  13.789  1.0937 -0.1892 -0.2019
   8123SM   C1F10780   3.875   2.845  12.072  0.2337 -0.1245  0.3104
   8123SM    OF10781   3.801   2.820  11.979  0.0197 -0.1180 -0.3632
   8123SM   C2F10782   3.853   2.968  12.161 -0.2024  0.4533  0.1680
   8123SM   H2F10783   3.818   3.053  12.099  1.0419  1.1165  0.3489
   8123SM   H2G10784   3.945   2.989  12.221 -0.6786 -1.2507  1.5804
   8123SM   C3F10785   3.742   2.935  12.271 -0.3672 -1.0795 -0.0876
   8123SM   H3F10786   3.777   2.841  12.318 -1.7073 -0.7125  1.7961
   8123SM   H3G10787   3.643   2.923  12.223 -0.3100 -2.0635  0.0309
   8123SM   C4F10788   3.732   3.029  12.392  0.3582  0.1193  0.3715
   8123SM   H4F10789   3.691   3.124  12.352 -0.2336 -0.4205 -0.3250
   8123SM   H4G10790   3.830   3.052  12.440  1.4496 -2.8020 -0.2186
   8123SM   C5F10791   3.631   2.977  12.499 -0.0999 -0.4055 -0.5742
   8123SM   H5F10792   3.643   2.867  12.512  0.0455 -0.2682  0.6140
   8123SM   H5G10793   3.528   2.999  12.463 -0.0333  1.4131  0.2590
   8123SM   C6F10794   3.653   3.050  12.635 -0.1122  0.0263  0.1989
   8123SM   H6F10795   3.617   3.154  12.622 -0.5395 -0.2801 -1.2120
   8123SM   H6G10796   3.759   3.058  12.667 -0.7913  1.5227  2.3149
   8123SM   C7F10797   3.565   3.002  12.751 -0.7144 -0.5731  0.4309
   8123SM   H7F10798   3.595   2.896  12.768  3.8083  0.2964 -0.7809
   8123SM   H7G10799   3.461   3.010  12.715 -0.3945  1.3218 -0.2055
   8123SM   C8F10800   3.584   3.069  12.890 -0.4436 -0.3883  0.0815
   8123SM   H8F10801   3.552   3.175  12.898  0.6460 -0.1900  2.6209
   8123SM   H8G10802   3.693   3.069  12.910  0.1535  0.4488 -2.8120
   8123SM   C9F10803   3.535   2.987  13.009 -0.6336 -0.2529 -0.3011
   8123SM   H9F10804   3.598   2.896  13.004  1.4705  1.0952  0.1531
   8123SM   H9G10805   3.426   2.968  12.998 -0.4123 -2.0094  0.3624
   8123SM  C10F10806   3.569   3.048  13.150  0.8407  0.7394  0.5075
   8123SM  H10F10807   3.513   3.144  13.154  1.0991  0.9084  0.1424
   8123SM  H10G10808   3.676   3.076  13.157  1.1879 -0.8868  2.9119
   8123SM  C11F10809   3.531   2.955  13.269  0.2475 -0.1465  0.7567
   8123SM  H11F10810   3.591   2.862  13.280 -1.7934 -1.5049  0.8314
   8123SM  H11G10811   3.426   2.920  13.262 -0.1345  0.5809  2.3490
   8123SM  C12F10812   3.533   3.023  13.404  0.1730  0.5642 -0.0259
   8123SM  H12F10813   3.454   3.101  13.406  2.2786  2.8974 -1.7615
   8123SM  H12G10814   3.628   3.078  13.420 -0.2544  1.1988  0.3909
   8123SM  C13F10815   3.516   2.926  13.529 -0.0036 -0.6152 -0.3818
   8123SM  H13F10816   3.606   2.864  13.543 -0.3200 -0.6219  1.8633
   8123SM  H13G10817   3.422   2.868  13.516  1.2708 -2.7350 -0.5368
   8123SM  C14F10818   3.510   3.014  13.653 -0.3741  0.2900  0.1983
   8123SM  H14F10819   3.427   3.087  13.645 -0.0400  0.6775  0.2165
   8123SM  H14G10820   3.606   3.068  13.672 -0.2851  1.1059 -2.1870
   8123SM  C15F10821   3.480   2.922  13.771  0.2868 -0.6155 -0.4324
   8123SM  H15F10822   3.567   2.858  13.801  0.9563  0.9053  1.0515
   8123SM  H15G10823   3.405   2.849  13.734  0.1030 -1.1427  0.9038
   8123SM  C16F10824   3.432   2.999  13.895 -0.0702  0.0657 -0.1770
   8123SM  H16F10825   3.323   3.015  13.881 -0.0055  1.8457  1.0637
   8123SM  H16G10826   3.471   3.102  13.908  0.1877 -0.0955  0.3440
   8123SM  C17F10827   3.446   2.921  14.026  0.5738 -0.0565 -0.7147
   8123SM  H17F10828   3.553   2.895  14.035  0.5772  0.1893  0.0493
   8123SM  H17G10829   3.392   2.824  14.021 -0.3226  0.3468  0.4690
   8123SM  C18F10830   3.389   3.004  14.142 -0.3347  0.4102 -0.0372
   8123SM  H18F10831   3.303   3.057  14.097 -0.6104 -0.0795 -0.0978
   8123SM  H18G10832   3.468   3.081  14.156  0.8063 -0.6125 -0.5662
   8123SM  C19F10833   3.375   2.931  14.275  0.0894 -0.8006 -0.8064
   8123SM  H19F10834   3.346   2.999  14.358 -0.4331  0.1274 -1.7186
   8123SM  H19G10835   3.470   2.891  14.316 -1.1244  0.6698  4.1134
   8123SM  C20F10836   3.282   2.813  14.276 -0.1047 -0.4794 -0.1177
   8123SM  H20F10837   3.266   2.781  14.381  0.1786 -1.3670 -0.3373
   8123SM  H20G10838   3.321   2.735  14.206 -0.4073  0.6851 -1.6340
   8123SM  C21F10839   3.140   2.849  14.221 -0.6862  0.0184 -0.5502
   8123SM  H21F10840   3.160   2.867  14.113  2.3217 -0.6052 -0.1977
   8123SM  H21G10841   3.126   2.948  14.270  4.2072  1.7600 -2.0526
   8123SM  C22F10842   3.031   2.751  14.248 -0.6894 -0.1513 -0.1121
   8123SM  H22F10843   3.027   2.721  14.355 -3.1623  0.2999 -0.0174
   8123SM  H22G10844   3.054   2.651  14.205  2.6415 -0.7423  2.6131
   8123SM  C23F10845   2.889   2.800  14.203  0.4910  0.4931  0.7197
   8123SM  H23F10846   2.822   2.712  14.206 -1.1620  1.7237  1.7269
   8123SM  H23G10847   2.891   2.834  14.098  1.6573  2.8096  1.4056
   8123SM  H23H10848   2.851   2.886  14.263  0.7696  0.3764  1.0720
   8223SM     N10849   3.444   3.503  11.418  0.0497 -0.1561 -0.3087
   8223SM   C1510850   3.570   3.576  11.369  0.2870  0.5807 -0.4143
   8223SM  H15A10851   3.581   3.668  11.426 -1.7615 -0.0900  1.2128
   8223SM  H15B10852   3.545   3.616  11.272 -2.3612 -1.3952 -0.6730
   8223SM  H15C10853   3.662   3.520  11.373  0.6137  1.1424  0.2529
   8223SM   C1410854   3.321   3.574  11.370  0.9344  0.3877  0.2505
   8223SM  H14A10855   3.296   3.545  11.269 -0.9054 -0.7202  0.9804
   8223SM  H14B10856   3.322   3.682  11.368 -0.9556  0.4392  0.1918
   8223SM  H14C10857   3.236   3.546  11.430 -1.1817 -0.7137 -2.9489
   8223SM   C1310858   3.431   3.358  11.370 -0.0899 -0.4908  0.4457
   8223SM  H13A10859   3.336   3.317  11.401  1.0327 -2.9837  0.8116
   8223SM  H13B10860   3.515   3.310  11.418  2.9905  0.8938 -3.0793
   8223SM  H13C10861   3.444   3.355  11.263  1.6108  0.1232  0.5938
   8223SM   C1210862   3.454   3.519  11.569  0.6807  0.5494  1.0002
   8223SM  H12A10863   3.363   3.475  11.606 -0.2234  1.7722  0.2787
   8223SM  H12B10864   3.434   3.623  11.585  1.8676  1.6144 -3.1311
   8223SM   C1110865   3.572   3.449  11.647  0.1594 -0.0175 -0.4869
   8223SM  H11A10866   3.550   3.479  11.752 -2.1514 -0.7432 -0.7001
   8223SM  H11B10867   3.659   3.503  11.604  0.1361  0.3922 -0.0336
   8223SM     P10868   3.531   3.201  11.732  0.0217  0.1070 -0.2794
   8223SM   O1310869   3.383   3.201  11.746 -0.4558  0.3625  0.2788
   8223SM   O1410870   3.596   3.079  11.680 -0.7392  0.4227 -0.1501
   8223SM   O1110871   3.597   3.235  11.878  0.0534 -0.4762 -0.1147
   8223SM   O1210872   3.583   3.311  11.630 -0.5424 -0.9610  0.2367
   8223SM   C1S10873   3.507   3.287  11.981 -0.2557 -0.3664 -0.9920
   8223SM   H1S10874   3.415   3.229  12.003 -0.1673  0.1729  1.0132
   8223SM   H1T10875   3.473   3.388  11.950  0.9321  0.8387  1.3905
   8223SM    NF10876   3.480   3.342  12.218  0.3527  0.2144  0.0955
   8223SM   HNF10877   3.464   3.440  12.218  1.5273  0.4279 -0.6052
   8223SM   C2S10878   3.577   3.303  12.119 -0.1757 -0.4511  0.1190
   8223SM   H2S10879   3.630   3.207  12.136  2.7386  1.2305  1.1457
   8223SM   C3S10880   3.695   3.407  12.102 -0.6475  0.0000  0.5766
   8223SM   H3S10881   3.650   3.502  12.065  0.8646  0.5546  0.0834
   8223SM    O310882   3.783   3.374  11.998 -0.1941  0.1395 -0.5462
   8223SM   HO310883   3.729   3.326  11.935 -1.4025  0.2791  0.3468
   8223SM   C4S10884   3.775   3.440  12.222 -0.2854 -0.0683  0.1081
   8223SM   H4S10885   3.746   3.541  12.254  0.3368 -0.0590  0.6511
   8223SM   C5S10886   3.869   3.375  12.282  0.3737  0.7917  0.3403
   8223SM   H5S10887   3.897   3.271  12.258  0.5785  0.9966 -0.3247
   8223SM   C6S10888   3.934   3.426  12.407  0.2051  0.1442  0.2431
   8223SM   H6S10889   3.916   3.534  12.426 -1.1058 -0.3917  2.4159
   8223SM   H6T10890   4.042   3.403  12.404  0.9252  3.0815  1.1132
   8223SM   C7S10891   3.882   3.353  12.533 -0.4776 -0.2093  0.2415
   8223SM   H7S10892   3.899   3.243  12.522 -0.6664 -0.2077 -0.1080
   8223SM   H7T10893   3.771   3.362  12.533 -0.5695 -0.4160 -2.3880
   8223SM   C8S10894   3.941   3.412  12.666 -0.0683  0.6635  0.0474
   8223SM   H8S10895   3.905   3.517  12.673  0.8043  1.0309 -0.6985
   8223SM   H8T10896   4.051   3.417  12.651  0.0027 -0.7992 -0.0958
   8223SM   C9S10897   3.889   3.328  12.782 -0.0286 -0.0027  0.5272
   8223SM   H9S10898   3.909   3.221  12.761 -0.3184  0.2602 -1.2912
   8223SM   H9T10899   3.779   3.319  12.799  0.1775  0.0313  2.0330
   8223SM  C10S10900   3.942   3.369  12.914  0.1392  0.4264  0.3292
   8223SM  H10S10901   3.912   3.470  12.948 -1.0863  0.1545  0.1434
   8223SM  H10T10902   4.052   3.361  12.911  0.1793  0.1034 -3.7020
   8223SM  C11S10903   3.893   3.291  13.033 -0.5482  0.0786 -0.6264
   8223SM  H11S10904   3.935   3.188  13.041 -1.1186 -0.0452  1.0620
   8223SM  H11T10905   3.786   3.280  13.006 -0.5988  0.2349 -0.4905
   8223SM  C12S10906   3.914   3.357  13.167  0.8408  0.0697 -0.1484
   8223SM  H12S10907   3.842   3.442  13.175  1.3764  0.6782 -1.4613
   8223SM  H12T10908   4.017   3.398  13.172  0.5312  0.7088  1.8396
   8223SM  C13S10909   3.882   3.259  13.288 -0.3056 -0.6572 -0.7874
   8223SM  H13S10910   3.931   3.161  13.272  0.1725 -0.8613  1.4813
   8223SM  H13T10911   3.773   3.244  13.275 -0.7792  0.8821  0.8837
   8223SM  C14S10912   3.908   3.330  13.424 -0.6216 -0.6266 -0.3560
   8223SM  H14S10913   3.865   3.432  13.427 -0.1139 -0.4313  1.2952
   8223SM  H14T10914   4.018   3.340  13.427 -0.5283 -1.6302 -0.0800
   8223SM  C15S10915   3.864   3.252  13.547  0.0567  0.1646 -0.1397
   8223SM  H15S10916   3.918   3.155  13.556  3.1704  1.5307 -2.3637
   8223SM  H15T10917   3.754   3.233  13.544  0.0663 -0.6578  2.1151
   8223SM  C16S10918   3.896   3.332  13.674  0.3277 -0.3495 -0.3075
   8223SM  H16S10919   3.871   3.440  13.669 -1.2128 -0.7033 -0.7551
   8223SM  H16T10920   4.007   3.329  13.683  0.2680  0.3514  0.8281
   8223SM  C17S10921   3.828   3.265  13.794 -1.0481 -0.0129 -0.1114
   8223SM  H17S10922   3.861   3.161  13.817 -0.8335 -0.2868 -1.5909
   8223SM  H17T10923   3.720   3.262  13.768 -0.8850  0.1539 -0.8142
   8223SM  C18S10924   3.834   3.352  13.919  1.0132 -0.2984  0.0136
   8223SM  H18S10925   3.936   3.385  13.950 -0.2357  0.6075  3.6928
   8223SM  H18T10926   3.783   3.312  14.009  0.4336 -1.6546 -0.8908
   8223SM  H18U10927   3.781   3.448  13.899  1.5652 -0.1279 -0.6448
   8223SM   C1F10928   3.396   3.254  12.265 -0.6612 -0.1512 -0.2374
   8223SM    OF10929   3.413   3.138  12.229 -0.1000  0.2220  0.3141
   8223SM   C2F10930   3.294   3.305  12.363 -0.1546 -0.2937  0.5941
   8223SM   H2F10931   3.192   3.304  12.320 -0.2452 -1.5562  0.8123
   8223SM   H2G10932   3.309   3.412  12.388  0.4965 -0.3404  0.4324
   8223SM   C3F10933   3.296   3.210  12.485  0.2845 -0.7539  0.8210
   8223SM   H3F10934   3.399   3.208  12.526  0.2650 -0.4234  0.8925
   8223SM   H3G10935   3.282   3.100  12.475 -0.0958 -0.8806  2.4048
   8223SM   C4F10936   3.201   3.267  12.594  0.1734  0.5014 -0.5056
   8223SM   H4F10937   3.100   3.221  12.591  0.8236 -1.1673  1.3489
   8223SM   H4G10938   3.195   3.377  12.578 -0.2425  0.4620 -0.6441
   8223SM   C5F10939   3.253   3.225  12.735 -0.2281  0.1137  0.3992
   8223SM   H5F10940   3.357   3.262  12.747  0.6121 -1.4906 -1.4435
   8223SM   H5G10941   3.261   3.115  12.735 -0.9505  0.0583  0.6018
   8223SM   C6F10942   3.167   3.267  12.854 -0.8929 -0.0060 -0.0543
   8223SM   H6F10943   3.062   3.238  12.831 -0.6360 -0.5954 -0.4922
   8223SM   H6G10944   3.172   3.378  12.860 -1.4216 -0.0169  0.9010
   8223SM   C7F10945   3.211   3.203  12.988  0.1702  0.6975 -0.5029
   8223SM   H7F10946   3.315   3.231  13.016  0.5376 -1.0088 -0.0361
   8223SM   H7G10947   3.220   3.093  12.970 -0.6269  0.7094 -1.0226
   8223SM   C8F10948   3.111   3.239  13.109  0.8296 -0.4974  0.2502
   8223SM   H8F10949   3.016   3.182  13.092 -0.2773  0.9023  1.4505
   8223SM   H8G10950   3.075   3.344  13.101 -1.3705 -1.1630  0.5400
   8223SM   C9F10951   3.181   3.207  13.236  0.2475 -0.5485 -0.5518
   8223SM   H9F10952   3.251   3.290  13.257  0.6006 -1.3508  1.8216
   8223SM   H9G10953   3.228   3.106  13.234 -0.2715 -0.8272  0.5029
   8223SM  C10F10954   3.092   3.200  13.365  0.0953  0.1106  0.1685
   8223SM  H10F10955   3.037   3.104  13.364  0.8547 -0.3338  0.4461
   8223SM  H10G10956   3.009   3.273  13.354 -0.8533 -0.8855  0.4961
   8223SM  C11F10957   3.161   3.208  13.504 -0.2500 -0.6459 -0.5161
   8223SM  H11F10958   3.230   3.295  13.506  0.6568 -1.3435 -0.5208
   8223SM  H11G10959   3.215   3.112  13.521 -1.2466 -0.6185  4.1816
   8223SM  C12F10960   3.060   3.225  13.616 -1.0105 -0.9327 -0.7726
   8223SM  H12F10961   2.986   3.145  13.593 -1.2534 -0.8877 -0.1674
   8223SM  H12G10962   3.005   3.321  13.610  1.1474  0.2817 -2.3861
   8223SM  C13F10963   3.105   3.208  13.772 -0.2067 -0.3388  0.0261
   8223SM  H13F10964   3.173   3.294  13.793  0.4807 -0.8242 -0.1589
   8223SM  H13G10965   3.155   3.110  13.788 -0.9362 -0.5009  1.5029
   8223SM  C14F10966   2.990   3.229  13.864  0.6874  0.0929  0.2665
   8223SM  H14F10967   2.901   3.170  13.833 -0.5896  2.9529 -1.9951
   8223SM  H14G10968   2.960   3.336  13.862 -1.2050 -0.4053 -1.3733
   8223SM  C15F10969   3.026   3.203  14.004  0.3902 -0.1935 -0.1510
   8223SM  H15F10970   3.118   3.259  14.030  0.8621 -0.7121 -0.6903
   8223SM  H15G10971   3.050   3.100  14.037  1.8407  0.4700  0.9790
   8223SM  C16F10972   2.928   3.264  14.105 -0.2349 -0.2367  0.1872
   8223SM  H16F10973   2.829   3.222  14.077  0.2086 -1.9496  1.0288
   8223SM  H16G10974   2.909   3.373  14.095 -1.5085 -0.5476 -1.1059
   8223SM  C17F10975   2.948   3.224  14.255 -0.3606 -0.4032 -0.1927
   8223SM  H17F10976   2.945   3.113  14.265 -2.0531 -0.4477 -0.7148
   8223SM  H17G10977   2.864   3.270  14.312  0.0197  0.9777 -0.7086
   8223SM  C18F10978   3.064   3.288  14.326 -0.4823  0.5786 -0.7103
   8223SM  H18F10979   3.055   3.396  14.304 -2.1039  0.1979 -2.1329
   8223SM  H18G10980   3.152   3.245  14.272  0.0120 -0.5029  0.8861
   8223SM  C19F10981   3.060   3.246  14.471 -0.1042  0.0947  0.5481
   8223SM  H19F10982   3.063   3.135  14.472 -1.8995 -0.0277 -1.2814
   8223SM  H19G10983   2.977   3.298  14.524  0.7660  2.3280 -0.1713
   8223SM  C20F10984   3.190   3.292  14.552  0.1098  0.0378  0.1193
   8223SM  H20F10985   3.199   3.402  14.547  0.1393  0.1121  1.4855
   8223SM  H20G10986   3.276   3.237  14.507 -1.0161 -1.2562 -0.5654
   8223SM  C21F10987   3.171   3.251  14.698 -0.0424 -0.0240  0.0546
   8223SM  H21F10988   3.165   3.140  14.701 -1.1948  0.0147 -0.2557
   8223SM  H21G10989   3.075   3.294  14.735 -0.2646 -0.8360  0.4529
   8223SM  C22F10990   3.275   3.315  14.790  0.3980 -0.2627 -0.5753
   8223SM  H22F10991   3.251   3.423  14.782 -0.1599 -0.1677  1.7236
   8223SM  H22G10992   3.369   3.287  14.737  1.5107  1.2280  0.5498
   8223SM  C23F10993   3.278   3.253  14.929  0.0443  0.4962 -0.5983
   8223SM  H23F10994   3.364   3.289  14.989 -0.4267 -0.3983  0.6655
   8223SM  H23G10995   3.292   3.142  14.931 -0.1784  0.4190  2.4748
   8223SM  H23H10996   3.179   3.271  14.978 -0.2453  0.6791 -1.2420
   8323SM     N10997   4.037   3.263  11.752  0.2572  0.4298 -0.3139
   8323SM   C1510998   3.913   3.203  11.695  0.6078  0.5500  0.1025
   8323SM  H15A10999   3.922   3.096  11.682 -2.4673  0.1291  0.6714
   8323SM  H15B11000   3.894   3.247  11.598 -2.8812 -0.4419  0.1925
   8323SM  H15C11001   3.821   3.225  11.748  0.9607 -0.1316  1.0136
   8323SM   C1411002   4.148   3.243  11.658  0.3077 -0.5682 -0.2344
   8323SM  H14A11003   4.243   3.278  11.695  1.5839 -3.0575 -0.9073
   8323SM  H14B11004   4.128   3.303  11.571 -0.4460  0.0077  0.3258
   8323SM  H14C11005   4.177   3.141  11.636  0.0766 -1.2461  2.3091
   8323SM   C1311006   3.999   3.414  11.760 -0.8252 -0.1848 -0.1219
   8323SM  H13A11007   3.982   3.447  11.659  0.6429 -2.7172 -1.3034
   8323SM  H13B11008   4.087   3.469  11.787  0.8982 -2.3968 -0.9255
   8323SM  H13C11009   3.921   3.437  11.831 -0.0110  2.8688 -0.1212
   8323SM   C1211010   4.068   3.214  11.889 -0.3377 -0.1735 -0.0368
   8323SM  H12A11011   3.985   3.233  11.955  1.3002  0.5490  1.9632
   8323SM  H12B11012   4.154   3.270  11.925 -0.6235  0.4777 -0.3446
   8323SM   C1111013   4.109   3.068  11.890  0.0312  1.3399  0.1067
   8323SM  H11A11014   4.042   2.993  11.843  1.9461 -1.6029  1.7686
   8323SM  H11B11015   4.119   3.025  11.992  2.5362 -0.8828 -0.9799
   8323SM     P11016   4.368   3.055  11.912 -0.2422 -0.0890 -0.0226
   8323SM   O1311017   4.478   3.019  11.820 -0.0241  0.2875  0.1239
   8323SM   O1411018   4.381   3.188  11.977 -0.2195  0.7589  0.1692
   8323SM   O1111019   4.347   2.938  12.018  0.7940  0.3200 -0.4518
   8323SM   O1211020   4.236   3.054  11.837 -0.1528 -0.0039 -0.0337
   8323SM   C1S11021   4.460   2.910  12.109  0.0301 -0.3182  0.0587
   8323SM   H1S11022   4.561   2.939  12.073 -0.8178 -0.1173 -2.3253
   8323SM   H1T11023   4.469   2.799  12.113 -1.4006 -0.4916 -0.9753
   8323SM    NF11024   4.573   2.943  12.327  0.6578 -0.9477 -0.2103
   8323SM   HNF11025   4.573   2.850  12.363 -2.1472 -1.5541 -1.5548
   8323SM   C2S11026   4.448   2.966  12.260 -0.0932 -0.4395 -0.4842
   8323SM   H2S11027   4.430   3.074  12.239  1.4937 -0.2543 -1.0521
   8323SM   C3S11028   4.329   2.898  12.330 -0.0797 -0.0024  0.1425
   8323SM   H3S11029   4.356   2.792  12.351 -0.6363  0.1391  1.7637
   8323SM    O311030   4.220   2.876  12.238 -0.2984 -0.6359 -0.1832
   8323SM   HO311031   4.266   2.900  12.158 -1.4934  0.1471 -0.6653
   8323SM   C4S11032   4.289   2.962  12.461 -0.0908  0.6213 -0.5767
   8323SM   H4S11033   4.342   2.913  12.544  2.3885  3.2710 -0.4357
   8323SM   C5S11034   4.222   3.077  12.485  0.8280 -0.1266 -0.5955
   8323SM   H5S11035   4.178   3.122  12.395 -1.8737 -1.4551 -0.0400
   8323SM   C6S11036   4.191   3.140  12.617 -0.4454  0.0920 -0.3978
   8323SM   H6S11037   4.083   3.155  12.635 -0.3702  0.0917  0.0561
   8323SM   H6T11038   4.228   3.245  12.616 -2.4428  0.8328 -0.1774
   8323SM   C7S11039   4.249   3.057  12.737  0.0463 -0.2989 -0.1208
   8323SM   H7S11040   4.358   3.035  12.728 -0.4400 -2.7833 -0.7566
   8323SM   H7T11041   4.191   2.962  12.735  0.6793 -0.6970  0.0114
   8323SM   C8S11042   4.208   3.134  12.867 -0.2932  0.3479 -0.6922
   8323SM   H8S11043   4.098   3.141  12.878 -0.0497  0.7459  1.9558
   8323SM   H8T11044   4.253   3.235  12.856  1.1117 -0.4448 -3.1467
   8323SM   C9S11045   4.257   3.053  12.995 -0.3414  0.1818 -0.1775
   8323SM   H9S11046   4.366   3.053  13.013 -0.5309 -3.6220  2.0993
   8323SM   H9T11047   4.218   2.950  12.986  2.2835 -0.8749 -0.2372
   8323SM  C10S11048   4.191   3.117  13.124  0.2141 -0.1718  0.2999
   8323SM  H10S11049   4.084   3.089  13.135  0.1729  0.1994  0.8884
   8323SM  H10T11050   4.204   3.227  13.128 -3.8993  0.4815  0.3421
   8323SM  C11S11051   4.262   3.064  13.253 -0.1899 -0.1305  0.3009
   8323SM  H11S11052   4.372   3.080  13.248 -0.5699  3.3301  0.6328
   8323SM  H11T11053   4.237   2.957  13.269  2.0356 -0.6067  0.9480
   8323SM  C12S11054   4.224   3.142  13.386 -0.3009  0.1124 -0.6893
   8323SM  H12S11055   4.116   3.121  13.399 -0.2817 -1.0335 -2.1907
   8323SM  H12T11056   4.228   3.251  13.364 -0.6937 -0.1943 -2.4047
   8323SM  C13S11057   4.309   3.103  13.511  0.3591  0.2213 -0.6466
   8323SM  H13S11058   4.418   3.110  13.488  0.4775 -1.2104 -0.6114
   8323SM  H13T11059   4.297   2.994  13.529  1.5123  0.0756 -0.6560
   8323SM  C14S11060   4.292   3.192  13.634  0.0919  0.4990  0.3715
   8323SM  H14S11061   4.181   3.200  13.641  0.0505 -0.3180  0.8539
   8323SM  H14T11062   4.325   3.295  13.611  0.1963  0.6090  0.9786
   8323SM  C15S11063   4.335   3.132  13.765  0.2549  0.1190 -0.5439
   8323SM  H15S11064   4.442   3.103  13.761 -0.1334 -1.2011 -3.3017
   8323SM  H15T11065   4.285   3.035  13.787 -0.0112  0.5423  0.8139
   8323SM  C16S11066   4.310   3.225  13.884 -0.1186  1.0746 -0.0145
   8323SM  H16S11067   4.204   3.257  13.883 -0.2242  1.0112  2.3580
   8323SM  H16T11068   4.370   3.318  13.876  2.1307 -0.0786  1.9824
   8323SM  C17S11069   4.349   3.166  14.023 -0.4908 -0.2034 -0.2239
   8323SM  H17S11070   4.453   3.129  14.011 -0.9971 -1.5909 -0.5266
   8323SM  H17T11071   4.286   3.076  14.035 -2.9516  1.5593  1.1702
   8323SM  C18S11072   4.343   3.262  14.142 -0.9836  0.1370  0.2037
   8323SM  H18S11073   4.359   3.212  14.240 -0.4540 -2.1973 -1.0082
   8323SM  H18T11074   4.244   3.314  14.139 -0.4998  1.1358  1.0248
   8323SM  H18U11075   4.418   3.341  14.125  0.0212 -0.7570  0.4105
   8323SM   C1F11076   4.680   3.016  12.322 -0.5357  0.5210 -0.4933
   8323SM    OF11077   4.682   3.119  12.257 -0.2445 -0.3185 -0.0065
   8323SM   C2F11078   4.807   2.959  12.388  0.6072  0.8706 -0.6734
   8323SM   H2F11079   4.839   2.890  12.307 -4.1335 -0.6481 -1.5556
   8323SM   H2G11080   4.774   2.892  12.470 -1.3069  2.1198 -0.3567
   8323SM   C3F11081   4.920   3.060  12.429  0.3042  0.3568 -0.2158
   8323SM   H3F11082   4.961   3.120  12.345  0.7965  1.2175  0.6168
   8323SM   H3G11083   5.006   3.001  12.466  0.2662  1.1340  1.1695
   8323SM   C4F11084   4.871   3.177  12.519 -0.5125  0.2602 -0.6267
   8323SM   H4F11085   4.761   3.166  12.526 -0.2855 -1.3527  1.6382
   8323SM   H4G11086   4.910   3.271  12.475 -0.1400  1.6346  2.3807
   8323SM   C5F11087   4.921   3.193  12.661 -0.4606  0.5292 -0.3270
   8323SM   H5F11088   4.916   3.301  12.684  1.1885  0.8083 -1.0909
   8323SM   H5G11089   5.027   3.163  12.679 -0.6606  0.0396  0.0685
   8323SM   C6F11090   4.846   3.111  12.767 -0.8620  0.3383 -0.2594
   8323SM   H6F11091   4.836   3.003  12.745 -0.3935  0.3249 -0.4053
   8323SM   H6G11092   4.744   3.154  12.754 -1.4803 -0.8132  0.5922
   8323SM   C7F11093   4.904   3.150  12.905 -0.5991 -0.1869  0.0535
   8323SM   H7F11094   4.897   3.261  12.911 -0.7673 -0.0177 -2.2613
   8323SM   H7G11095   5.012   3.130  12.918 -0.5013  0.3284  0.0311
   8323SM   C8F11096   4.828   3.097  13.020  0.2198  0.4502  0.4615
   8323SM   H8F11097   4.825   2.986  13.020  1.6925  0.3873 -0.5186
   8323SM   H8G11098   4.725   3.133  13.000 -0.1618 -0.7057  0.2861
   8323SM   C9F11099   4.876   3.147  13.158 -0.4831  0.0927 -0.6296
   8323SM   H9F11100   4.788   3.187  13.212 -1.0605 -0.1452 -1.3812
   8323SM   H9G11101   4.951   3.229  13.154  0.8173 -1.0067  0.3980
   8323SM  C10F11102   4.953   3.033  13.231  0.4509  0.2369  0.3689
   8323SM  H10F11103   5.038   2.988  13.176  1.9202 -0.8218  3.3033
   8323SM  H10G11104   4.882   2.947  13.234  0.0091  0.6137  1.1162
   8323SM  C11F11105   4.997   3.080  13.374 -0.3947 -0.0557  0.3467
   8323SM  H11F11106   4.900   3.112  13.418  0.7146  3.3972  0.5726
   8323SM  H11G11107   5.068   3.163  13.354 -0.0313 -0.5034 -0.3002
   8323SM  C12F11108   5.062   2.971  13.456 -0.9208  0.2112  0.4637
   8323SM  H12F11109   5.136   2.911  13.398 -1.5368  0.9045 -1.1200
   8323SM  H12G11110   4.980   2.903  13.486 -2.3679  1.1787 -1.1473
   8323SM  C13F11111   5.127   3.023  13.583  0.5940 -0.6984 -0.0519
   8323SM  H13F11112   5.063   3.095  13.638  0.4059 -1.9824  1.5019
   8323SM  H13G11113   5.219   3.078  13.556  0.5455 -0.2183  0.7320
   8323SM  C14F11114   5.159   2.910  13.683 -0.9408  0.8635  0.1991
   8323SM  H14F11115   5.229   2.841  13.630  1.6258  2.1774  1.6437
   8323SM  H14G11116   5.075   2.844  13.715 -1.1914  0.2417 -1.6100
   8323SM  C15F11117   5.237   2.965  13.798 -0.4285  0.5852 -0.1974
   8323SM  H15F11118   5.293   3.052  13.757  0.3664 -0.6134 -1.7422
   8323SM  H15G11119   5.314   2.892  13.829  0.7139  2.8112  2.7108
   8323SM  C16F11120   5.146   3.012  13.910  0.2410 -0.3193 -0.3912
   8323SM  H16F11121   5.094   2.919  13.940 -1.0597  0.8762  1.2411
   8323SM  H16G11122   5.065   3.080  13.877 -0.2648 -1.0207 -0.6047
   8323SM  C17F11123   5.231   3.067  14.026  0.6133  0.3291 -0.3506
   8323SM  H17F11124   5.301   3.139  13.979  0.9299  1.1417  1.2946
   8323SM  H17G11125   5.280   2.977  14.067 -1.0395  0.3390  1.8454
   8323SM  C18F11126   5.153   3.142  14.136 -0.4245  0.1157 -0.6823
   8323SM  H18F11127   5.095   3.067  14.194  0.9245  0.1433  0.7705
   8323SM  H18G11128   5.073   3.205  14.091  0.4169  0.3531 -1.8762
   8323SM  C19F11129   5.244   3.220  14.236  0.1001  0.3386 -0.2098
   8323SM  H19F11130   5.278   3.151  14.316 -1.7815  0.2427  0.5705
   8323SM  H19G11131   5.190   3.298  14.294 -0.0046  0.5273 -0.5585
   8323SM  C20F11132   5.366   3.288  14.173 -0.0772  0.2214 -0.3330
   8323SM  H20F11133   5.329   3.358  14.095 -1.4577 -0.0150  0.0845
   8323SM  H20G11134   5.430   3.214  14.121 -1.4773 -0.6539 -0.8407
   8323SM  C21F11135   5.456   3.349  14.285  0.4451 -0.0739  0.4987
   8323SM  H21F11136   5.554   3.369  14.236  0.6978 -2.5269 -0.1361
   8323SM  H21G11137   5.487   3.276  14.363  0.0542 -0.4055  0.3445
   8323SM  C22F11138   5.406   3.475  14.347 -0.6623  0.5077  0.1179
   8323SM  H22F11139   5.486   3.514  14.412  0.4780 -2.9901  1.0198
   8323SM  H22G11140   5.318   3.450  14.411  0.0101 -0.0892  0.8301
   8323SM  C23F11141   5.387   3.596  14.259  0.0549 -0.6320 -0.1169
   8323SM  H23F11142   5.341   3.671  14.326 -1.0741 -2.8411  1.7178
   8323SM  H23G11143   5.315   3.587  14.174  0.4114  0.1909 -0.5196
   8323SM  H23H11144   5.482   3.628  14.211 -0.1630  2.4738  1.3058
   8423SM     N11145   4.046   0.724  11.891 -0.2231  0.6599  0.1924
   8423SM   C1511146   4.176   0.776  11.837  0.7485  0.6211  0.6031
   8423SM  H15A11147   4.234   0.698  11.790  0.8511  0.1458  1.4832
   8423SM  H15B11148   4.239   0.827  11.908  1.3944  2.1545 -1.0106
   8423SM  H15C11149   4.160   0.864  11.777 -0.7383 -0.0225 -0.0009
   8423SM   C1411150   3.959   0.668  11.788 -0.5468  0.1781  0.7575
   8423SM  H14A11151   3.941   0.743  11.712  1.6804  0.8959  0.8633
   8423SM  H14B11152   3.867   0.635  11.834 -0.7845  0.6271  0.6154
   8423SM  H14C11153   4.005   0.594  11.724  0.2917  0.0492  1.4948
   8423SM   C1311154   4.069   0.616  11.989 -0.3539 -0.4880  0.7543
   8423SM  H13A11155   4.137   0.650  12.066  2.4268  0.3284 -1.8624
   8423SM  H13B11156   4.118   0.532  11.942  0.6914  0.5998 -0.1713
   8423SM  H13C11157   3.980   0.576  12.036 -0.9337 -1.1880 -0.8869
   8423SM   C1211158   3.981   0.841  11.960 -0.4922  0.7875 -0.8602
   8423SM  H12A11159   4.052   0.871  12.035  0.3089  0.7114 -1.5702
   8423SM  H12B11160   3.893   0.810  12.015  0.3038  1.0186  0.5621
   8423SM   C1111161   3.926   0.957  11.865 -0.4119  0.2844  0.4748
   8423SM  H11A11162   3.984   0.995  11.779 -1.0241  1.3831  0.5290
   8423SM  H11B11163   3.926   1.046  11.932  0.5136 -1.1158  2.4412
   8423SM     P11164   3.700   1.031  11.759  0.1190 -0.2723  0.0160
   8423SM   O1311165   3.785   1.118  11.673  0.1930  0.0171 -0.8544
   8423SM   O1411166   3.585   0.962  11.698 -0.2211 -0.5891 -0.1728
   8423SM   O1111167   3.664   1.116  11.890 -0.8579 -0.7341 -0.3196
   8423SM   O1211168   3.799   0.920  11.815 -0.3496  0.4567 -0.3412
   8423SM   C1S11169   3.630   1.053  12.014  0.2188  0.2859  0.2134
   8423SM   H1S11170   3.707   0.975  12.034  3.0204  2.8098 -0.0576
   8423SM   H1T11171   3.529   1.006  12.022  0.8433 -0.8486  2.1971
   8423SM    NF11172   3.641   1.093  12.253  0.4319 -0.9309 -0.2776
   8423SM   HNF11173   3.551   1.086  12.296  1.2504 -0.8966  1.5578
   8423SM   C2S11174   3.644   1.166  12.124  0.0606 -0.4347  0.0811
   8423SM   H2S11175   3.739   1.223  12.116  1.1699 -2.2873 -0.5209
   8423SM   C3S11176   3.521   1.260  12.112 -0.5231  0.3308  0.6336
   8423SM   H3S11177   3.426   1.204  12.117 -2.1456  2.9013  0.2579
   8423SM    O311178   3.507   1.325  11.984  0.0391  0.7391 -0.3650
   8423SM   HO311179   3.533   1.254  11.924 -0.1694  0.7261 -0.4415
   8423SM   C4S11180   3.508   1.357  12.229  0.0130  0.6790 -0.2985
   8423SM   H4S11181   3.603   1.403  12.259  1.0054 -1.3526 -0.0999
   8423SM   C5S11182   3.402   1.381  12.298  0.4484  1.1436  1.1992
   8423SM   H5S11183   3.311   1.326  12.270  2.9327 -2.1450 -1.2921
   8423SM   C6S11184   3.390   1.472  12.418 -0.6697 -0.5596  0.1855
   8423SM   H6S11185   3.283   1.469  12.448 -0.5216  2.3325  1.3046
   8423SM   H6T11186   3.414   1.578  12.397  1.0222 -0.7351  1.0686
   8423SM   C7S11187   3.477   1.430  12.540  0.3476  0.0477  0.1901
   8423SM   H7S11188   3.586   1.438  12.519 -0.0080  1.3759 -1.3760
   8423SM   H7T11189   3.458   1.324  12.564 -2.6989  0.1217 -1.3754
   8423SM   C8S11190   3.440   1.519  12.661  0.3472  0.0314 -0.8672
   8423SM   H8S11191   3.330   1.517  12.676  0.6198 -0.6870  1.2991
   8423SM   H8T11192   3.475   1.621  12.635 -0.9965  0.5892 -0.5623
   8423SM   C9S11193   3.518   1.474  12.784  0.3767 -0.5962 -0.2997
   8423SM   H9S11194   3.624   1.456  12.755  0.9305  0.4895  0.9468
   8423SM   H9T11195   3.483   1.377  12.825 -0.8722 -0.5295 -1.1551
   8423SM  C10S11196   3.513   1.578  12.901  0.2409 -0.5036 -1.1879
   8423SM  H10S11197   3.409   1.607  12.927 -0.0034 -2.4558  0.2196
   8423SM  H10T11198   3.570   1.671  12.878  1.7910 -0.9780  0.5491
   8423SM  C11S11199   3.583   1.529  13.025 -0.3333  0.0359  0.4634
   8423SM  H11S11200   3.693   1.536  13.016 -0.1503 -0.0027  2.3533
   8423SM  H11T11201   3.561   1.420  13.029 -1.0045  0.1208 -0.5346
   8423SM  C12S11202   3.558   1.609  13.151  0.2541 -0.3616 -0.1794
   8423SM  H12S11203   3.448   1.616  13.160  0.3796  1.7132  0.1441
   8423SM  H12T11204   3.599   1.710  13.131 -0.8732  0.3654  1.0666
   8423SM  C13S11205   3.616   1.552  13.273  0.3289  0.1053 -0.3746
   8423SM  H13S11206   3.726   1.552  13.261  0.2733 -0.0150 -0.8894
   8423SM  H13T11207   3.581   1.450  13.296  1.6043 -0.1765  0.4143
   8423SM  C14S11208   3.579   1.630  13.403  0.7317 -0.7529 -0.0894
   8423SM  H14S11209   3.469   1.649  13.405  1.0764  1.4238  2.3754
   8423SM  H14T11210   3.622   1.731  13.391  1.7745 -1.3798 -2.0157
   8423SM  C15S11211   3.628   1.561  13.530  0.1245 -0.0095  0.5340
   8423SM  H15S11212   3.738   1.548  13.526  0.1989 -0.0005  2.1544
   8423SM  H15T11213   3.579   1.462  13.540 -1.1020  0.7952  3.5709
   8423SM  C16S11214   3.580   1.632  13.660 -0.1826  0.1799 -0.8141
   8423SM  H16S11215   3.478   1.669  13.638  1.0362  3.6300 -1.3432
   8423SM  H16T11216   3.640   1.724  13.677 -2.6990  1.9198 -0.7266
   8423SM  C17S11217   3.593   1.544  13.783  0.3130 -0.6202  0.0713
   8423SM  H17S11218   3.701   1.531  13.803  0.3187  0.1954  0.6127
   8423SM  H17T11219   3.558   1.442  13.756  1.8009 -1.0745 -0.2458
   8423SM  C18S11220   3.532   1.601  13.912  0.4384  0.6601 -0.1366
   8423SM  H18S11221   3.421   1.602  13.913  0.4206  0.0220 -0.3712
   8423SM  H18T11222   3.570   1.705  13.915  2.1004  0.1194 -0.8042
   8423SM  H18U11223   3.570   1.537  13.995  0.3095 -1.0906 -1.3686
   8423SM   C1F11224   3.740   1.020  12.307  0.0880  0.4004  0.2212
   8423SM    OF11225   3.852   1.026  12.257  0.0125  0.0123 -0.2599
   8423SM   C2F11226   3.712   0.935  12.425 -0.3479 -0.0338  0.4419
   8423SM   H2F11227   3.800   0.872  12.449  1.4304  1.5898 -1.3947
   8423SM   H2G11228   3.621   0.877  12.401  0.2779 -0.3984 -1.2006
   8423SM   C3F11229   3.667   1.015  12.549 -0.2897  0.1282  0.0957
   8423SM   H3F11230   3.579   1.077  12.522  0.8258  1.9505  0.4539
   8423SM   H3G11231   3.747   1.075  12.599 -1.6290  1.1229  1.1095
   8423SM   C4F11232   3.618   0.915  12.660  0.6736  0.1884 -0.1450
   8423SM   H4F11233   3.660   0.813  12.647 -1.9731 -1.0097  0.0309
   8423SM   H4G11234   3.508   0.907  12.643  0.6763  0.9123 -0.5127
   8423SM   C5F11235   3.646   0.959  12.802 -0.1433 -0.2897 -0.0749
   8423SM   H5F11236   3.747   0.996  12.827 -0.3937  0.0067  0.5198
   8423SM   H5G11237   3.628   0.865  12.858 -0.4237  0.7670  1.6534
   8423SM   C6F11238   3.552   1.066  12.854  0.3524  0.3646  0.3953
   8423SM   H6F11239   3.447   1.032  12.866 -0.7408  1.9876 -3.1611
   8423SM   H6G11240   3.541   1.155  12.789 -0.5345  0.2180  0.3350
   8423SM   C7F11241   3.598   1.112  12.991 -0.0833  0.1038  1.0355
   8423SM   H7F11242   3.557   1.211  13.021 -1.0653  0.0991 -0.2067
   8423SM   H7G11243   3.708   1.128  12.995 -0.3023  1.6222  1.8046
   8423SM   C8F11244   3.548   1.024  13.110 -0.6220  0.8469 -0.3444
   8423SM   H8F11245   3.597   0.925  13.101 -2.2901  0.0889 -1.6752
   8423SM   H8G11246   3.439   1.004  13.108 -0.5751  0.6078 -0.8131
   8423SM   C9F11247   3.598   1.074  13.239  0.1796 -0.0036 -0.5861
   8423SM   H9F11248   3.569   1.181  13.241 -0.5046 -0.1910  0.9799
   8423SM   H9G11249   3.708   1.065  13.253  0.0445  0.4902  0.9873
   8423SM  C10F11250   3.541   1.012  13.372 -0.4134 -0.4006  0.3901
   8423SM  H10F11251   3.575   0.906  13.373 -1.8910 -1.0125 -2.4258
   8423SM  H10G11252   3.430   1.010  13.365 -0.7648  4.7423  1.0376
   8423SM  C11F11253   3.591   1.088  13.502  0.0160 -0.1275  0.8573
   8423SM  H11F11254   3.569   1.195  13.485  2.3560  0.2374 -0.3541
   8423SM  H11G11255   3.701   1.069  13.502 -0.0896 -0.7809  0.3243
   8423SM  C12F11256   3.522   1.050  13.631  0.6532 -0.0322  0.2328
   8423SM  H12F11257   3.551   0.945  13.652 -0.5799 -0.3028  0.6825
   8423SM  H12G11258   3.414   1.057  13.605  0.2187 -3.8624  0.4313
   8423SM  C13F11259   3.562   1.134  13.745 -0.0342 -1.0161  0.2892
   8423SM  H13F11260   3.550   1.243  13.723 -1.5437 -0.7384  2.2166
   8423SM  H13G11261   3.672   1.132  13.757  0.0731  1.3414  0.1496
   8423SM  C14F11262   3.488   1.089  13.875 -0.2342 -0.6744  0.1951
   8423SM  H14F11263   3.505   0.980  13.890 -1.9024 -0.8313  1.0641
   8423SM  H14G11264   3.379   1.110  13.867 -0.6152 -2.8152 -1.1896
   8423SM  C15F11265   3.529   1.152  14.003 -0.6168 -0.6056 -0.1582
   8423SM  H15F11266   3.519   1.262  14.012 -0.0447 -0.6214  0.8035
   8423SM  H15G11267   3.635   1.116  14.005 -1.2223 -3.1818 -3.7668
   8423SM  C16F11268   3.453   1.106  14.126 -0.4791  0.7389 -0.2773
   8423SM  H16F11269   3.457   0.996  14.135 -0.6359  0.7793  0.2884
   8423SM  H16G11270   3.349   1.143  14.116  0.0820  2.5003 -0.0337
   8423SM  C17F11271   3.506   1.164  14.260  0.8364  0.0418 -0.4534
   8423SM  H17F11272   3.491   1.273  14.274 -2.2050 -0.4472  0.9707
   8423SM  H17G11273   3.609   1.128  14.278 -0.1892 -2.9845  0.0834
   8423SM  C18F11274   3.413   1.102  14.366  0.6732 -1.0705 -0.4096
   8423SM  H18F11275   3.411   0.992  14.353  0.7931 -1.3460  1.6401
   8423SM  H18G11276   3.307   1.136  14.359  1.0532  0.3431  0.3476
   8423SM  C19F11277   3.470   1.125  14.510 -0.8295  0.5131  0.1834
   8423SM  H19F11278   3.472   1.235  14.524  0.9835  0.5949 -0.4168
   8423SM  H19G11279   3.578   1.099  14.510  0.0390  3.6440  1.6838
   8423SM  C20F11280   3.378   1.054  14.617  0.2285 -0.6409 -0.0877
   8423SM  H20F11281   3.373   0.953  14.569  1.9353 -0.5180 -0.5751
   8423SM  H20G11282   3.277   1.099  14.607  1.1098  1.3069 -0.6178
   8423SM  C21F11283   3.422   1.039  14.758 -0.4786  0.0879  0.4040
   8423SM  H21F11284   3.533   1.040  14.757 -0.4259  0.2105 -2.8007
   8423SM  H21G11285   3.392   0.939  14.795 -3.0679  0.6687  0.0473
   8423SM  C22F11286   3.357   1.138  14.857 -0.2052 -0.3494  0.2659
   8423SM  H22F11287   3.358   1.240  14.814 -2.8138 -0.0394  0.7486
   8423SM  H22G11288   3.405   1.128  14.957 -0.5176 -1.1116  0.3445
   8423SM  C23F11289   3.209   1.095  14.873 -0.5645  0.2053 -0.3330
   8423SM  H23F11290   3.156   1.074  14.778 -1.0827 -1.4626  0.3024
   8423SM  H23G11291   3.152   1.177  14.922 -1.4598 -0.6475  0.0935
   8423SM  H23H11292   3.211   1.007  14.940 -0.9784  0.4109 -0.0446
   8523SM     N11293   5.732   2.136  11.342 -0.3767  0.1521  0.1782
   8523SM   C1511294   5.746   2.179  11.194  0.3754  0.4558 -1.1108
   8523SM  H15A11295   5.849   2.165  11.164  0.9358 -1.3533  1.3425
   8523SM  H15B11296   5.730   2.285  11.184  0.8057  0.5061 -1.3044
   8523SM  H15C11297   5.677   2.137  11.124 -1.6753  3.1240 -0.8637
   8523SM   C1411298   5.580   2.131  11.371 -0.8243  0.1273 -0.1389
   8523SM  H14A11299   5.543   2.228  11.341  0.7507  0.9830  0.5996
   8523SM  H14B11300   5.545   2.110  11.471 -2.8919  0.0089 -0.8254
   8523SM  H14C11301   5.536   2.052  11.312 -2.8831  0.9363  0.2226
   8523SM   C1311302   5.785   1.994  11.342  0.7493  0.0866 -0.5698
   8523SM  H13A11303   5.717   1.925  11.292  1.6251 -1.5173  0.3932
   8523SM  H13B11304   5.786   1.967  11.446  0.7919 -1.1095 -0.8611
   8523SM  H13C11305   5.887   1.985  11.310  1.0009 -2.5474  0.7265
   8523SM   C1211306   5.804   2.228  11.438 -0.2794  0.1400  0.5750
   8523SM  H12A11307   5.768   2.329  11.427 -0.5337  0.3383  2.7905
   8523SM  H12B11308   5.907   2.242  11.408  0.2874  0.9796  2.7037
   8523SM   C1111309   5.798   2.204  11.588 -0.0850 -0.1824 -0.1638
   8523SM  H11A11310   5.695   2.224  11.625  0.1786 -1.1231  1.1633
   8523SM  H11B11311   5.866   2.278  11.635 -1.2494 -0.0468  1.3878
   8523SM     P11312   5.780   1.977  11.720  0.2165  0.1170  0.0716
   8523SM   O1311313   5.642   2.009  11.732 -0.1588 -0.2413 -0.1542
   8523SM   O1411314   5.807   1.832  11.689 -0.5843  0.3940  0.1635
   8523SM   O1111315   5.849   2.002  11.851  0.5513 -0.3412  0.5474
   8523SM   O1211316   5.851   2.078  11.613 -0.6392 -0.2013 -0.7403
   8523SM   C1S11317   5.974   2.072  11.861  0.4838 -0.4280  0.7930
   8523SM   H1S11318   5.973   2.180  11.836  1.5560 -0.7265 -0.7231
   8523SM   H1T11319   6.048   2.026  11.791 -0.7499 -0.0916 -0.7803
   8523SM    NF11320   6.122   2.170  12.036 -0.0621  0.5695  0.5128
   8523SM   HNF11321   6.218   2.159  12.013 -0.5519 -1.4307 -0.8241
   8523SM   C2S11322   6.041   2.055  12.006 -0.1879 -0.8219 -0.4014
   8523SM   H2S11323   5.961   2.044  12.082 -1.6433 -1.9418 -2.0089
   8523SM   C3S11324   6.104   1.918  12.012 -0.0804 -0.0491  0.8373
   8523SM   H3S11325   6.200   1.918  11.956 -0.3978 -2.3733  0.1900
   8523SM    O311326   6.022   1.812  11.958  0.2930  0.2634  0.6534
   8523SM   HO311327   5.946   1.860  11.927  1.3600  2.1864  0.8727
   8523SM   C4S11328   6.125   1.874  12.152 -0.7099  0.2392 -0.3193
   8523SM   H4S11329   6.040   1.828  12.204 -0.0210 -0.0469  0.5745
   8523SM   C5S11330   6.234   1.878  12.219 -0.4060  0.8206  0.1193
   8523SM   H5S11331   6.322   1.932  12.181 -1.1747 -0.0819 -3.2297
   8523SM   C6S11332   6.243   1.812  12.350  0.0281  1.1270 -0.6133
   8523SM   H6S11333   6.301   1.717  12.348 -1.5999  0.0315  1.0313
   8523SM   H6T11334   6.146   1.774  12.390  0.3096  1.0908  0.0579
   8523SM   C7S11335   6.287   1.909  12.458  0.1281  0.0127  0.4000
   8523SM   H7S11336   6.218   1.996  12.453  0.1464  0.1202  1.6906
   8523SM   H7T11337   6.393   1.940  12.447  0.7887 -1.9877  0.7323
   8523SM   C8S11338   6.287   1.849  12.598 -0.0232  0.0978 -0.6681
   8523SM   H8S11339   6.332   1.748  12.602 -0.4587 -0.0900 -0.4600
   8523SM   H8T11340   6.180   1.834  12.625  0.5907 -0.8544  1.4016
   8523SM   C9S11341   6.355   1.941  12.704 -0.0695  0.2350  0.1335
   8523SM   H9S11342   6.325   2.047  12.695 -0.6434  0.0977  0.3970
   8523SM   H9T11343   6.463   1.938  12.678 -0.4127  1.6091 -1.6729
   8523SM  C10S11344   6.338   1.907  12.857  0.4574 -0.3459 -0.6404
   8523SM  H10S11345   6.391   1.814  12.888 -0.8118 -1.6539 -2.2257
   8523SM  H10T11346   6.229   1.898  12.874  0.7548 -1.1608  1.1635
   8523SM  C11S11347   6.393   2.018  12.950  0.9261 -0.3474  0.5514
   8523SM  H11S11348   6.336   2.109  12.920  1.7810 -0.6072 -2.2051
   8523SM  H11T11349   6.501   2.033  12.926  1.6628 -3.6427  1.4322
   8523SM  C12S11350   6.372   1.975  13.094 -0.4048  0.4102  0.8092
   8523SM  H12S11351   6.417   1.874  13.109 -0.5760  0.2274  0.1203
   8523SM  H12T11352   6.263   1.973  13.116  0.1148 -0.2027  3.7106
   8523SM  C13S11353   6.433   2.075  13.190  0.2271 -0.1253 -0.0341
   8523SM  H13S11354   6.390   2.174  13.161  0.5968 -0.0246 -0.2456
   8523SM  H13T11355   6.543   2.084  13.184  0.1793  0.2725 -0.3550
   8523SM  C14S11356   6.391   2.048  13.333  0.5651 -0.8257  0.2466
   8523SM  H14S11357   6.284   2.020  13.325 -0.0920  1.1025  1.6989
   8523SM  H14T11358   6.400   2.135  13.401 -0.4988  0.3807 -1.0897
   8523SM  C15S11359   6.471   1.940  13.407  0.6050 -0.2048  0.1435
   8523SM  H15S11360   6.576   1.974  13.409 -0.4445  3.4634  1.6628
   8523SM  H15T11361   6.457   1.849  13.344 -0.2222  0.8725 -1.2825
   8523SM  C16S11362   6.424   1.911  13.550 -0.4229  0.4433  0.0414
   8523SM  H16S11363   6.325   1.861  13.555 -0.5592  0.8236  1.9293
   8523SM  H16T11364   6.416   2.010  13.599  1.3101  1.3638 -1.4163
   8523SM  C17S11365   6.524   1.824  13.627 -0.1667 -0.1183 -0.2867
   8523SM  H17S11366   6.613   1.886  13.651  1.8112 -1.8382 -2.6446
   8523SM  H17T11367   6.572   1.750  13.559 -1.0817 -0.9181 -0.0720
   8523SM  C18S11368   6.483   1.746  13.745  0.2304  0.1178 -0.1288
   8523SM  H18S11369   6.461   1.808  13.835  1.2960  1.3239 -0.6705
   8523SM  H18T11370   6.562   1.682  13.789 -0.8723 -0.4009  1.1719
   8523SM  H18U11371   6.391   1.689  13.718  0.3676  0.2851 -0.9813
   8523SM   C1F11372   6.076   2.292  12.070  0.0637  0.4044 -0.2575
   8523SM    OF11373   5.955   2.312  12.091  0.1097 -0.3873  0.2942
   8523SM   C2F11374   6.170   2.402  12.075  0.0286 -0.6486  0.4636
   8523SM   H2F11375   6.143   2.472  11.993 -1.7560 -1.9996 -0.1812
   8523SM   H2G11376   6.276   2.370  12.075 -0.2272 -1.5421  1.1241
   8523SM   C3F11377   6.154   2.487  12.206 -0.0409 -0.7272  1.0216
   8523SM   H3F11378   6.058   2.544  12.204 -0.0344 -0.7371 -0.3548
   8523SM   H3G11379   6.239   2.558  12.198  0.5745 -1.5064  0.4342
   8523SM   C4F11380   6.161   2.403  12.328  0.0285  0.1002  0.2467
   8523SM   H4F11381   6.245   2.330  12.323 -1.3895 -1.6004  0.1584
   8523SM   H4G11382   6.067   2.345  12.335 -1.7629  2.9020  1.2336
   8523SM   C5F11383   6.177   2.489  12.459 -0.3857  0.5267 -0.7888
   8523SM   H5F11384   6.085   2.551  12.471 -1.1758 -0.8632  0.7413
   8523SM   H5G11385   6.258   2.564  12.452  0.3320 -0.2552 -1.1435
   8523SM   C6F11386   6.201   2.410  12.586 -0.0398  0.8282 -0.2478
   8523SM   H6F11387   6.308   2.380  12.586 -0.7264 -1.9733  0.5146
   8523SM   H6G11388   6.138   2.318  12.589 -1.1421  1.5985  1.3799
   8523SM   C7F11389   6.176   2.486  12.718  1.2824  0.6082 -0.1925
   8523SM   H7F11390   6.066   2.495  12.703  1.4121  0.6883 -1.1394
   8523SM   H7G11391   6.234   2.581  12.720  1.2005  0.6504  0.9688
   8523SM   C8F11392   6.192   2.404  12.845  0.0629 -0.3843  0.3387
   8523SM   H8F11393   6.290   2.354  12.832  1.2933  1.3325  2.4537
   8523SM   H8G11394   6.110   2.330  12.860 -0.7016  0.1071 -1.1646
   8523SM   C9F11395   6.180   2.502  12.970 -0.2994  0.1524 -0.8522
   8523SM   H9F11396   6.078   2.547  12.970 -1.0429 -1.4886 -0.6648
   8523SM   H9G11397   6.257   2.581  12.949  2.1823 -1.0771  2.7755
   8523SM  C10F11398   6.205   2.414  13.099  0.4481  0.4186  1.1216
   8523SM  H10F11399   6.301   2.362  13.080 -0.7134 -1.7342  0.8307
   8523SM  H10G11400   6.128   2.334  13.095  0.4706  0.4325  0.1325
   8523SM  C11F11401   6.197   2.478  13.233  0.4293 -0.0344  0.9086
   8523SM  H11F11402   6.098   2.527  13.248 -0.8037 -2.2522  0.4113
   8523SM  H11G11403   6.276   2.555  13.245  0.3689  0.2110 -0.1668
   8523SM  C12F11404   6.221   2.384  13.361 -0.3643 -0.1475 -0.0062
   8523SM  H12F11405   6.328   2.353  13.363  0.6201  2.9576 -0.0351
   8523SM  H12G11406   6.149   2.299  13.361 -0.9727  0.2834 -2.8519
   8523SM  C13F11407   6.206   2.462  13.496 -0.2262 -0.4064 -0.0386
   8523SM  H13F11408   6.110   2.515  13.511 -0.5625 -0.6453 -1.2132
   8523SM  H13G11409   6.276   2.549  13.491  0.8893 -1.3453 -1.9754
   8523SM  C14F11410   6.231   2.387  13.619 -0.6143 -0.2427  0.8102
   8523SM  H14F11411   6.168   2.295  13.618  2.9226 -2.9224 -0.9851
   8523SM  H14G11412   6.199   2.456  13.700  0.0155 -1.4072  2.1157
   8523SM  C15F11413   6.374   2.353  13.656  0.2950  0.2039 -0.8545
   8523SM  H15F11414   6.445   2.438  13.655  1.7898 -0.9875 -0.3917
   8523SM  H15G11415   6.398   2.267  13.590 -0.7998 -0.1631 -0.8018
   8523SM  C16F11416   6.370   2.284  13.802  1.3969  0.3278  0.1103
   8523SM  H16F11417   6.281   2.217  13.802  0.0953  1.9804  0.9653
   8523SM  H16G11418   6.350   2.367  13.873  0.2159 -0.3866  0.6339
   8523SM  C17F11419   6.491   2.216  13.855 -1.0226  0.6318  0.7369
   8523SM  H17F11420   6.584   2.270  13.828 -0.7356  1.0527  2.4822
   8523SM  H17G11421   6.493   2.113  13.813  0.6462  0.5027  1.0670
   8523SM  C18F11422   6.480   2.196  14.004 -0.0839 -0.2045 -0.8001
   8523SM  H18F11423   6.389   2.138  14.031 -0.8019  1.5122  0.6989
   8523SM  H18G11424   6.458   2.290  14.060 -0.3568 -0.1792 -0.9506
   8523SM  C19F11425   6.588   2.111  14.066 -0.6054  0.3941 -0.3860
   8523SM  H19F11426   6.685   2.147  14.026 -0.5326  0.9385  0.2633
   8523SM  H19G11427   6.576   2.004  14.041  0.3045  0.1739  0.0803
   8523SM  C20F11428   6.588   2.124  14.211 -0.0592 -0.4409 -0.3858
   8523SM  H20F11429   6.489   2.102  14.256  0.3954 -0.9418  0.3966
   8523SM  H20G11430   6.610   2.228  14.244  0.3313  0.0353 -2.0512
   8523SM  C21F11431   6.685   2.037  14.291  0.3841  0.2541 -0.3894
   8523SM  H21F11432   6.782   2.037  14.236 -0.0457  0.5182 -1.1576
   8523SM  H21G11433   6.638   1.938  14.277 -0.0298  0.5920 -1.5493
   8523SM  C22F11434   6.697   2.079  14.436 -0.2081  0.2961  0.1355
   8523SM  H22F11435   6.734   2.183  14.436 -0.9264  0.5602  0.7784
   8523SM  H22G11436   6.770   2.017  14.492  0.8336  0.9606 -0.4517
   8523SM  C23F11437   6.559   2.074  14.510  0.5842  0.7783  0.5217
   8523SM  H23F11438   6.523   1.970  14.495  2.7846 -0.2114  1.5275
   8523SM  H23G11439   6.471   2.118  14.458 -1.1399 -3.0832 -0.1780
   8523SM  H23H11440   6.566   2.103  14.617 -2.1750  5.2358 -0.2564
   8623SM     N11441   3.541   6.114  12.038  0.0583  0.0042  0.7057
   8623SM   C1511442   3.473   6.008  12.117  0.5555  0.1232 -0.1738
   8623SM  H15A11443   3.434   5.934  12.048 -1.2727  1.3626 -0.5347
   8623SM  H15B11444   3.387   6.052  12.165 -2.0043 -1.8789 -2.5556
   8623SM  H15C11445   3.541   5.964  12.188  0.7227  1.3836  0.4772
   8623SM   C1411446   3.663   6.059  11.969 -0.1966 -0.7773  0.2934
   8623SM  H14A11447   3.729   6.135  11.930 -1.3084 -0.3071 -0.7268
   8623SM  H14B11448   3.649   5.976  11.901 -0.9327 -1.3403  1.1077
   8623SM  H14C11449   3.721   6.011  12.047  0.0555 -2.0114 -0.6157
   8623SM   C1311450   3.449   6.170  11.934 -0.1198 -0.0996  0.3052
   8623SM  H13A11451   3.508   6.233  11.868  1.1343  0.9499  2.3307
   8623SM  H13B11452   3.367   6.226  11.974  0.7093  1.5029 -0.1388
   8623SM  H13C11453   3.411   6.089  11.873 -0.5198  0.6521 -0.4634
   8623SM   C1211454   3.576   6.228  12.129 -0.3334 -0.6955  0.9621
   8623SM  H12A11455   3.661   6.189  12.184  1.4412 -0.8506 -1.7151
   8623SM  H12B11456   3.490   6.248  12.192  0.2480  0.2048  1.4924
   8623SM   C1111457   3.633   6.358  12.064  0.2499  0.3091  0.3284
   8623SM  H11A11458   3.700   6.332  11.980  1.6458 -2.6520  2.1810
   8623SM  H11B11459   3.703   6.402  12.138 -0.9561 -0.9617  2.3625
   8623SM     P11460   3.437   6.520  12.119  0.0668  0.0943 -0.1944
   8623SM   O1311461   3.436   6.667  12.100 -0.4588  0.2799 -0.1416
   8623SM   O1411462   3.308   6.444  12.121  0.3678  0.5911 -0.0950
   8623SM   O1111463   3.501   6.491  12.262 -0.3424  0.1066  0.5938
   8623SM   O1211464   3.533   6.450  12.018 -0.2438  0.5518  0.2508
   8623SM   C1S11465   3.570   6.588  12.327  0.0421 -0.0968 -0.7909
   8623SM   H1S11466   3.574   6.684  12.271  0.5818 -0.5316 -1.5238
   8623SM   H1T11467   3.674   6.557  12.351 -0.3301 -0.3794  0.5291
   8623SM    NF11468   3.602   6.708  12.540 -0.8312 -0.0434  0.2572
   8623SM   HNF11469   3.684   6.671  12.583 -1.3993 -0.6648  0.8528
   8623SM   C2S11470   3.513   6.616  12.472  0.9049  0.3306  0.2038
   8623SM   H2S11471   3.413   6.663  12.459 -0.2116 -2.4469 -2.4386
   8623SM   C3S11472   3.488   6.477  12.550 -0.6521 -0.0740  0.0524
   8623SM   H3S11473   3.592   6.438  12.554 -0.6912 -0.0603  2.3786
   8623SM    O311474   3.403   6.383  12.486  0.0594 -0.0034  1.5382
   8623SM   HO311475   3.384   6.431  12.405  1.5011 -2.5615 -0.5120
   8623SM   C4S11476   3.451   6.516  12.692  0.3777 -0.1919 -0.4940
   8623SM   H4S11477   3.347   6.537  12.723  1.1842  1.6335  1.1644
   8623SM   C5S11478   3.536   6.503  12.800  0.2770  0.1653  0.1398
   8623SM   H5S11479   3.639   6.470  12.781 -0.1779 -1.1774 -0.0908
   8623SM   C6S11480   3.505   6.535  12.938 -0.4788  0.2575 -0.6773
   8623SM   H6S11481   3.522   6.447  13.004  2.7590  0.6524 -0.8204
   8623SM   H6T11482   3.395   6.548  12.945 -0.4744 -0.3507  1.1894
   8623SM   C7S11483   3.575   6.657  13.006  0.2334  0.0863  0.0698
   8623SM   H7S11484   3.575   6.741  12.933  0.6376 -0.5553 -0.6912
   8623SM   H7T11485   3.683   6.629  13.008  0.2235 -0.1361 -1.3223
   8623SM   C8S11486   3.522   6.707  13.137  0.1034 -0.7661  0.5982
   8623SM   H8S11487   3.524   6.618  13.204  0.4821 -0.3129  1.2036
   8623SM   H8T11488   3.414   6.735  13.135  0.3616  0.3330 -2.0207
   8623SM   C9S11489   3.594   6.829  13.204 -0.0199  0.1492  0.5727
   8623SM   H9S11490   3.600   6.920  13.140 -0.1985  0.4125  0.9282
   8623SM   H9T11491   3.701   6.803  13.211  0.1501  0.2929 -1.1007
   8623SM  C10S11492   3.519   6.876  13.325  0.7291 -0.2044 -0.2665
   8623SM  H10S11493   3.422   6.923  13.296  0.1363  0.3038  2.2870
   8623SM  H10T11494   3.574   6.959  13.375 -0.4779  0.9915 -0.8381
   8623SM  C11S11495   3.480   6.762  13.420  0.3799 -0.2461 -0.1649
   8623SM  H11S11496   3.560   6.685  13.421  0.8399  0.2213  0.1321
   8623SM  H11T11497   3.383   6.722  13.385 -1.0975  2.7110  0.2459
   8623SM  C12S11498   3.450   6.822  13.564 -0.1529 -0.4657  0.4591
   8623SM  H12S11499   3.369   6.898  13.565  1.0553  0.8524  0.7416
   8623SM  H12T11500   3.538   6.884  13.589 -1.8530  1.3255  2.3586
   8623SM  C13S11501   3.436   6.707  13.670  0.2795  0.0511  0.0849
   8623SM  H13S11502   3.504   6.620  13.657 -0.8261 -0.7881 -0.3307
   8623SM  H13T11503   3.333   6.663  13.671 -0.6330  1.8991 -2.6656
   8623SM  C14S11504   3.461   6.755  13.819 -0.3419 -0.1772  0.4451
   8623SM  H14S11505   3.400   6.848  13.824  1.3757  1.0175 -0.1262
   8623SM  H14T11506   3.564   6.791  13.838 -0.4175  0.5552 -0.4519
   8623SM  C15S11507   3.391   6.670  13.928 -0.7477  0.1265 -0.4690
   8623SM  H15S11508   3.413   6.562  13.914  3.2780  0.2546  2.7399
   8623SM  H15T11509   3.280   6.676  13.920 -0.8387  0.1889  0.6663
   8623SM  C16S11510   3.444   6.698  14.074 -0.0872 -0.2197  0.1223
   8623SM  H16S11511   3.410   6.798  14.106  2.3971  0.9301 -0.5892
   8623SM  H16T11512   3.554   6.699  14.054 -0.1474  0.4392 -0.1889
   8623SM  C17S11513   3.404   6.592  14.175 -0.0979  0.6017 -1.1643
   8623SM  H17S11514   3.466   6.504  14.150 -0.4707  0.8339 -3.0491
   8623SM  H17T11515   3.299   6.560  14.154 -0.4416 -0.6324  1.9003
   8623SM  C18S11516   3.429   6.635  14.317  0.5624 -0.0318  0.3548
   8623SM  H18S11517   3.534   6.671  14.318  1.3560 -2.1355  0.0314
   8623SM  H18T11518   3.423   6.547  14.385  0.7589  0.3679  0.8936
   8623SM  H18U11519   3.361   6.716  14.350  1.1257  0.2968  0.7205
   8623SM   C1F11520   3.618   6.838  12.504 -0.4954 -0.6280 -1.0212
   8623SM    OF11521   3.559   6.885  12.408  0.3513 -0.7846  0.3495
   8623SM   C2F11522   3.734   6.909  12.577 -0.1187  0.5044 -0.7917
   8623SM   H2F11523   3.761   7.000  12.520  1.3159  0.6308  0.0245
   8623SM   H2G11524   3.819   6.838  12.566  0.6528  1.6061 -2.2713
   8623SM   C3F11525   3.700   6.926  12.735 -0.3965  0.4829  0.3580
   8623SM   H3F11526   3.708   6.824  12.778  3.0877  0.4733  0.0114
   8623SM   H3G11527   3.601   6.976  12.748 -0.3241  0.9370 -0.7287
   8623SM   C4F11528   3.810   7.012  12.797 -0.2654  0.5694 -0.1234
   8623SM   H4F11529   3.799   7.115  12.757 -0.3237  0.7744  0.3998
   8623SM   H4G11530   3.914   6.980  12.775 -1.1089 -2.2452 -0.3573
   8623SM   C5F11531   3.801   7.029  12.950  0.0538  0.3832 -0.0669
   8623SM   H5F11532   3.778   6.931  12.997 -1.8893  0.6037 -0.4767
   8623SM   H5G11533   3.722   7.096  12.989  1.7226  1.4754  1.6183
   8623SM   C6F11534   3.947   7.063  13.002  0.0651 -0.4947  0.2327
   8623SM   H6F11535   4.007   7.126  12.932  0.2492 -1.1107 -0.1674
   8623SM   H6G11536   4.003   6.968  13.001 -0.2278 -0.6685 -0.0351
   8623SM   C7F11537   3.943   7.141  13.137  0.8979  0.7797  0.0385
   8623SM   H7F11538   3.898   7.240  13.114 -0.6608  0.5520  1.9202
   8623SM   H7G11539   4.049   7.155  13.167  1.1102 -1.7087  0.7185
   8623SM   C8F11540   3.865   7.066  13.251 -0.3780 -0.2349  0.7680
   8623SM   H8F11541   3.894   6.960  13.234 -1.1103 -0.4358  0.7358
   8623SM   H8G11542   3.755   7.078  13.241 -0.3485 -0.2483  0.3966
   8623SM   C9F11543   3.905   7.111  13.400 -0.2695  0.1952 -0.3209
   8623SM   H9F11544   3.871   7.215  13.419 -0.9345 -0.3120  1.5075
   8623SM   H9G11545   4.014   7.117  13.420 -0.5867 -0.5624  1.9489
   8623SM  C10F11546   3.861   7.005  13.511 -0.3243  0.0270 -0.0021
   8623SM  H10F11547   3.924   6.914  13.510 -1.6860 -0.9411 -0.4949
   8623SM  H10G11548   3.756   6.979  13.488  0.3341 -0.7816 -2.3674
   8623SM  C11F11549   3.872   7.077  13.649 -0.0459 -0.5570  0.0872
   8623SM  H11F11550   3.803   7.163  13.654  0.5230 -0.0078 -1.0040
   8623SM  H11G11551   3.974   7.120  13.661 -0.8354  1.5175 -0.2704
   8623SM  C12F11552   3.812   6.983  13.755  0.2430  0.0253  0.2387
   8623SM  H12F11553   3.884   6.898  13.760  0.5547  0.2682 -0.1173
   8623SM  H12G11554   3.710   6.954  13.724  0.7009 -0.1706 -1.1472
   8623SM  C13F11555   3.799   7.047  13.891  0.4773 -0.3617  0.1100
   8623SM  H13F11556   3.741   7.140  13.871 -0.0799 -0.6417  0.4017
   8623SM  H13G11557   3.900   7.087  13.916  0.1456  1.2842 -1.0305
   8623SM  C14F11558   3.736   6.962  13.998 -0.4817  0.4255 -0.0166
   8623SM  H14F11559   3.789   6.865  14.001  1.0114  1.2432  1.6881
   8623SM  H14G11560   3.627   6.950  13.981 -0.1478 -1.5374 -1.0143
   8623SM  C15F11561   3.750   7.020  14.141 -0.1381 -0.2325 -0.1073
   8623SM  H15F11562   3.694   7.115  14.133  0.5087  0.3278  1.4653
   8623SM  H15G11563   3.855   7.047  14.168  0.7183 -2.9239 -0.4157
   8623SM  C16F11564   3.684   6.935  14.248  0.1317  1.0236  0.3425
   8623SM  H16F11565   3.745   6.842  14.254 -2.1060 -0.4515  2.5570
   8623SM  H16G11566   3.579   6.903  14.229  0.2028  1.2311 -0.4307
   8623SM  C17F11567   3.688   6.990  14.392 -0.8235 -0.1269 -0.2268
   8623SM  H17F11568   3.632   7.086  14.384 -2.6148 -1.2402 -2.2717
   8623SM  H17G11569   3.790   7.011  14.430 -1.1645  1.6227 -0.1654
   8623SM  C18F11570   3.612   6.905  14.494  0.5226  0.2533  0.0051
   8623SM  H18F11571   3.651   6.803  14.473  0.6343 -0.3666  2.8651
   8623SM  H18G11572   3.504   6.904  14.468  0.3958 -2.4134  0.4011
   8623SM  C19F11573   3.617   6.931  14.646 -0.5095 -0.4874 -0.3932
   8623SM  H19F11574   3.583   7.036  14.656 -0.7786 -0.7823  2.4837
   8623SM  H19G11575   3.723   6.939  14.679  0.3934  0.7294 -3.2359
   8623SM  C20F11576   3.526   6.832  14.722 -0.5685 -0.3501 -0.4904
   8623SM  H20F11577   3.437   6.824  14.656 -2.8631  2.5953  1.9234
   8623SM  H20G11578   3.493   6.893  14.809  1.4591  0.0892  0.0097
   8623SM  C21F11579   3.582   6.693  14.755  0.2449 -0.5312 -0.2364
   8623SM  H21F11580   3.647   6.712  14.843 -1.2775  0.7570  0.6634
   8623SM  H21G11581   3.643   6.646  14.676 -0.5904 -2.0598 -0.0068
   8623SM  C22F11582   3.472   6.601  14.805 -0.3646  0.4086 -0.2285
   8623SM  H22F11583   3.410   6.639  14.889 -2.8250 -2.1722 -0.7314
   8623SM  H22G11584   3.518   6.506  14.841 -1.3383 -0.5231 -1.3549
   8623SM  C23F11585   3.393   6.558  14.685  0.2331 -0.7981  0.9703
   8623SM  H23F11586   3.315   6.634  14.667  0.5132 -0.6765  0.2568
   8623SM  H23G11587   3.342   6.459  14.696 -0.4604 -0.2951  2.6290
   8623SM  H23H11588   3.453   6.552  14.592 -0.4521  0.1155  0.4629
   8723SM     N11589   4.644   1.039  12.002 -0.4021 -0.4731  0.0082
   8723SM   C1511590   4.561   1.094  11.893 -0.1690 -0.3097  0.4214
   8723SM  H15A11591   4.454   1.086  11.902 -0.4134  0.2792 -1.5087
   8723SM  H15B11592   4.570   1.035  11.803 -0.4480  0.2556  0.0185
   8723SM  H15C11593   4.579   1.198  11.872  0.0358 -0.3147  0.5700
   8723SM   C1411594   4.778   1.014  11.943  0.0387 -0.1947 -0.3758
   8723SM  H14A11595   4.829   1.095  11.894 -0.0809  0.9735  1.3524
   8723SM  H14B11596   4.770   0.946  11.860 -1.5716 -0.1466 -0.2911
   8723SM  H14C11597   4.845   0.965  12.012  2.8128 -0.4958 -3.0957
   8723SM   C1311598   4.648   1.142  12.113 -0.1908  0.2330  0.2109
   8723SM  H13A11599   4.695   1.237  12.092  2.9447 -1.3177 -0.3064
   8723SM  H13B11600   4.705   1.097  12.193 -0.8019  0.4994  0.8088
   8723SM  H13C11601   4.548   1.152  12.155  0.1638  0.6978  0.9642
   8723SM   C1211602   4.579   0.918  12.057 -0.9004  0.2670 -0.6533
   8723SM  H12A11603   4.553   0.850  11.977  1.2315 -1.6060  0.1455
   8723SM  H12B11604   4.487   0.955  12.100 -0.7534 -0.8102  0.6533
   8723SM   C1111605   4.646   0.844  12.180 -0.6392 -0.0023  0.4172
   8723SM  H11A11606   4.735   0.789  12.143 -0.8679  0.1363 -0.3653
   8723SM  H11B11607   4.571   0.766  12.204  2.1443 -2.8312  0.5549
   8723SM     P11608   4.689   0.855  12.434  0.1762  0.2519 -0.5309
   8723SM   O1311609   4.593   0.744  12.444  0.8539 -0.5433 -0.2188
   8723SM   O1411610   4.829   0.816  12.462 -0.4415  0.1909  0.2517
   8723SM   O1111611   4.652   0.963  12.538  0.0570 -0.4321  0.2607
   8723SM   O1211612   4.676   0.927  12.297  0.3178  0.7597 -0.2593
   8723SM   C1S11613   4.531   1.042  12.537  0.4448  0.2168  0.7024
   8723SM   H1S11614   4.472   1.016  12.446  0.6545 -0.0814  0.6504
   8723SM   H1T11615   4.564   1.147  12.523  0.0822  0.1114 -1.3160
   8723SM    NF11616   4.339   1.108  12.664 -0.7817  0.1684 -0.8017
   8723SM   HNF11617   4.339   1.191  12.719 -0.1379  0.4659 -1.2466
   8723SM   C2S11618   4.444   1.018  12.667 -0.5158  0.6925 -0.5270
   8723SM   H2S11619   4.412   0.911  12.662  2.4908 -0.3052 -0.5497
   8723SM   C3S11620   4.532   1.037  12.793  0.5094  0.8862 -0.1171
   8723SM   H3S11621   4.551   1.145  12.812  2.0095  0.2132  2.7524
   8723SM    O311622   4.663   0.973  12.798 -0.4424  0.3088 -0.1107
   8723SM   HO311623   4.677   0.940  12.709 -0.6695  0.9260 -0.3856
   8723SM   C4S11624   4.457   0.986  12.924 -0.3875 -0.5806  0.3907
   8723SM   H4S11625   4.485   0.883  12.955  0.8728  0.0799  1.5850
   8723SM   C5S11626   4.403   1.072  13.008  0.4188 -0.9903 -0.6191
   8723SM   H5S11627   4.415   1.177  12.978  1.0326 -1.4020 -1.8809
   8723SM   C6S11628   4.336   1.049  13.137  0.3307  0.0565  0.0337
   8723SM   H6S11629   4.302   0.944  13.143  0.3384 -0.0417 -1.3181
   8723SM   H6T11630   4.241   1.105  13.150  0.1267 -0.1898 -0.3603
   8723SM   C7S11631   4.431   1.068  13.255  0.1216  0.0978  0.2813
   8723SM   H7S11632   4.463   1.174  13.247 -0.2080  0.1688 -0.1382
   8723SM   H7T11633   4.523   1.007  13.245  0.4399  0.7043 -0.6706
   8723SM   C8S11634   4.365   1.035  13.387 -0.6343  0.3139 -0.3194
   8723SM   H8S11635   4.350   0.926  13.402  0.8082  0.2404  0.7767
   8723SM   H8T11636   4.265   1.084  13.392 -1.0145 -0.2242 -1.9640
   8723SM   C9S11637   4.442   1.074  13.511 -0.3024 -0.4224 -0.4960
   8723SM   H9S11638   4.460   1.183  13.499 -1.4286  0.3232  3.4150
   8723SM   H9T11639   4.536   1.014  13.518 -0.9553 -1.5248 -0.8056
   8723SM  C10S11640   4.349   1.070  13.632  0.4489  0.5342  0.4435
   8723SM  H10S11641   4.307   0.967  13.638 -1.7241  1.3671  0.5220
   8723SM  H10T11642   4.259   1.134  13.617  0.2864  0.1001 -0.5301
   8723SM  C11S11643   4.417   1.091  13.760  0.4956 -0.2954 -0.2721
   8723SM  H11S11644   4.435   1.201  13.754 -0.2594 -0.2394 -2.6766
   8723SM  H11T11645   4.517   1.043  13.763  1.1002  0.9714  0.4273
   8723SM  C12S11646   4.328   1.057  13.885  0.5447  0.6971  0.3379
   8723SM  H12S11647   4.308   0.950  13.862 -0.6503  1.1204 -0.7142
   8723SM  H12T11648   4.237   1.120  13.881  0.1453  0.1073 -0.0850
   8723SM  C13S11649   4.383   1.063  14.020 -0.4953 -0.3738 -1.0010
   8723SM  H13S11650   4.406   1.168  14.049 -0.8425 -0.6454  0.3643
   8723SM  H13T11651   4.479   1.009  14.032 -0.6196 -0.2504  0.9668
   8723SM  C14S11652   4.284   1.010  14.127 -0.1934  0.1354  0.3011
   8723SM  H14S11653   4.265   0.903  14.104  1.5078  0.1916 -1.6961
   8723SM  H14T11654   4.191   1.071  14.125 -1.7016 -2.0489 -2.8570
   8723SM  C15S11655   4.355   1.011  14.271  0.8090  0.0111  0.1804
   8723SM  H15S11656   4.451   0.957  14.256 -0.4149 -2.1766 -0.1988
   8723SM  H15T11657   4.293   0.954  14.343  0.1137  1.4303  0.7453
   8723SM  C16S11658   4.380   1.145  14.334 -0.4765 -1.0504 -0.5090
   8723SM  H16S11659   4.280   1.193  14.335 -0.9660 -2.0561 -0.5107
   8723SM  H16T11660   4.425   1.212  14.257 -1.6600 -1.6988 -1.8150
   8723SM  C17S11661   4.445   1.148  14.477  0.2567 -0.0760 -0.4403
   8723SM  H17S11662   4.361   1.095  14.528 -2.5153  1.7098 -2.8043
   8723SM  H17T11663   4.445   1.256  14.502  0.8515  0.7517 -3.5900
   8723SM  C18S11664   4.573   1.079  14.506 -0.3523 -0.8288  0.3154
   8723SM  H18S11665   4.577   0.974  14.469  0.2303 -0.5811 -0.3619
   8723SM  H18T11666   4.605   1.066  14.612  2.3796 -0.0697 -0.3243
   8723SM  H18U11667   4.647   1.149  14.460 -0.9127  0.9788  2.0095
   8723SM   C1F11668   4.240   1.095  12.581 -0.0346  0.4731 -0.8237
   8723SM    OF11669   4.237   1.001  12.503 -0.2805 -0.4360 -0.2208
   8723SM   C2F11670   4.129   1.198  12.575 -0.6901  0.1636  0.0061
   8723SM   H2F11671   4.043   1.163  12.515 -1.5893 -1.7318  2.2515
   8723SM   H2G11672   4.177   1.286  12.526 -1.4987  1.8450  2.0888
   8723SM   C3F11673   4.080   1.231  12.713  0.7845 -0.6317  0.1758
   8723SM   H3F11674   4.163   1.259  12.780 -1.3619  0.5820  2.5207
   8723SM   H3G11675   4.029   1.145  12.763  0.9666  0.2387  1.9184
   8723SM   C4F11676   3.980   1.348  12.725  0.5615 -0.8502 -0.2421
   8723SM   H4F11677   3.911   1.343  12.638  1.1370 -0.2830 -0.7396
   8723SM   H4G11678   4.037   1.443  12.732  0.5607 -0.8355 -0.4298
   8723SM   C5F11679   3.901   1.342  12.858  0.8919  0.1576 -0.7695
   8723SM   H5F11680   3.851   1.243  12.860 -0.1862  0.7015  0.1902
   8723SM   H5G11681   3.822   1.419  12.868  1.6844  1.0330 -1.0979
   8723SM   C6F11682   3.986   1.347  12.985  0.2666  0.3123  0.1056
   8723SM   H6F11683   4.033   1.447  12.990 -1.3656  1.2974 -2.2083
   8723SM   H6G11684   4.059   1.263  12.981  0.0056  0.0627  0.4796
   8723SM   C7F11685   3.911   1.334  13.119  0.1225  0.0177 -0.1952
   8723SM   H7F11686   3.842   1.248  13.114  0.4807 -0.2723 -0.1612
   8723SM   H7G11687   3.841   1.421  13.124 -1.1959 -1.0135 -0.2710
   8723SM   C8F11688   3.995   1.326  13.242 -0.4836  0.3328  0.3662
   8723SM   H8F11689   4.046   1.424  13.254 -1.3811  0.8189  0.3299
   8723SM   H8G11690   4.068   1.244  13.230 -1.1678 -0.1984 -0.2727
   8723SM   C9F11691   3.922   1.302  13.380  0.0332  0.5038  0.7511
   8723SM   H9F11692   3.870   1.204  13.383  1.1242 -0.0761  1.9187
   8723SM   H9G11693   3.846   1.382  13.387  0.1969  0.6354  1.0369
   8723SM  C10F11694   4.005   1.311  13.508 -0.3985  0.2775 -0.4247
   8723SM  H10F11695   4.066   1.404  13.501  1.4583 -0.3498  3.9926
   8723SM  H10G11696   4.076   1.225  13.504 -1.7761 -1.2071  3.1413
   8723SM  C11F11697   3.930   1.321  13.640  0.7905 -0.4149  0.4385
   8723SM  H11F11698   3.848   1.246  13.642  0.1018  0.3212  0.2995
   8723SM  H11G11699   3.885   1.422  13.652 -1.6969 -1.2336 -1.1180
   8723SM  C12F11700   4.014   1.300  13.761  0.6450  0.0684 -0.4862
   8723SM  H12F11701   4.090   1.380  13.768 -1.9966  2.7336 -0.0987
   8723SM  H12G11702   4.069   1.203  13.760  0.9990  0.2586  0.0903
   8723SM  C13F11703   3.927   1.301  13.887 -0.4476 -0.3940 -0.0144
   8723SM  H13F11704   3.860   1.212  13.893 -0.3313 -0.8106 -3.1834
   8723SM  H13G11705   3.857   1.387  13.880 -2.8935 -2.1220  1.3384
   8723SM  C14F11706   4.012   1.327  14.013  0.0329 -0.1164  0.0360
   8723SM  H14F11707   4.060   1.428  14.010  0.0971 -0.1399  0.2463
   8723SM  H14G11708   4.095   1.254  14.020  1.3611  1.2704 -0.5027
   8723SM  C15F11709   3.921   1.320  14.134 -0.9019 -0.1464 -0.5061
   8723SM  H15F11710   3.887   1.216  14.153  0.2438 -0.8259 -1.9935
   8723SM  H15G11711   3.826   1.375  14.122 -0.8596 -0.5146 -3.0038
   8723SM  C16F11712   3.997   1.382  14.257  0.2157 -0.1619  0.1771
   8723SM  H16F11713   4.012   1.489  14.230 -1.4978 -0.2330 -1.2118
   8723SM  H16G11714   4.095   1.332  14.270 -1.1728 -3.4801 -0.9489
   8723SM  C17F11715   3.925   1.381  14.390 -0.0494 -1.2425  0.3429
   8723SM  H17F11716   3.833   1.441  14.372  1.9002  2.1418  0.7136
   8723SM  H17G11717   3.996   1.434  14.458  1.1688 -1.7309 -0.5172
   8723SM  C18F11718   3.901   1.249  14.447  0.4552 -0.4047 -0.5370
   8723SM  H18F11719   3.997   1.196  14.462  0.5834 -0.3877 -1.2445
   8723SM  H18G11720   3.843   1.181  14.380 -2.5981  0.6909  0.7803
   8723SM  C19F11721   3.829   1.259  14.582  0.5050  0.0229  0.2995
   8723SM  H19F11722   3.726   1.301  14.577  0.1782 -0.8508 -0.5712
   8723SM  H19G11723   3.888   1.338  14.632 -0.0959  0.3795  0.4620
   8723SM  C20F11724   3.843   1.132  14.667 -0.0033  0.2731 -0.2680
   8723SM  H20F11725   3.942   1.082  14.671  0.2484  0.7181 -0.8311
   8723SM  H20G11726   3.777   1.048  14.637  0.9055 -1.5817  2.5570
   8723SM  C21F11727   3.812   1.155  14.820  0.4097 -0.4496  0.1601
   8723SM  H21F11728   3.716   1.208  14.838  1.1477  0.2116  2.4747
   8723SM  H21G11729   3.891   1.214  14.872  0.6460 -1.7556  1.3352
   8723SM  C22F11730   3.795   1.028  14.912  0.1485  0.8876 -0.5886
   8723SM  H22F11731   3.896   0.982  14.902  0.5417  1.6331 -0.1583
   8723SM  H22G11732   3.718   0.964  14.862 -0.3905  1.7909 -0.9319
   8723SM  C23F11733   3.780   1.061  15.063  0.0047  0.7994 -0.3725
   8723SM  H23F11734   3.855   1.139  15.087  0.9884 -0.1677 -0.1989
   8723SM  H23G11735   3.809   0.978  15.131  0.9006  0.0119 -1.6441
   8723SM  H23H11736   3.676   1.094  15.079 -0.9367 -0.4763 -3.1983
   8823SM     N11737   2.507   0.868  12.097  0.4109 -0.1103  0.7779
   8823SM   C1511738   2.397   0.861  11.996 -0.0298  0.0205  0.0398
   8823SM  H15A11739   2.429   0.898  11.899  1.2433  0.0415  0.4559
   8823SM  H15B11740   2.311   0.921  12.022 -0.8848 -1.1028 -0.1499
   8823SM  H15C11741   2.362   0.759  11.986  1.1699 -0.4907  0.8837
   8823SM   C1411742   2.472   0.802  12.222 -0.4998  0.5410 -0.0570
   8823SM  H14A11743   2.450   0.697  12.207  0.6886  0.1218  0.9382
   8823SM  H14B11744   2.388   0.847  12.273 -0.2629 -0.5937  1.4083
   8823SM  H14C11745   2.547   0.809  12.300 -0.8994 -1.7857  0.6219
   8823SM   C1311746   2.629   0.799  12.039 -0.2146 -0.0530  0.0503
   8823SM  H13A11747   2.713   0.808  12.105  1.0884  2.0590 -1.7623
   8823SM  H13B11748   2.660   0.841  11.945  1.0676 -0.8011  0.1210
   8823SM  H13C11749   2.611   0.692  12.029  1.1609 -0.2843 -0.0770
   8823SM   C1211750   2.546   1.011  12.117  0.7542 -0.2301  0.3375
   8823SM  H12A11751   2.594   1.057  12.032  1.4896 -0.4161  0.6437
   8823SM  H12B11752   2.618   1.006  12.198 -0.9651 -0.1584  1.9320
   8823SM   C1111753   2.434   1.112  12.158  0.3548  0.0859  0.3430
   8823SM  H11A11754   2.484   1.205  12.193  0.6812  1.2158 -2.8719
   8823SM  H11B11755   2.384   1.072  12.249 -0.5845 -0.0847 -0.2439
   8823SM     P11756   2.325   1.255  11.967 -0.6092 -0.2736  0.1707
   8823SM   O1311757   2.452   1.298  11.910 -0.1215  0.1143  0.1312
   8823SM   O1411758   2.209   1.226  11.882 -0.0201  0.0202  0.2457
   8823SM   O1111759   2.285   1.354  12.083  0.2826 -0.0013 -0.4853
   8823SM   O1211760   2.345   1.127  12.051  0.3359 -0.3074 -0.1347
   8823SM   C1S11761   2.175   1.324  12.164 -0.5256  0.0909 -0.0236
   8823SM   H1S11762   2.135   1.221  12.158 -0.0197 -0.0631 -1.0107
   8823SM   H1T11763   2.088   1.383  12.126  0.6575  0.8322 -1.7324
   8823SM    NF11764   2.103   1.341  12.397  0.2512 -0.0382 -0.7353
   8823SM   HNF11765   2.038   1.411  12.422  1.2028  1.0468 -1.2175
   8823SM   C2S11766   2.203   1.380  12.305  0.2122 -0.0104  0.2845
   8823SM   H2S11767   2.296   1.324  12.328  0.0386 -0.5159 -0.2246
   8823SM   C3S11768   2.229   1.533  12.294 -0.5317  0.5836 -0.1721
   8823SM   H3S11769   2.145   1.577  12.235 -0.8504  0.6313  0.3146
   8823SM    O311770   2.338   1.571  12.212  0.2239 -0.7259  0.0697
   8823SM   HO311771   2.349   1.490  12.161 -1.0266 -0.1962 -1.1047
   8823SM   C4S11772   2.231   1.608  12.426  0.5740 -0.0640 -0.6996
   8823SM   H4S11773   2.142   1.668  12.445  0.4342 -0.6835  0.7372
   8823SM   C5S11774   2.339   1.614  12.505 -0.3251 -0.1755  0.3762
   8823SM   H5S11775   2.433   1.571  12.468  0.4837  1.4540  0.4514
   8823SM   C6S11776   2.354   1.671  12.642 -0.2981 -0.0873  0.2283
   8823SM   H6S11777   2.419   1.760  12.634  0.9691 -0.7896  2.0653
   8823SM   H6T11778   2.415   1.592  12.691 -1.0095 -1.8265 -1.5208
   8823SM   C7S11779   2.225   1.682  12.720 -0.6113  0.2620  0.2791
   8823SM   H7S11780   2.169   1.586  12.721  0.4232 -0.3528  0.4615
   8823SM   H7T11781   2.159   1.758  12.672 -1.2780 -0.7142 -0.3751
   8823SM   C8S11782   2.251   1.755  12.854  0.4062  0.1546  0.3129
   8823SM   H8S11783   2.317   1.841  12.827 -1.9326  2.1163  0.5429
   8823SM   H8T11784   2.302   1.686  12.925 -0.4641 -2.4216 -1.4368
   8823SM   C9S11785   2.119   1.800  12.927 -1.4341 -0.0998  0.6567
   8823SM   H9S11786   2.071   1.701  12.946  0.0842 -1.3027 -1.3349
   8823SM   H9T11787   2.055   1.861  12.860 -2.6717 -1.4855  0.5212
   8823SM  C10S11788   2.139   1.866  13.069  0.6770 -0.1076 -0.4125
   8823SM  H10S11789   2.046   1.879  13.127  1.0840 -1.4367  0.6056
   8823SM  H10T11790   2.187   1.966  13.059  3.1644 -1.1536  0.1395
   8823SM  C11S11791   2.231   1.794  13.166  0.1376  1.2528  0.0371
   8823SM  H11S11792   2.335   1.786  13.128  0.3116  2.0255  0.3414
   8823SM  H11T11793   2.196   1.689  13.180  1.3311  0.6056 -1.4959
   8823SM  C12S11794   2.237   1.861  13.298  0.2848  0.3155 -0.3502
   8823SM  H12S11795   2.132   1.887  13.323  0.9219  0.2935  2.7217
   8823SM  H12T11796   2.301   1.950  13.285  0.7560 -0.3678 -3.5713
   8823SM  C13S11797   2.299   1.770  13.407  0.9243 -0.7985 -0.2133
   8823SM  H13S11798   2.406   1.744  13.392  0.5798 -2.3328 -0.1343
   8823SM  H13T11799   2.240   1.676  13.408 -0.3989  0.0004  1.0651
   8823SM  C14S11800   2.281   1.828  13.545 -0.0201 -0.3469 -0.7565
   8823SM  H14S11801   2.174   1.858  13.551  0.4420  1.0329  2.8250
   8823SM  H14T11802   2.340   1.922  13.553  0.5994 -0.8330  0.8126
   8823SM  C15S11803   2.310   1.738  13.660 -1.2073  0.1672 -1.1087
   8823SM  H15S11804   2.407   1.686  13.651 -1.2311  0.0602 -0.7713
   8823SM  H15T11805   2.237   1.656  13.679  0.7416 -1.3719  0.1640
   8823SM  C16S11806   2.319   1.824  13.795  0.8548 -0.4718  0.0866
   8823SM  H16S11807   2.216   1.842  13.835 -0.0443 -0.6743 -2.0143
   8823SM  H16T11808   2.372   1.921  13.785  0.3120  0.0829  2.0854
   8823SM  C17S11809   2.382   1.737  13.913  0.0322 -0.4178  0.2742
   8823SM  H17S11810   2.492   1.720  13.906  0.3389  0.4832  2.1540
   8823SM  H17T11811   2.347   1.633  13.904  0.6820 -0.5223 -1.5206
   8823SM  C18S11812   2.366   1.806  14.037  1.3437 -0.5168 -0.2010
   8823SM  H18S11813   2.407   1.909  14.043  0.4631 -0.2278  2.3986
   8823SM  H18T11814   2.395   1.753  14.130 -2.5897  2.4815  3.1269
   8823SM  H18U11815   2.258   1.825  14.054  1.4112 -0.8169  0.6418
   8823SM   C1F11816   2.104   1.221  12.447  0.5136 -0.0787 -0.1517
   8823SM    OF11817   2.192   1.142  12.429 -0.6794  0.1878  0.1482
   8823SM   C2F11818   1.980   1.180  12.520  0.8744 -0.4118 -0.7333
   8823SM   H2F11819   1.975   1.070  12.535 -0.2623 -0.3459 -0.5676
   8823SM   H2G11820   1.888   1.197  12.461  0.5655 -3.5926 -1.3736
   8823SM   C3F11821   1.971   1.252  12.660  0.1834 -0.0075  0.4068
   8823SM   H3F11822   1.871   1.236  12.704  0.0292 -1.2202 -0.3446
   8823SM   H3G11823   1.976   1.361  12.640 -0.2276 -0.4422 -2.5144
   8823SM   C4F11824   2.082   1.210  12.750  0.1305  0.3082 -0.4831
   8823SM   H4F11825   2.176   1.215  12.691 -0.0307 -0.5181 -0.8325
   8823SM   H4G11826   2.076   1.103  12.779  0.6766  0.1493 -0.9313
   8823SM   C5F11827   2.090   1.289  12.884  0.8752 -0.0217  0.3552
   8823SM   H5F11828   1.986   1.292  12.924  0.8333  0.5295  0.2093
   8823SM   H5G11829   2.122   1.395  12.873 -0.0867  0.3259  0.7446
   8823SM   C6F11830   2.167   1.218  12.999  0.7768  0.4471 -0.3949
   8823SM   H6F11831   2.260   1.177  12.954  1.3576  1.0928  0.2176
   8823SM   H6G11832   2.105   1.132  13.033  0.1943  0.6943 -0.8078
   8823SM   C7F11833   2.179   1.306  13.124 -0.0330  0.0564 -0.0641
   8823SM   H7F11834   2.239   1.398  13.106 -0.6461  0.6432  0.7909
   8823SM   H7G11835   2.236   1.253  13.204  0.2683  1.2874  0.5673
   8823SM   C8F11836   2.041   1.338  13.193 -0.8245 -0.6363 -0.4378
   8823SM   H8F11837   1.970   1.253  13.195  0.2388 -1.5754 -1.0809
   8823SM   H8G11838   2.006   1.415  13.121 -0.0363 -2.4925 -2.9431
   8823SM   C9F11839   2.059   1.383  13.342 -0.2446 -1.0117  0.7311
   8823SM   H9F11840   1.973   1.448  13.368 -0.4252  0.2807 -2.6014
   8823SM   H9G11841   2.142   1.457  13.338  0.2283 -1.5638  0.1080
   8823SM  C10F11842   2.083   1.265  13.437 -0.4280 -0.2500  0.5116
   8823SM  H10F11843   2.173   1.217  13.394  0.5856  1.9572  0.0200
   8823SM  H10G11844   1.998   1.197  13.414 -0.1871 -0.5868  0.6131
   8823SM  C11F11845   2.090   1.296  13.581  0.4275 -0.2347  0.3060
   8823SM  H11F11846   2.049   1.206  13.630 -2.8322  0.2042 -1.3681
   8823SM  H11G11847   2.022   1.382  13.597  1.2437  0.4276  0.3396
   8823SM  C12F11848   2.220   1.352  13.633 -0.0730 -0.3069  0.5547
   8823SM  H12F11849   2.241   1.446  13.576 -3.3589  0.7896  0.9336
   8823SM  H12G11850   2.303   1.278  13.629  0.5754  0.3684  1.2492
   8823SM  C13F11851   2.188   1.398  13.779 -0.5188  0.3547  0.0988
   8823SM  H13F11852   2.110   1.476  13.792  0.5041  1.5947 -0.9124
   8823SM  H13G11853   2.285   1.447  13.805  0.2693 -1.4501  0.7371
   8823SM  C14F11854   2.179   1.276  13.871 -0.3303 -0.3064  0.0849
   8823SM  H14F11855   2.260   1.205  13.843  1.0791  1.2602 -0.0324
   8823SM  H14G11856   2.088   1.217  13.849  0.1741 -0.1773 -2.6396
   8823SM  C15F11857   2.174   1.330  14.014  0.4403  0.0499  0.3865
   8823SM  H15F11858   2.086   1.397  14.030  0.8838  1.1475 -1.3956
   8823SM  H15G11859   2.269   1.389  14.018 -0.4984  1.9192 -2.1090
   8823SM  C16F11860   2.171   1.213  14.114  0.5186 -0.5915  0.1513
   8823SM  H16F11861   2.266   1.159  14.094  1.6205  0.9954  0.9021
   8823SM  H16G11862   2.090   1.145  14.079  0.7021 -0.5384 -0.3998
   8823SM  C17F11863   2.153   1.251  14.261  0.2526  0.3094  0.2686
   8823SM  H17F11864   2.071   1.326  14.268  0.4608  0.8579 -2.2338
   8823SM  H17G11865   2.240   1.310  14.297  1.2988 -0.5565 -0.7756
   8823SM  C18F11866   2.107   1.127  14.346  0.0610 -0.4113  0.7448
   8823SM  H18F11867   2.037   1.059  14.293 -0.2986  0.6994 -0.2627
   8823SM  H18G11868   2.051   1.165  14.435 -2.4024 -1.0287 -0.4378
   8823SM  C19F11869   2.218   1.029  14.391  0.1463  0.4664 -0.5956
   8823SM  H19F11870   2.308   1.084  14.425  0.0535 -0.5045  1.3432
   8823SM  H19G11871   2.252   0.970  14.303  0.0380  2.2525 -1.8730
   8823SM  C20F11872   2.171   0.933  14.507 -0.3733 -0.5788 -0.6464
   8823SM  H20F11873   2.146   1.001  14.591  0.8823  0.2970 -0.9632
   8823SM  H20G11874   2.257   0.869  14.534  1.0494  1.5416  0.0829
   8823SM  C21F11875   2.033   0.862  14.478 -0.6013 -0.0985 -0.5467
   8823SM  H21F11876   2.043   0.820  14.375  2.4896 -1.4870  0.1968
   8823SM  H21G11877   1.942   0.925  14.465 -0.5205 -0.6124 -5.3890
   8823SM  C22F11878   2.002   0.738  14.563  0.4094  0.6772  0.0552
   8823SM  H22F11879   1.999   0.757  14.673  2.2610 -0.3120  0.3200
   8823SM  H22G11880   2.085   0.665  14.554 -0.9800 -0.9975  0.3418
   8823SM  C23F11881   1.872   0.673  14.517  0.2317 -0.7938  0.4306
   8823SM  H23F11882   1.839   0.594  14.588  0.7439  0.7361  2.4938
   8823SM  H23G11883   1.881   0.635  14.413 -2.5211  2.6250 -1.2574
   8823SM  H23H11884   1.796   0.753  14.515 -0.1460 -1.0732  2.0143
   8923SM     N11885   5.307   0.889  11.894 -0.4692  0.1980  0.2821
   8923SM   C1511886   5.394   0.904  11.771  0.6920  0.5198 -0.7111
   8923SM  H15A11887   5.353   0.848  11.689 -0.0947  1.4784 -0.9837
   8923SM  H15B11888   5.494   0.866  11.789  0.2710 -0.9650 -1.3351
   8923SM  H15C11889   5.391   1.005  11.733  0.0440  0.9655  0.4586
   8923SM   C1411890   5.187   0.979  11.878  0.7408 -0.3153  0.0671
   8923SM  H14A11891   5.140   0.988  11.976  0.1024 -0.1158 -0.2486
   8923SM  H14B11892   5.108   0.954  11.809 -0.7515  3.9869 -0.1226
   8923SM  H14C11893   5.216   1.080  11.853  2.0946 -0.5425  0.6299
   8923SM   C1311894   5.257   0.744  11.894  0.1065 -0.3517 -0.0721
   8923SM  H13A11895   5.191   0.728  11.809  2.2929 -0.5741 -1.8110
   8923SM  H13B11896   5.187   0.724  11.974 -1.6268 -0.9757 -1.6556
   8923SM  H13C11897   5.337   0.673  11.904  0.9217  0.4380 -0.8042
   8923SM   C1211898   5.382   0.926  12.021 -0.1808 -0.2431 -0.2475
   8923SM  H12A11899   5.438   1.017  12.007  1.0346 -0.2543  3.5883
   8923SM  H12B11900   5.457   0.849  12.034  1.5462  1.3473 -0.3590
   8923SM   C1111901   5.298   0.946  12.150  0.0074 -0.0101 -0.1433
   8923SM  H11A11902   5.239   0.856  12.179 -2.1664  1.8714  1.6722
   8923SM  H11B11903   5.229   1.033  12.140 -0.3133  0.0216  2.0045
   8923SM     P11904   5.447   1.105  12.307 -0.2321  0.1880 -0.1113
   8923SM   O1311905   5.575   1.123  12.244 -0.1904 -0.6461 -0.1961
   8923SM   O1411906   5.346   1.210  12.295  0.4015 -0.6319 -0.4160
   8923SM   O1111907   5.476   1.074  12.468  0.3280  0.5573 -0.4613
   8923SM   O1211908   5.387   0.970  12.260 -0.1987  0.1780 -0.3368
   8923SM   C1S11909   5.377   0.983  12.524 -0.0680  0.7311 -0.2255
   8923SM   H1S11910   5.404   0.881  12.489 -0.3962 -0.1652  1.9839
   8923SM   H1T11911   5.272   1.003  12.494 -0.2150 -1.5361 -1.3843
   8923SM    NF11912   5.305   0.861  12.735  0.3238  0.0390 -0.3974
   8923SM   HNF11913   5.213   0.884  12.766 -0.4571 -1.0627 -1.8077
   8923SM   C2S11914   5.386   0.972  12.678 -0.8458  0.3795 -0.1163
   8923SM   H2S11915   5.492   0.939  12.690 -1.1669 -0.6401 -0.0605
   8923SM   C3S11916   5.376   1.113  12.746 -0.2757  0.3914  0.2098
   8923SM   H3S11917   5.272   1.141  12.719 -0.2688 -0.7818 -1.1648
   8923SM    O311918   5.461   1.210  12.700 -0.8472  0.3578 -0.1526
   8923SM   HO311919   5.484   1.178  12.612 -2.8645 -1.7417 -0.0025
   8923SM   C4S11920   5.377   1.101  12.895 -0.2859 -0.6037 -0.5368
   8923SM   H4S11921   5.468   1.058  12.939 -0.6180 -0.8639 -0.0952
   8923SM   C5S11922   5.292   1.149  12.991 -0.4595 -0.5170 -0.1355
   8923SM   H5S11923   5.204   1.202  12.952  0.3964  0.5082 -0.7296
   8923SM   C6S11924   5.297   1.126  13.141 -0.7028 -0.5620  0.3016
   8923SM   H6S11925   5.312   1.224  13.190  0.9241  0.0468 -1.3080
   8923SM   H6T11926   5.391   1.068  13.156 -1.1582 -1.8411 -1.3619
   8923SM   C7S11927   5.177   1.065  13.218 -0.2376 -0.7205 -0.3229
   8923SM   H7S11928   5.152   0.966  13.175 -0.0554 -0.4204 -1.1329
   8923SM   H7T11929   5.083   1.123  13.205  0.4778 -0.1216 -3.9547
   8923SM   C8S11930   5.199   1.052  13.371 -0.6371 -0.2812 -0.4329
   8923SM   H8S11931   5.255   1.145  13.394 -1.7026  0.1723  0.4404
   8923SM   H8T11932   5.275   0.971  13.377  0.2044  0.6183  2.3844
   8923SM   C9S11933   5.088   1.020  13.457 -0.2135 -0.3916 -0.8235
   8923SM   H9S11934   5.037   0.930  13.414 -0.8217 -0.7964  0.6741
   8923SM   H9T11935   5.013   1.101  13.452  1.6282  1.6708  1.9500
   8923SM  C10S11936   5.134   0.982  13.603 -0.0306  0.4473  0.2200
   8923SM  H10S11937   5.219   1.046  13.637  1.1111 -1.1983  0.6001
   8923SM  H10T11938   5.176   0.880  13.587  2.3067  1.3105  0.4933
   8923SM  C11S11939   5.009   0.978  13.701  0.1406 -0.3464 -0.4758
   8923SM  H11S11940   4.909   0.957  13.657 -1.6725  1.3867  2.4951
   8923SM  H11T11941   4.998   1.082  13.738  0.4984 -0.0880 -1.0685
   8923SM  C12S11942   5.030   0.885  13.824  0.4027 -0.1527  0.4401
   8923SM  H12S11943   5.127   0.908  13.873 -0.0704  2.3047  0.3772
   8923SM  H12T11944   5.025   0.780  13.788  2.0782  0.0619 -0.5081
   8923SM  C13S11945   4.913   0.912  13.919  0.4753  0.3700 -0.1243
   8923SM  H13S11946   4.817   0.900  13.866  0.0661  0.6484  0.5390
   8923SM  H13T11947   4.904   1.016  13.955 -2.1025  0.3070 -0.4336
   8923SM  C14S11948   4.909   0.838  14.060 -0.6971  0.3164 -0.6723
   8923SM  H14S11949   4.957   0.738  14.055 -1.0790  0.0954 -0.0866
   8923SM  H14T11950   4.800   0.820  14.075 -0.8819  1.7171 -0.1329
   8923SM  C15S11951   4.958   0.933  14.174 -0.0205 -0.1099  0.8297
   8923SM  H15S11952   4.888   1.018  14.165  0.5746  0.1492 -2.8071
   8923SM  H15T11953   5.062   0.967  14.154  0.3973 -1.2596  0.9582
   8923SM  C16S11954   4.942   0.870  14.315  0.1275  0.2980 -0.1729
   8923SM  H16S11955   5.000   0.775  14.314 -0.0605  0.1805 -1.1043
   8923SM  H16T11956   4.837   0.837  14.327  0.5497 -0.5435  1.3369
   8923SM  C17S11957   4.987   0.969  14.424  1.2129  0.2856  0.1617
   8923SM  H17S11958   4.922   1.058  14.410 -0.2716 -0.6205  0.9876
   8923SM  H17T11959   5.094   0.994  14.408  1.4170 -1.3106 -1.2975
   8923SM  C18S11960   4.969   0.906  14.567 -0.1176 -0.1448  1.0208
   8923SM  H18S11961   4.979   0.977  14.651  2.2302  0.7570  0.0649
   8923SM  H18T11962   5.039   0.821  14.580 -1.7289 -1.2721  2.7189
   8923SM  H18U11963   4.864   0.871  14.578 -0.7452  1.7315  1.3261
   8923SM   C1F11964   5.324   0.727  12.712 -0.2093 -0.7271  0.0034
   8923SM    OF11965   5.411   0.698  12.638 -0.3596  0.1477  0.2751
   8923SM   C2F11966   5.225   0.639  12.766  0.1052  0.2137  0.4299
   8923SM   H2F11967   5.175   0.594  12.677 -1.2108  0.0067  1.2430
   8923SM   H2G11968   5.150   0.695  12.826 -1.0849  0.9823 -1.6599
   8923SM   C3F11969   5.285   0.517  12.835 -0.0770 -0.3397  0.2363
   8923SM   H3F11970   5.363   0.459  12.782  0.0492 -0.4655  0.5541
   8923SM   H3G11971   5.208   0.440  12.856 -1.0109  0.0593 -1.5183
   8923SM   C4F11972   5.354   0.540  12.976 -0.2043  0.8093 -0.2566
   8923SM   H4F11973   5.278   0.550  13.057  0.8468 -0.1588  0.8875
   8923SM   H4G11974   5.417   0.631  12.970 -1.0489  1.4188 -0.1535
   8923SM   C5F11975   5.447   0.421  13.020  0.4598 -0.4520 -0.2821
   8923SM   H5F11976   5.533   0.404  12.952 -0.4043  1.1033 -1.8256
   8923SM   H5G11977   5.383   0.330  13.023 -0.1455 -0.0123  0.2918
   8923SM   C6F11978   5.518   0.423  13.157  0.3082 -0.0316  0.1712
   8923SM   H6F11979   5.601   0.497  13.157  0.3865 -0.1068 -0.8581
   8923SM   H6G11980   5.571   0.329  13.182  0.6120 -0.1904 -1.0083
   8923SM   C7F11981   5.418   0.460  13.270 -0.1577 -0.4203  0.4210
   8923SM   H7F11982   5.318   0.413  13.264 -0.5813  0.1269  2.4678
   8923SM   H7G11983   5.394   0.569  13.267  0.3672 -0.2477  1.7402
   8923SM   C8F11984   5.477   0.447  13.414  0.0907  0.2696  0.1941
   8923SM   H8F11985   5.577   0.496  13.417  0.2983 -0.1258 -0.1277
   8923SM   H8G11986   5.505   0.340  13.419  1.2669  0.5762  0.3969
   8923SM   C9F11987   5.383   0.507  13.525 -0.4890  0.3881 -0.0204
   8923SM   H9F11988   5.281   0.466  13.512 -0.3700 -0.3088  1.0786
   8923SM   H9G11989   5.391   0.615  13.500  0.8915 -0.0883 -1.9041
   8923SM  C10F11990   5.438   0.481  13.668 -0.3869 -0.8113 -0.0005
   8923SM  H10F11991   5.543   0.516  13.680 -1.2557  2.2093 -0.3711
   8923SM  H10G11992   5.434   0.373  13.694 -1.8973 -0.6213  0.6925
   8923SM  C11F11993   5.357   0.565  13.769  0.8849 -0.0050  0.2872
   8923SM  H11F11994   5.260   0.514  13.789  0.5757  0.0128 -1.0256
   8923SM  H11G11995   5.339   0.666  13.727 -2.3588 -0.9253 -0.8275
   8923SM  C12F11996   5.432   0.569  13.909  0.5531  0.0077  0.4926
   8923SM  H12F11997   5.541   0.590  13.895  0.6408 -1.3767 -1.1641
   8923SM  H12G11998   5.430   0.465  13.948 -0.5579  0.0027  0.4577
   8923SM  C13F11999   5.360   0.662  14.011  0.0629 -0.7575  0.8491
   8923SM  H13F12000   5.250   0.653  13.999  0.0072 -1.4761  1.7730
   8923SM  H13G12001   5.384   0.767  13.985 -1.5400 -1.4055 -4.5048
   8923SM  C14F12002   5.382   0.614  14.155 -0.6544  0.4673 -0.5678
   8923SM  H14F12003   5.491   0.605  14.175 -0.3799  2.4014 -0.9790
   8923SM  H14G12004   5.332   0.515  14.169 -0.8853  0.4545 -1.4339
   8923SM  C15F12005   5.327   0.720  14.255 -0.2636  0.1802 -0.1049
   8923SM  H15F12006   5.216   0.712  14.248 -0.3303  0.0158  0.9516
   8923SM  H15G12007   5.347   0.827  14.232 -1.4382  0.7052  1.1950
   8923SM  C16F12008   5.379   0.695  14.399 -0.7376 -0.2537  0.5744
   8923SM  H16F12009   5.320   0.766  14.460 -1.3759 -0.6517  0.4284
   8923SM  H16G12010   5.485   0.728  14.401 -0.7736 -0.1429  0.7023
   8923SM  C17F12011   5.364   0.560  14.452 -0.1088 -0.0873  0.0821
   8923SM  H17F12012   5.436   0.486  14.412 -0.2095 -0.2207  0.1468
   8923SM  H17G12013   5.264   0.516  14.432 -0.6622  0.9644  0.5190
   8923SM  C18F12014   5.378   0.554  14.614  0.2957 -0.3364 -0.2701
   8923SM  H18F12015   5.302   0.622  14.656  0.9359 -0.3537  0.9514
   8923SM  H18G12016   5.473   0.608  14.637  0.3148 -0.7777  0.7133
   8923SM  C19F12017   5.359   0.412  14.681  0.2257  0.0585 -0.3003
   8923SM  H19F12018   5.375   0.444  14.786 -0.3261  0.5454 -0.3614
   8923SM  H19G12019   5.441   0.344  14.648  1.4774  1.1928  0.3444
   8923SM  C20F12020   5.214   0.365  14.667 -0.7627  0.5511 -0.3448
   8923SM  H20F12021   5.199   0.337  14.560 -1.5516  0.4219 -0.2043
   8923SM  H20G12022   5.146   0.447  14.698 -1.3739 -0.0040 -0.2045
   8923SM  C21F12023   5.178   0.244  14.761 -0.6617 -0.2599  0.2328
   8923SM  H21F12024   5.260   0.169  14.757 -1.1706 -0.7816 -0.4292
   8923SM  H21G12025   5.089   0.196  14.715 -0.1627 -1.1313  0.1728
   8923SM  C22F12026   5.130   0.281  14.907  0.3567 -0.7532 -0.5677
   8923SM  H22F12027   5.077   0.379  14.904 -0.6853 -1.2899 -0.0125
   8923SM  H22G12028   5.228   0.284  14.960  1.0918 -1.8423 -1.8006
   8923SM  C23F12029   5.037   0.183  14.975  0.3884  0.1513  0.3126
   8923SM  H23F12030   4.941   0.156  14.926  0.6173  1.4376 -0.9117
   8923SM  H23G12031   5.001   0.232  15.067  0.3012 -1.4610  1.1803
   8923SM  H23H12032   5.088   0.093  15.016 -0.9859 -1.3036 -1.0636
   9023SM     N12033   4.793   1.516  11.467 -0.3830 -0.6897  0.3127
   9023SM   C1512034   4.789   1.371  11.496  0.4762  0.4739  0.0774
   9023SM  H15A12035   4.692   1.335  11.524 -0.0767  1.5444 -0.4149
   9023SM  H15B12036   4.858   1.346  11.575  0.5149  1.0492  0.2264
   9023SM  H15C12037   4.813   1.309  11.410 -1.2078  0.1731 -0.2033
   9023SM   C1412038   4.713   1.553  11.343  0.7559 -1.1615 -0.2681
   9023SM  H14A12039   4.751   1.498  11.258 -1.2750  0.3408 -2.2839
   9023SM  H14B12040   4.725   1.656  11.315 -0.6339 -1.1086 -0.7235
   9023SM  H14C12041   4.609   1.532  11.362  0.9517 -1.4117  0.5962
   9023SM   C1312042   4.738   1.586  11.590 -0.5729 -1.0191 -0.5528
   9023SM  H13A12043   4.777   1.544  11.682  2.0691 -1.2979 -1.7141
   9023SM  H13B12044   4.632   1.567  11.584 -0.5446 -0.8532 -1.9215
   9023SM  H13C12045   4.751   1.692  11.602 -0.0756 -1.2995  1.9773
   9023SM   C1212046   4.940   1.557  11.453  0.2030 -0.4037  0.2390
   9023SM  H12A12047   4.945   1.661  11.424  4.8431 -0.7465 -1.0118
   9023SM  H12B12048   4.978   1.499  11.370  2.6240 -1.5874  2.0670
   9023SM   C1112049   5.039   1.554  11.574 -1.0064  0.0354 -0.1573
   9023SM  H11A12050   5.010   1.621  11.657  0.3486  0.5883 -0.0987
   9023SM  H11B12051   5.131   1.604  11.537 -1.1997  1.0255  0.6612
   9023SM     P12052   5.180   1.410  11.733  0.1378 -0.2152  0.1961
   9023SM   O1312053   5.208   1.265  11.754 -0.0584  0.0350 -0.0260
   9023SM   O1412054   5.296   1.494  11.688 -0.0599  0.2447  0.0565
   9023SM   O1112055   5.120   1.477  11.866  0.1399  0.6201  0.5228
   9023SM   O1212056   5.064   1.416  11.622  0.2706 -0.0264 -0.1539
   9023SM   C1S12057   5.188   1.496  11.990 -0.2362 -0.3233 -0.6635
   9023SM   H1S12058   5.215   1.603  12.006  0.9112 -0.5466 -1.0581
   9023SM   H1T12059   5.284   1.441  11.992  0.4362  0.7609 -1.5525
   9023SM    NF12060   5.202   1.452  12.231 -0.9627 -0.0297 -0.0805
   9023SM   HNF12061   5.239   1.365  12.261  1.0868  1.1189  0.9061
   9023SM   C2S12062   5.111   1.450  12.121 -0.0564  0.0438  1.2169
   9023SM   H2S12063   5.024   1.518  12.133  0.2834  0.4585  1.3572
   9023SM   C3S12064   5.040   1.309  12.098  0.2747 -0.0012  0.3646
   9023SM   H3S12065   5.111   1.232  12.060 -0.8637 -0.0629 -1.8065
   9023SM    O312066   4.932   1.314  12.004 -0.1907 -0.1057 -0.7091
   9023SM   HO312067   4.926   1.406  11.980  1.6838  0.6376  1.3719
   9023SM   C4S12068   4.978   1.253  12.221  0.0172  0.1673 -0.2193
   9023SM   H4S12069   4.883   1.302  12.247 -0.2669 -0.8307  0.6924
   9023SM   C5S12070   5.036   1.159  12.297 -0.4201 -0.3223 -0.6504
   9023SM   H5S12071   5.130   1.108  12.269  0.9052  0.5820  1.8010
   9023SM   C6S12072   4.972   1.116  12.426  0.3980 -0.1766 -0.4400
   9023SM   H6S12073   5.023   1.021  12.456  1.9762 -0.0440 -2.5273
   9023SM   H6T12074   4.865   1.090  12.409  0.9835 -1.6218 -2.2429
   9023SM   C7S12075   4.984   1.232  12.530 -0.2414  0.3385  0.5812
   9023SM   H7S12076   4.936   1.325  12.491 -0.3612  0.6759  1.5228
   9023SM   H7T12077   5.090   1.256  12.554 -0.3208 -0.0011  1.2893
   9023SM   C8S12078   4.923   1.189  12.660 -0.0656  0.1715  0.1490
   9023SM   H8S12079   4.956   1.088  12.695  2.8830  0.5661 -1.1331
   9023SM   H8T12080   4.816   1.169  12.640  0.2063 -0.7785 -0.4479
   9023SM   C9S12081   4.938   1.293  12.772  0.6250 -0.6695 -0.0837
   9023SM   H9S12082   4.921   1.395  12.733  0.9804 -0.0794  1.2647
   9023SM   H9T12083   5.045   1.296  12.801  0.0864  1.5471  2.0189
   9023SM  C10S12084   4.854   1.268  12.897 -0.0647  0.4476  0.2241
   9023SM  H10S12085   4.869   1.160  12.919  1.3304  0.5459 -0.2060
   9023SM  H10T12086   4.745   1.283  12.881  0.1740  2.6659  0.4039
   9023SM  C11S12087   4.906   1.343  13.021 -0.7430  0.2295  0.4509
   9023SM  H11S12088   4.877   1.450  13.015 -2.3665 -0.2205 -0.5242
   9023SM  H11T12089   5.015   1.326  13.011 -0.9355 -0.7735 -0.1434
   9023SM  C12S12090   4.841   1.288  13.148  0.2748  1.2746  0.2595
   9023SM  H12S12091   4.867   1.182  13.169 -0.8737  0.9914  0.3235
   9023SM  H12T12092   4.731   1.281  13.130  0.5629 -0.5139 -1.0978
   9023SM  C13S12093   4.860   1.366  13.270  0.3194 -0.1184  0.0932
   9023SM  H13S12094   4.846   1.471  13.237 -1.6691 -0.6355 -0.8363
   9023SM  H13T12095   4.966   1.345  13.295 -0.1763 -0.5617  1.9928
   9023SM  C14S12096   4.769   1.315  13.385  0.5247  0.4587  0.6649
   9023SM  H14S12097   4.771   1.204  13.386 -1.5472  0.2338 -2.8441
   9023SM  H14T12098   4.662   1.334  13.360  0.8016  0.7183 -0.3668
   9023SM  C15S12099   4.810   1.363  13.526 -0.4902  0.4769  0.1602
   9023SM  H15S12100   4.777   1.469  13.534  1.5860  1.1161  0.8496
   9023SM  H15T12101   4.921   1.363  13.525 -0.4274  0.2137 -2.7431
   9023SM  C16S12102   4.761   1.272  13.631  1.0807  0.1166 -0.1678
   9023SM  H16S12103   4.805   1.172  13.612 -0.2771 -0.4041 -0.6722
   9023SM  H16T12104   4.651   1.263  13.628  0.9356 -0.1353  2.6831
   9023SM  C17S12105   4.801   1.335  13.767 -0.2227 -0.6289 -0.0738
   9023SM  H17S12106   4.795   1.446  13.771 -0.8097 -0.6444 -0.5601
   9023SM  H17T12107   4.911   1.318  13.772  0.1981  1.6998 -0.1338
   9023SM  C18S12108   4.731   1.275  13.887 -1.2101 -0.4585 -0.3062
   9023SM  H18S12109   4.746   1.339  13.976  1.4679  0.3036 -1.2094
   9023SM  H18T12110   4.767   1.172  13.909 -1.6278 -0.8542 -1.3868
   9023SM  H18U12111   4.621   1.269  13.872 -1.3955  0.0791  0.7753
   9023SM   C1F12112   5.269   1.563  12.263 -0.9868  0.3745 -0.8270
   9023SM    OF12113   5.230   1.674  12.228  0.4544 -0.7695  0.0629
   9023SM   C2F12114   5.387   1.540  12.347 -0.2899 -0.6461 -0.5839
   9023SM   H2F12115   5.462   1.615  12.314 -2.8812  2.4675  0.1514
   9023SM   H2G12116   5.436   1.440  12.343  1.6048  0.0470  2.0571
   9023SM   C3F12117   5.368   1.562  12.501 -0.1149 -0.0771 -0.6190
   9023SM   H3F12118   5.354   1.671  12.519 -0.5153 -0.0762 -0.9282
   9023SM   H3G12119   5.465   1.536  12.549  0.2582  0.7265 -0.9217
   9023SM   C4F12120   5.244   1.504  12.571 -0.0504 -0.0620  0.5124
   9023SM   H4F12121   5.269   1.397  12.586  2.6699  0.3761 -0.2717
   9023SM   H4G12122   5.161   1.527  12.502  1.1288  1.7139 -0.4101
   9023SM   C5F12123   5.201   1.583  12.700  0.0228 -0.2867  0.0407
   9023SM   H5F12124   5.100   1.546  12.728  0.3938  0.6773  2.9861
   9023SM   H5G12125   5.191   1.692  12.681  2.3514  0.4351  2.2613
   9023SM   C6F12126   5.291   1.564  12.825 -0.6550 -0.1630  0.3321
   9023SM   H6F12127   5.384   1.624  12.820 -1.5846  1.2515 -1.7202
   9023SM   H6G12128   5.323   1.457  12.823 -1.5419 -0.4394 -0.0069
   9023SM   C7F12129   5.215   1.573  12.959  0.1351 -0.0955 -0.0956
   9023SM   H7F12130   5.139   1.492  12.963  0.2459 -0.1621  0.6674
   9023SM   H7G12131   5.168   1.673  12.954  0.9782  0.4117  1.5621
   9023SM   C8F12132   5.313   1.571  13.079  0.7095 -0.0100  0.0060
   9023SM   H8F12133   5.380   1.660  13.081 -0.0960  0.6078 -0.1943
   9023SM   H8G12134   5.376   1.481  13.060  2.1454  0.8346  0.5881
   9023SM   C9F12135   5.244   1.560  13.217  0.0256  0.0739 -0.5997
   9023SM   H9F12136   5.162   1.486  13.206 -0.0496  0.2207 -1.0343
   9023SM   H9G12137   5.198   1.659  13.235 -0.6664  0.0327 -1.9957
   9023SM  C10F12138   5.337   1.503  13.334  0.5408 -0.2727 -0.1134
   9023SM  H10F12139   5.432   1.559  13.335  0.7458 -0.4736  2.9792
   9023SM  H10G12140   5.356   1.400  13.297 -1.6926 -1.3700  1.4996
   9023SM  C11F12141   5.276   1.490  13.473 -0.5294 -0.2648  0.2647
   9023SM  H11F12142   5.169   1.462  13.465 -0.4816 -0.0977 -1.2415
   9023SM  H11G12143   5.297   1.589  13.518 -1.7165 -1.0182  2.6477
   9023SM  C12F12144   5.357   1.390  13.557  0.7270 -0.1896 -0.0158
   9023SM  H12F12145   5.458   1.419  13.593  1.4787 -1.6183 -0.8477
   9023SM  H12G12146   5.358   1.298  13.494 -1.8505 -1.0148  0.9911
   9023SM  C13F12147   5.277   1.377  13.691  0.1408  0.2255 -0.7433
   9023SM  H13F12148   5.305   1.284  13.744 -0.2811  0.8920  0.6861
   9023SM  H13G12149   5.167   1.366  13.681 -0.0243 -0.3725  1.3684
   9023SM  C14F12150   5.318   1.482  13.797  0.1118  0.4285 -0.1523
   9023SM  H14F12151   5.298   1.588  13.772  0.2147  0.7225  0.9316
   9023SM  H14G12152   5.427   1.474  13.813 -0.0316  1.9175  1.9740
   9023SM  C15F12153   5.256   1.458  13.935  0.5292 -0.0491  0.8024
   9023SM  H15F12154   5.274   1.355  13.973 -0.5774 -0.1150  1.1851
   9023SM  H15G12155   5.146   1.470  13.923  0.7525 -0.0319 -1.6903
   9023SM  C16F12156   5.325   1.540  14.037 -0.1891 -0.6168 -0.3949
   9023SM  H16F12157   5.339   1.646  14.006  0.9214 -0.7942 -0.5106
   9023SM  H16G12158   5.430   1.511  14.054 -0.4196 -0.1564  2.3903
   9023SM  C17F12159   5.271   1.532  14.177 -0.3284  0.0518 -0.3285
   9023SM  H17F12160   5.293   1.434  14.224  0.0129  0.3645  0.1744
   9023SM  H17G12161   5.161   1.532  14.163 -0.1803 -0.1680 -1.5906
   9023SM  C18F12162   5.323   1.638  14.276  0.0715  0.3890  0.0307
   9023SM  H18F12163   5.312   1.734  14.222  0.2588 -0.8106 -2.2535
   9023SM  H18G12164   5.430   1.629  14.303 -0.3005 -1.3872  1.0550
   9023SM  C19F12165   5.226   1.649  14.391  0.5022  0.1655 -0.3387
   9023SM  H19F12166   5.220   1.549  14.441 -1.4398 -0.6136 -1.9731
   9023SM  H19G12167   5.125   1.675  14.352  1.4744 -0.5359 -3.6609
   9023SM  C20F12168   5.278   1.753  14.501 -0.6723 -0.5322  0.3989
   9023SM  H20F12169   5.367   1.707  14.550  1.3855  2.6060 -0.0703
   9023SM  H20G12170   5.202   1.763  14.581 -0.6902 -1.4566  0.5118
   9023SM  C21F12171   5.331   1.882  14.429  0.2580 -0.5222 -0.7747
   9023SM  H21F12172   5.279   1.899  14.332 -1.5897 -0.4597  0.1856
   9023SM  H21G12173   5.440   1.877  14.408  0.6733  0.3602  1.0338
   9023SM  C22F12174   5.305   2.006  14.520 -0.0085 -0.6263  0.3301
   9023SM  H22F12175   5.198   2.018  14.545 -0.1371  0.4178 -0.6385
   9023SM  H22G12176   5.335   2.104  14.477  0.6399  0.2544  2.6411
   9023SM  C23F12177   5.367   1.996  14.657  0.2183 -0.8086 -0.1512
   9023SM  H23F12178   5.365   1.892  14.696 -2.1324 -1.1544 -1.0309
   9023SM  H23G12179   5.324   2.072  14.726  0.9281 -1.2468  0.8061
   9023SM  H23H12180   5.472   2.031  14.644 -0.1522  0.9854  1.2747
   9123SM     N12181   6.445   3.566  11.232 -0.3564 -0.0670  0.7711
   9123SM   C1512182   6.472   3.491  11.106  0.3485  0.2052  0.3696
   9123SM  H15A12183   6.387   3.427  11.086  2.0341 -1.9380 -0.3159
   9123SM  H15B12184   6.564   3.434  11.104  2.1222  2.8669 -2.2003
   9123SM  H15C12185   6.484   3.557  11.022  2.2326  0.0781  0.4959
   9123SM   C1412186   6.434   3.474  11.346  0.4492  0.1142  0.0715
   9123SM  H14A12187   6.360   3.397  11.327 -1.6383  2.0400 -0.0264
   9123SM  H14B12188   6.398   3.521  11.436  0.3361 -1.2387  0.7530
   9123SM  H14C12189   6.529   3.433  11.376  0.9351  0.6600 -0.6700
   9123SM   C1312190   6.562   3.657  11.243 -0.4835 -0.6555  0.6216
   9123SM  H13A12191   6.565   3.708  11.338  0.4036  0.3720  0.0686
   9123SM  H13B12192   6.567   3.727  11.160  0.7945 -2.3119 -0.7767
   9123SM  H13C12193   6.657   3.608  11.223  2.0557  3.5853  1.0419
   9123SM   C1212194   6.324   3.645  11.213  0.4427  0.1956 -0.1349
   9123SM  H12A12195   6.342   3.706  11.126 -0.9404  0.8518  0.0127
   9123SM  H12B12196   6.310   3.715  11.293 -0.6991 -0.3444  0.1520
   9123SM   C1112197   6.185   3.574  11.208  0.1153 -0.5730  0.7145
   9123SM  H11A12198   6.199   3.494  11.133 -1.9101 -0.7940  0.5328
   9123SM  H11B12199   6.123   3.641  11.146  0.0863 -0.9812  0.2976
   9123SM     P12200   6.058   3.612  11.428 -0.1766  0.2680  0.5328
   9123SM   O1312201   6.123   3.744  11.424 -0.3147  0.4058  0.4851
   9123SM   O1412202   5.916   3.612  11.394 -0.1876  0.0667 -0.6300
   9123SM   O1112203   6.083   3.544  11.567  0.2619  0.4238 -0.1130
   9123SM   O1212204   6.131   3.522  11.331 -0.4603 -0.1975  0.9016
   9123SM   C1S12205   6.081   3.403  11.585  0.2078  0.3141  0.0366
   9123SM   H1S12206   6.169   3.353  11.539  0.7300  1.3311 -0.0768
   9123SM   H1T12207   5.995   3.351  11.536  1.0973  1.2538 -2.6874
   9123SM    NF12208   6.081   3.219  11.758 -0.3517  0.1599 -0.1426
   9123SM   HNF12209   5.997   3.167  11.745  1.0268 -1.4899 -3.6351
   9123SM   C2S12210   6.076   3.366  11.742 -0.9179  0.5957  0.1892
   9123SM   H2S12211   6.170   3.400  11.791  0.7087 -0.2076 -2.1790
   9123SM   C3S12212   5.962   3.449  11.803  0.0541 -0.6354  0.1458
   9123SM   H3S12213   5.874   3.454  11.735 -0.3876 -0.9393  0.6874
   9123SM    O312214   6.002   3.586  11.826  0.2143 -0.6876  0.4086
   9123SM   HO312215   6.081   3.603  11.775 -1.2446 -0.4072 -1.9174
   9123SM   C4S12216   5.916   3.385  11.929  0.1390  0.0331 -0.7344
   9123SM   H4S12217   5.857   3.293  11.920  1.6861 -0.8615 -2.5811
   9123SM   C5S12218   5.943   3.430  12.057 -0.6660  0.6087  1.0186
   9123SM   H5S12219   6.003   3.520  12.074 -0.8170  0.4530  2.4584
   9123SM   C6S12220   5.887   3.350  12.175 -0.3328 -0.4380 -0.2590
   9123SM   H6S12221   5.970   3.290  12.219 -0.4721  0.5181  1.4200
   9123SM   H6T12222   5.807   3.279  12.145 -1.5644  0.0981  1.5918
   9123SM   C7S12223   5.831   3.444  12.282 -0.4735 -0.3182  0.3681
   9123SM   H7S12224   5.743   3.501  12.247  0.3556  0.2562 -0.8362
   9123SM   H7T12225   5.902   3.525  12.307 -0.0328 -0.7079  0.4114
   9123SM   C8S12226   5.809   3.371  12.415  1.0178 -0.5698  0.3533
   9123SM   H8S12227   5.896   3.307  12.440 -0.2655 -2.2101  0.7743
   9123SM   H8T12228   5.718   3.308  12.408  0.9314 -0.6364  1.8353
   9123SM   C9S12229   5.777   3.470  12.527  0.5397  0.2789 -0.5483
   9123SM   H9S12230   5.704   3.543  12.485  1.3798  0.6855 -1.3630
   9123SM   H9T12231   5.871   3.515  12.565 -0.5363  1.3733  0.9277
   9123SM  C10S12232   5.722   3.403  12.645 -0.2726 -0.3685  0.2514
   9123SM  H10S12233   5.790   3.319  12.671  1.6612  1.6326  2.0652
   9123SM  H10T12234   5.623   3.362  12.614  0.1546 -0.8241 -0.5322
   9123SM  C11S12235   5.707   3.497  12.765  0.0810 -0.3622 -0.7937
   9123SM  H11S12236   5.612   3.554  12.771  1.2502  1.5498  0.2870
   9123SM  H11T12237   5.782   3.578  12.755 -0.3676  0.6219  2.5199
   9123SM  C12S12238   5.732   3.420  12.904 -0.7123  0.3483 -0.1344
   9123SM  H12S12239   5.838   3.388  12.896 -1.2575 -1.6747  0.1931
   9123SM  H12T12240   5.677   3.324  12.891  0.0062 -0.0050 -0.5883
   9123SM  C13S12241   5.698   3.500  13.030  0.8239 -0.1754  0.5561
   9123SM  H13S12242   5.589   3.520  13.026  1.1268  1.4723 -0.4704
   9123SM  H13T12243   5.747   3.599  13.038  3.2657 -1.2289 -0.2093
   9123SM  C14S12244   5.726   3.414  13.150  0.3567  0.5926 -0.5708
   9123SM  H14S12245   5.834   3.386  13.156  0.4312  1.1087  1.0295
   9123SM  H14T12246   5.669   3.319  13.151 -0.1574  0.8983 -0.3686
   9123SM  C15S12247   5.697   3.502  13.286  0.0920  0.5209 -0.5109
   9123SM  H15S12248   5.589   3.529  13.281  0.0461  1.2159  2.5829
   9123SM  H15T12249   5.765   3.589  13.283 -0.9483  1.3901 -3.8176
   9123SM  C16S12250   5.713   3.420  13.414 -0.5340  0.5798 -0.4617
   9123SM  H16S12251   5.819   3.388  13.414  0.0060  2.2627 -0.0279
   9123SM  H16T12252   5.648   3.331  13.400 -2.1628  1.8557 -1.4006
   9123SM  C17S12253   5.679   3.492  13.540 -0.0382 -0.5550 -0.6049
   9123SM  H17S12254   5.569   3.505  13.542 -0.1462 -1.4074 -0.8521
   9123SM  H17T12255   5.725   3.594  13.540 -0.2375 -0.4621 -0.1391
   9123SM  C18S12256   5.734   3.430  13.666 -0.2488 -0.4991 -0.2243
   9123SM  H18S12257   5.700   3.325  13.678  0.4134 -0.6348  0.4898
   9123SM  H18T12258   5.728   3.491  13.759  2.4506 -0.4111 -0.0475
   9123SM  H18U12259   5.842   3.428  13.643 -0.4860  0.7564 -1.6522
   9123SM   C1F12260   6.199   3.155  11.745  0.0438  0.2448 -0.7808
   9123SM    OF12261   6.306   3.212  11.731  0.4703 -0.0955  0.5478
   9123SM   C2F12262   6.200   3.006  11.754  0.0079 -0.4598 -0.1483
   9123SM   H2F12263   6.245   2.959  11.664  0.5414  0.5962 -0.4447
   9123SM   H2G12264   6.097   2.969  11.776 -0.7024  3.0721  3.8270
   9123SM   C3F12265   6.284   2.957  11.871  0.1028  0.0061 -0.2083
   9123SM   H3F12266   6.387   2.950  11.831 -0.9112 -1.3447 -2.8520
   9123SM   H3G12267   6.259   2.852  11.897 -2.8039  1.1760  2.4543
   9123SM   C4F12268   6.261   3.029  12.003  0.4663  0.4336  0.4746
   9123SM   H4F12269   6.151   3.043  12.016  0.1247 -1.4182 -0.1936
   9123SM   H4G12270   6.307   3.129  11.987  0.3922  0.6737  1.6759
   9123SM   C5F12271   6.321   2.967  12.125 -0.0472 -0.0920  0.9460
   9123SM   H5F12272   6.425   3.007  12.120 -0.2325  0.2387 -1.6110
   9123SM   H5G12273   6.321   2.857  12.111  0.5460  0.0963 -0.8789
   9123SM   C6F12274   6.260   3.012  12.262 -0.0573 -0.5732 -0.3318
   9123SM   H6F12275   6.153   3.026  12.234 -0.4351 -0.9709  0.8744
   9123SM   H6G12276   6.290   3.110  12.305 -2.3925 -0.4038  1.0927
   9123SM   C7F12277   6.292   2.905  12.363  0.5704  0.3143 -0.6446
   9123SM   H7F12278   6.402   2.893  12.370  0.6280  1.0721 -0.2661
   9123SM   H7G12279   6.247   2.806  12.338 -0.1098 -0.0290  1.7694
   9123SM   C8F12280   6.240   2.938  12.499  0.1266 -0.0935  1.2002
   9123SM   H8F12281   6.133   2.914  12.517  0.3273 -1.1575  1.0003
   9123SM   H8G12282   6.258   3.046  12.517 -0.4839  0.0307  1.0875
   9123SM   C9F12283   6.309   2.869  12.607 -0.5061 -0.4338 -0.1349
   9123SM   H9F12284   6.417   2.859  12.584 -0.6293 -1.3376 -0.3356
   9123SM   H9G12285   6.274   2.765  12.623 -1.0669 -0.1563  0.4802
   9123SM  C10F12286   6.299   2.954  12.736  0.6116 -0.1946  0.5028
   9123SM  H10F12287   6.195   2.941  12.774  1.0882 -2.7583  1.1025
   9123SM  H10G12288   6.318   3.062  12.717  0.0042 -0.1694 -0.0158
   9123SM  C11F12289   6.412   2.918  12.831  0.1829  0.8173 -0.9813
   9123SM  H11F12290   6.496   2.986  12.804  1.1855 -0.2961 -0.7798
   9123SM  H11G12291   6.445   2.812  12.818 -1.2118  0.0614  1.1319
   9123SM  C12F12292   6.362   2.927  12.975 -0.0403  0.5468 -0.2611
   9123SM  H12F12293   6.270   2.867  12.994  0.9727  0.0578  4.1512
   9123SM  H12G12294   6.333   3.031  13.001  0.6483 -0.1285  3.7379
   9123SM  C13F12295   6.462   2.877  13.082  0.2879 -0.6209 -0.0854
   9123SM  H13F12296   6.549   2.941  13.055  0.3496  0.5421  2.5574
   9123SM  H13G12297   6.498   2.773  13.070 -3.1978 -1.9454 -0.0634
   9123SM  C14F12298   6.424   2.899  13.227  0.2297  0.4749  0.2605
   9123SM  H14F12299   6.335   2.833  13.243  0.1027  0.2613 -1.2441
   9123SM  H14G12300   6.392   3.003  13.251 -0.5307 -0.1416  2.2022
   9123SM  C15F12301   6.529   2.847  13.328  0.4673 -0.2994 -0.2375
   9123SM  H15F12302   6.620   2.906  13.306  0.5111 -1.1126 -2.5222
   9123SM  H15G12303   6.557   2.741  13.307  2.1879 -0.0758  0.7885
   9123SM  C16F12304   6.486   2.870  13.471 -0.5183  0.3158 -0.0573
   9123SM  H16F12305   6.378   2.855  13.491 -0.1749 -1.6600  0.4624
   9123SM  H16G12306   6.504   2.975  13.502  1.4004  1.2462 -3.6740
   9123SM  C17F12307   6.554   2.773  13.561  0.6133 -0.5187  0.3164
   9123SM  H17F12308   6.662   2.785  13.539  0.2324  1.3457 -0.6527
   9123SM  H17G12309   6.525   2.670  13.530  0.2999 -0.5582  0.7326
   9123SM  C18F12310   6.534   2.807  13.708 -0.4877 -0.6150  0.2502
   9123SM  H18F12311   6.425   2.786  13.723 -0.3860  0.6578  3.4407
   9123SM  H18G12312   6.544   2.915  13.729  0.8813 -0.6775 -0.0154
   9123SM  C19F12313   6.624   2.731  13.801 -0.3841  0.7563 -0.4891
   9123SM  H19F12314   6.728   2.768  13.790 -0.4512  1.1044 -0.0104
   9123SM  H19G12315   6.640   2.623  13.782  1.1029  0.8870 -0.1344
   9123SM  C20F12316   6.578   2.762  13.951  0.0887  0.0150  1.0529
   9123SM  H20F12317   6.469   2.747  13.971  0.3986 -2.7089  1.0539
   9123SM  H20G12318   6.609   2.866  13.972  1.2984  0.5342 -2.6502
   9123SM  C21F12319   6.657   2.659  14.037 -0.6012 -0.7930  0.3670
   9123SM  H21F12320   6.766   2.677  14.021 -1.0028 -0.6299 -2.8058
   9123SM  H21G12321   6.637   2.561  13.990 -1.1132 -0.7440  0.4751
   9123SM  C22F12322   6.630   2.663  14.186  0.1938  0.2903 -0.7068
   9123SM  H22F12323   6.553   2.742  14.202 -1.7106 -1.4130 -0.9873
   9123SM  H22G12324   6.727   2.691  14.233  0.5351 -0.0005 -1.2318
   9123SM  C23F12325   6.587   2.522  14.235  0.0484  0.4618 -0.0972
   9123SM  H23F12326   6.570   2.514  14.344  2.5824  0.3389  0.3372
   9123SM  H23G12327   6.663   2.447  14.202  0.8851  1.7617 -1.2550
   9123SM  H23H12328   6.496   2.494  14.178 -0.3110 -0.5704  0.9486
   9223SM     N12329   3.877   0.006  11.937  0.4261 -0.0014 -0.3096
   9223SM   C1512330   3.773  -0.097  11.914 -0.4612 -0.0612  0.1104
   9223SM  H15A12331   3.814  -0.194  11.937  1.5471  0.6399 -0.2662
   9223SM  H15B12332   3.745  -0.102  11.809  0.9554 -1.6134 -0.2459
   9223SM  H15C12333   3.685  -0.091  11.975 -0.9344 -1.3627 -0.4139
   9223SM   C1412334   3.991  -0.030  11.854 -0.2449  0.8582 -0.8944
   9223SM  H14A12335   4.030  -0.126  11.883  2.0073  1.1683 -2.6240
   9223SM  H14B12336   4.081   0.029  11.863 -1.0538  2.2636 -1.6981
   9223SM  H14C12337   3.967  -0.036  11.749 -0.9067 -1.7201 -0.6462
   9223SM   C1312338   3.817   0.134  11.894 -0.2150  0.1086 -0.0027
   9223SM  H13A12339   3.716   0.138  11.930 -0.2247 -1.6100  0.2570
   9223SM  H13B12340   3.822   0.143  11.786 -1.0395  0.5588 -0.0020
   9223SM  H13C12341   3.879   0.214  11.930  0.4221 -0.2373 -0.2916
   9223SM   C1212342   3.913   0.024  12.087 -0.7246  0.2295  0.6351
   9223SM  H12A12343   4.008   0.076  12.082 -0.3850 -0.3956  0.3628
   9223SM  H12B12344   3.940  -0.070  12.135  0.4115 -0.1110 -0.6189
   9223SM   C1112345   3.817   0.092  12.187 -0.2774 -0.5983 -0.8404
   9223SM  H11A12346   3.861   0.085  12.288 -2.8887  2.4328  0.6864
   9223SM  H11B12347   3.726   0.028  12.181 -0.7360 -0.0595  0.2625
   9223SM     P12348   3.889   0.347  12.184 -0.2667 -0.0856 -0.1727
   9223SM   O1312349   3.974   0.356  12.066  0.0047  0.4627 -0.1323
   9223SM   O1412350   3.812   0.473  12.220 -0.6961 -0.3218 -0.1998
   9223SM   O1112351   3.984   0.297  12.301 -0.3291  0.1154  0.3818
   9223SM   O1212352   3.788   0.227  12.158 -0.1906 -0.2046  1.0484
   9223SM   C1S12353   4.046   0.398  12.384 -0.5189 -0.3381 -0.3295
   9223SM   H1S12354   3.976   0.480  12.409  1.2405  1.2060 -0.2853
   9223SM   H1T12355   4.141   0.440  12.347  0.3411 -2.8413 -1.1865
   9223SM    NF12356   4.115   0.458  12.612 -0.2066  0.5273  0.2712
   9223SM   HNF12357   4.203   0.470  12.658 -0.7328 -0.4929  1.6174
   9223SM   C2S12358   4.097   0.345  12.523 -0.7451  0.4589  0.6436
   9223SM   H2S12359   4.009   0.288  12.560 -0.1164 -0.8383  0.1912
   9223SM   C3S12360   4.219   0.251  12.498  0.8168  0.2854  0.2052
   9223SM   H3S12361   4.293   0.322  12.456 -1.1747  0.8477 -2.6559
   9223SM    O312362   4.186   0.146  12.400 -0.8176  0.5038 -0.5541
   9223SM   HO312363   4.108   0.180  12.357 -2.5236 -1.3225  0.8823
   9223SM   C4S12364   4.269   0.193  12.633  0.0253 -0.6972 -0.5462
   9223SM   H4S12365   4.341   0.256  12.687  0.0632 -2.3989  1.5281
   9223SM   C5S12366   4.240   0.075  12.690  0.7696 -0.2018  0.0892
   9223SM   H5S12367   4.161   0.009  12.653 -0.6569  0.1926  2.2582
   9223SM   C6S12368   4.298   0.024  12.817 -0.3364 -0.6133 -0.2812
   9223SM   H6S12369   4.407   0.040  12.831 -0.3874  0.0707 -0.6319
   9223SM   H6T12370   4.282  -0.086  12.817 -2.9161 -0.3134 -0.1811
   9223SM   C7S12371   4.232   0.085  12.935  0.5948  0.4460  0.1178
   9223SM   H7S12372   4.122   0.069  12.935  0.8225 -1.2205  0.4720
   9223SM   H7T12373   4.237   0.196  12.930 -2.7058  0.7298  0.6148
   9223SM   C8S12374   4.286   0.039  13.070  0.2395  0.4097  0.1674
   9223SM   H8S12375   4.394   0.061  13.072  0.3398  0.0991 -0.9300
   9223SM   H8T12376   4.282  -0.072  13.080 -1.9512  0.4303 -0.0145
   9223SM   C9S12377   4.220   0.094  13.198  0.8180  0.1678  0.3505
   9223SM   H9S12378   4.110   0.085  13.188  0.8261 -0.3010  0.6381
   9223SM   H9T12379   4.243   0.202  13.207 -0.8638  0.6316 -0.5846
   9223SM  C10S12380   4.269   0.029  13.322  0.3564  0.1927 -0.4119
   9223SM  H10S12381   4.380   0.040  13.319  0.4117 -0.1695  0.0315
   9223SM  H10T12382   4.248  -0.080  13.318  0.1412  0.1996  0.3820
   9223SM  C11S12383   4.210   0.090  13.450 -0.0131 -1.1319  0.0630
   9223SM  H11S12384   4.102   0.062  13.454 -0.9454  2.1507  1.7503
   9223SM  H11T12385   4.210   0.201  13.447  0.1987 -1.1246  0.3025
   9223SM  C12S12386   4.269   0.039  13.575 -0.0187 -0.4974  0.6883
   9223SM  H12S12387   4.372   0.079  13.584  0.2977 -1.3723  1.0634
   9223SM  H12T12388   4.281  -0.071  13.588  1.7258 -0.4615 -0.2588
   9223SM  C13S12389   4.191   0.084  13.702 -0.1741 -0.8171 -0.4397
   9223SM  H13S12390   4.093   0.030  13.706 -1.3532  1.2782  0.3217
   9223SM  H13T12391   4.158   0.190  13.708 -1.2845 -1.2306  2.6368
   9223SM  C14S12392   4.267   0.073  13.835 -0.1096 -0.3869  0.9184
   9223SM  H14S12393   4.340   0.156  13.832  0.9497 -1.3140 -0.1983
   9223SM  H14T12394   4.319  -0.025  13.836  1.5258  0.4291  0.1025
   9223SM  C15S12395   4.173   0.091  13.957  0.4311  0.5095 -0.1437
   9223SM  H15S12396   4.099   0.009  13.967 -0.5912  1.6069  1.8735
   9223SM  H15T12397   4.116   0.185  13.941  1.3244  1.3022  1.2062
   9223SM  C16S12398   4.258   0.100  14.084  0.3463  0.1711 -0.2400
   9223SM  H16S12399   4.194   0.136  14.167 -0.1541  0.2580 -0.6617
   9223SM  H16T12400   4.346   0.165  14.064  1.3584 -1.7310 -2.3847
   9223SM  C17S12401   4.300  -0.038  14.121 -0.2968  0.0470 -1.0383
   9223SM  H17S12402   4.377  -0.085  14.056 -0.0406 -1.2549  0.1432
   9223SM  H17T12403   4.206  -0.098  14.122 -0.3512  0.1100  0.6023
   9223SM  C18S12404   4.359  -0.057  14.263  0.1217 -0.6485 -0.1357
   9223SM  H18S12405   4.446   0.010  14.278 -2.3475  2.1884  3.2345
   9223SM  H18T12406   4.384  -0.164  14.280 -0.4479 -0.9080 -0.8439
   9223SM  H18U12407   4.286  -0.026  14.341 -2.5039  1.5479 -3.2242
   9223SM   C1F12408   4.022   0.544  12.652  0.1547  0.4772  0.9502
   9223SM    OF12409   3.902   0.521  12.644  0.2712 -0.3501 -0.1260
   9223SM   C2F12410   4.070   0.674  12.701  0.2280  0.8327 -0.3493
   9223SM   H2F12411   4.065   0.757  12.627 -1.6061  1.7468  0.7164
   9223SM   H2G12412   4.176   0.664  12.732  0.5115 -0.9639 -1.7552
   9223SM   C3F12413   3.990   0.709  12.832  0.3228  0.1680  0.6937
   9223SM   H3F12414   3.992   0.619  12.897 -0.5237 -1.0409 -0.8755
   9223SM   H3G12415   3.886   0.720  12.797  0.4561  2.2573  0.8192
   9223SM   C4F12416   4.026   0.853  12.888  0.1878 -0.7529  0.0226
   9223SM   H4F12417   3.991   0.931  12.817 -4.1213 -1.3460  1.2337
   9223SM   H4G12418   4.137   0.857  12.899  0.3936  0.4700 -2.0496
   9223SM   C5F12419   3.960   0.886  13.028 -0.1425  0.5305 -0.0038
   9223SM   H5F12420   3.852   0.864  13.033  0.0913 -0.8765 -0.5818
   9223SM   H5G12421   3.971   0.995  13.043 -0.3867  0.6473 -0.6512
   9223SM   C6F12422   4.018   0.822  13.159 -0.4450  1.0034  0.6806
   9223SM   H6F12423   4.129   0.820  13.148 -0.2780 -3.1297  1.4950
   9223SM   H6G12424   3.985   0.716  13.167  1.4721  0.4825  2.4746
   9223SM   C7F12425   3.978   0.892  13.286 -0.3499  0.2418 -0.1135
   9223SM   H7F12426   3.871   0.921  13.279 -0.0536  1.1652 -1.1790
   9223SM   H7G12427   4.031   0.989  13.292  1.9100 -0.9623  0.5848
   9223SM   C8F12428   4.002   0.829  13.423  0.0799  0.3373 -0.0505
   9223SM   H8F12429   4.112   0.814  13.436 -0.0564 -1.7525 -0.9042
   9223SM   H8G12430   3.952   0.730  13.426  0.0443  0.3586  0.0469
   9223SM   C9F12431   3.957   0.909  13.544 -0.6416  0.4380  0.0308
   9223SM   H9F12432   3.849   0.932  13.529 -0.5480  1.0743  0.3127
   9223SM   H9G12433   4.012   1.005  13.544  0.2047  0.0263 -2.4273
   9223SM  C10F12434   3.973   0.828  13.671  0.0408  0.3659  0.3497
   9223SM  H10F12435   4.080   0.823  13.702  0.0541 -0.5747  0.1622
   9223SM  H10G12436   3.936   0.724  13.662  4.2945 -1.1460 -2.5312
   9223SM  C11F12437   3.886   0.890  13.779 -0.1284  0.3982 -0.2065
   9223SM  H11F12438   3.792   0.915  13.725  0.2059  1.1781 -0.4444
   9223SM  H11G12439   3.939   0.980  13.817 -0.5491 -0.0891  1.5966
   9223SM  C12F12440   3.868   0.796  13.896  0.2783  0.1450 -0.2640
   9223SM  H12F12441   3.968   0.777  13.940 -0.3389 -1.0511  0.6631
   9223SM  H12G12442   3.824   0.697  13.875  1.3378 -0.5419  0.6908
   9223SM  C13F12443   3.786   0.867  13.998  0.0199 -0.5891 -0.1186
   9223SM  H13F12444   3.683   0.881  13.958  0.0614  1.8853  0.4849
   9223SM  H13G12445   3.815   0.974  14.009  0.3320 -0.6580 -0.2501
   9223SM  C14F12446   3.780   0.808  14.139 -0.3996 -0.8672  1.2973
   9223SM  H14F12447   3.793   0.698  14.124 -0.2259 -0.4398 -2.7599
   9223SM  H14G12448   3.681   0.842  14.174  0.9187  1.5249  2.9737
   9223SM  C15F12449   3.890   0.862  14.227  0.1797 -0.0532  0.6350
   9223SM  H15F12450   3.873   0.971  14.238 -1.1791 -0.1857  0.0642
   9223SM  H15G12451   3.984   0.846  14.170 -1.7860  2.2931 -3.8113
   9223SM  C16F12452   3.903   0.797  14.365  0.3021  0.3055 -0.9290
   9223SM  H16F12453   3.920   0.689  14.344 -0.4909 -0.1945  0.8400
   9223SM  H16G12454   3.811   0.803  14.428  0.1931  0.8476 -1.1381
   9223SM  C17F12455   4.027   0.860  14.435  0.2453 -0.5665  0.6535
   9223SM  H17F12456   4.007   0.968  14.446  0.2568 -0.5673  0.6814
   9223SM  H17G12457   4.117   0.855  14.369 -0.2393  0.9177 -0.1583
   9223SM  C18F12458   4.063   0.785  14.563 -0.2761  0.3778  0.2830
   9223SM  H18F12459   4.060   0.675  14.547 -0.6184  0.5109 -0.5808
   9223SM  H18G12460   3.988   0.790  14.644 -0.6881 -0.7322 -0.0085
   9223SM  C19F12461   4.200   0.832  14.622 -0.4675 -0.4252  0.0450
   9223SM  H19F12462   4.183   0.940  14.642  0.1285 -0.1393 -0.9360
   9223SM  H19G12463   4.272   0.837  14.537  1.7603 -0.7172  1.8276
   9223SM  C20F12464   4.253   0.750  14.736 -0.2608 -0.0251 -0.0752
   9223SM  H20F12465   4.267   0.649  14.693  1.0836 -0.0721  0.4301
   9223SM  H20G12466   4.181   0.756  14.821 -2.5023  0.0041 -1.8950
   9223SM  C21F12467   4.389   0.799  14.790 -0.0659  0.3953  0.0082
   9223SM  H21F12468   4.389   0.766  14.896 -0.8538 -3.9470 -1.1409
   9223SM  H21G12469   4.380   0.910  14.794 -0.5798  0.3253  1.4484
   9223SM  C22F12470   4.514   0.762  14.708  0.1716  0.4411 -0.0801
   9223SM  H22F12471   4.526   0.830  14.621  0.7815  1.0793  0.4821
   9223SM  H22G12472   4.513   0.658  14.670 -1.2821  0.0024  1.0845
   9223SM  C23F12473   4.640   0.768  14.797  0.2215 -0.1509  0.4697
   9223SM  H23F12474   4.642   0.868  14.846  0.9696  0.9892 -1.7424
   9223SM  H23G12475   4.723   0.794  14.727 -0.0919 -0.3657  0.0107
   9223SM  H23H12476   4.651   0.681  14.865 -1.1320  0.5920  1.6934
   9323SM     N12477   0.203   0.810  11.726 -0.1667 -0.1402  0.0543
   9323SM   C1512478   0.314   0.736  11.656 -0.1155 -0.2497  0.4927
   9323SM  H15A12479   0.403   0.797  11.665  0.6994 -1.4314  0.6572
   9323SM  H15B12480   0.283   0.716  11.554 -0.5072  1.3591  0.2555
   9323SM  H15C12481   0.329   0.645  11.712  0.7397 -0.3125  0.1753
   9323SM   C1412482   0.236   0.838  11.864  0.1518 -0.0302  0.6002
   9323SM  H14A12483   0.316   0.911  11.862  0.8748 -0.8006 -2.0886
   9323SM  H14B12484   0.269   0.749  11.914 -0.8850 -0.3662  0.7123
   9323SM  H14C12485   0.157   0.891  11.915  0.9930 -0.7216  2.7315
   9323SM   C1312486   0.191   0.941  11.650 -0.0216  0.1744  0.2078
   9323SM  H13A12487   0.283   0.998  11.655  0.4400 -0.6457  1.3908
   9323SM  H13B12488   0.105   1.000  11.677 -0.8563 -0.8416 -0.1723
   9323SM  H13C12489   0.179   0.918  11.545  0.2783 -0.8942  0.3923
   9323SM   C1212490   0.074   0.725  11.721 -0.2169  0.3808  0.3942
   9323SM  H12A12491   0.083   0.633  11.776  0.9611  0.3227  0.1176
   9323SM  H12B12492   0.058   0.687  11.621  0.9160 -1.3503  0.8410
   9323SM   C1112493  -0.065   0.784  11.757 -0.0650  0.6579 -0.4909
   9323SM  H11A12494  -0.078   0.796  11.867  0.5388  1.9249 -0.5356
   9323SM  H11B12495  -0.135   0.705  11.721  1.7160 -0.9571 -0.5977
   9323SM     P12496  -0.201   1.004  11.714  0.0484  0.2108  0.4458
   9323SM   O1312497  -0.193   1.130  11.637  0.5889 -0.0160 -0.4894
   9323SM   O1412498  -0.329   0.926  11.699  0.2745  0.0528 -0.3290
   9323SM   O1112499  -0.184   1.031  11.865  0.8110 -0.1741 -0.3051
   9323SM   O1212500  -0.080   0.909  11.691  0.0920 -0.0566  0.2282
   9323SM   C1S12501  -0.059   1.071  11.923 -0.1925  0.4942  0.3170
   9323SM   H1S12502  -0.022   1.164  11.875 -2.2846  1.2952  0.1558
   9323SM   H1T12503   0.019   0.993  11.934 -0.3047  0.3664  0.2092
   9323SM    NF12504   0.041   1.172  12.132  0.3455  0.3817 -0.3301
   9323SM   HNF12505   0.104   1.123  12.193 -1.8678  2.1733  3.8062
   9323SM   C2S12506  -0.080   1.109  12.077 -0.0421 -0.2473 -0.2407
   9323SM   H2S12507  -0.162   1.184  12.072  0.8055  0.6425 -1.2478
   9323SM   C3S12508  -0.139   0.984  12.154  0.1709 -0.4376 -0.5008
   9323SM   H3S12509  -0.059   0.909  12.172 -0.4710 -1.1935 -0.7127
   9323SM    O312510  -0.245   0.907  12.094 -0.2319  0.4028  0.0864
   9323SM   HO312511  -0.259   0.953  12.011  0.0579  0.4063  0.0375
   9323SM   C4S12512  -0.188   1.023  12.292  0.3334  0.1638  0.1858
   9323SM   H4S12513  -0.130   0.978  12.375 -0.3585  2.7113  2.2000
   9323SM   C5S12514  -0.299   1.097  12.317 -0.4215  0.4935 -0.4869
   9323SM   H5S12515  -0.366   1.140  12.242 -1.0913  0.0206 -0.1725
   9323SM   C6S12516  -0.354   1.119  12.455 -0.0947  0.1048 -0.1768
   9323SM   H6S12517  -0.458   1.083  12.470  1.0689 -2.2369  3.6960
   9323SM   H6T12518  -0.340   1.228  12.468 -0.9822  0.5385 -2.3994
   9323SM   C7S12519  -0.287   1.056  12.577 -0.6297  0.4718 -0.7924
   9323SM   H7S12520  -0.177   1.064  12.590 -0.1234 -4.3917 -0.1132
   9323SM   H7T12521  -0.299   0.946  12.571  0.8362  0.3111 -1.3930
   9323SM   C8S12522  -0.363   1.103  12.702 -0.0145  0.3143 -0.6005
   9323SM   H8S12523  -0.473   1.096  12.687  0.0326 -0.3719 -0.6777
   9323SM   H8T12524  -0.339   1.210  12.721  2.0513 -0.0261 -1.0289
   9323SM   C9S12525  -0.331   1.021  12.832  0.0002 -0.0004 -0.0336
   9323SM   H9S12526  -0.220   1.022  12.838  0.0653 -2.6309  0.3373
   9323SM   H9T12527  -0.372   0.920  12.814 -0.8947  0.7288 -2.5528
   9323SM  C10S12528  -0.397   1.079  12.955 -0.3615 -0.2993 -0.1320
   9323SM  H10S12529  -0.432   1.184  12.943  0.0339  0.0429  1.5230
   9323SM  H10T12530  -0.324   1.078  13.038  2.8830  0.0416 -2.7851
   9323SM  C11S12531  -0.523   0.997  12.990  0.1083  0.0742 -0.4011
   9323SM  H11S12532  -0.503   0.888  12.976  2.4248  0.2433  1.1191
   9323SM  H11T12533  -0.596   1.018  12.909 -0.0510  2.3697  0.2724
   9323SM  C12S12534  -0.591   1.017  13.131 -0.0350  0.5266  0.5759
   9323SM  H12S12535  -0.528   0.958  13.201 -0.5157  0.3922  0.9020
   9323SM  H12T12536  -0.695   0.979  13.119 -1.0641  2.8274  1.5661
   9323SM  C13S12537  -0.598   1.166  13.170  0.3198 -0.1846 -0.7263
   9323SM  H13S12538  -0.669   1.214  13.100 -1.3501 -1.3578  0.0928
   9323SM  H13T12539  -0.499   1.217  13.166  0.4181  0.0176  2.1112
   9323SM  C14S12540  -0.656   1.197  13.312  0.7908 -0.0749 -0.1644
   9323SM  H14S12541  -0.759   1.155  13.317 -0.9537  3.4963 -2.2837
   9323SM  H14T12542  -0.673   1.306  13.321  0.5043 -0.1017 -0.3753
   9323SM  C15S12543  -0.577   1.155  13.433  0.0577 -0.1237  0.3803
   9323SM  H15S12544  -0.567   1.045  13.422 -0.8758  0.0012 -3.0701
   9323SM  H15T12545  -0.476   1.200  13.434 -0.0651  0.1849 -0.3993
   9323SM  C16S12546  -0.648   1.198  13.560  0.0110  0.3474  0.6185
   9323SM  H16S12547  -0.757   1.176  13.563 -0.3860  1.8645 -1.0483
   9323SM  H16T12548  -0.637   1.309  13.565  1.8548  0.1850  0.8266
   9323SM  C17S12549  -0.565   1.155  13.682  0.4266  0.2706  0.0449
   9323SM  H17S12550  -0.460   1.186  13.663 -0.7416  3.5419 -1.8808
   9323SM  H17T12551  -0.569   1.044  13.682  0.8080  0.2402  1.4583
   9323SM  C18S12552  -0.622   1.207  13.813 -0.2881  0.1785  1.0281
   9323SM  H18S12553  -0.577   1.305  13.840 -1.7915  1.5235 -1.0516
   9323SM  H18T12554  -0.599   1.135  13.895 -2.4687 -0.4237  1.1722
   9323SM  H18U12555  -0.733   1.220  13.813 -0.4601 -1.1708  1.0304
   9323SM   C1F12556   0.065   1.300  12.102  0.1579  0.2048 -0.1801
   9323SM    OF12557  -0.002   1.362  12.017 -0.0482  0.2222 -0.3550
   9323SM   C2F12558   0.189   1.363  12.180  1.3375  0.3699  0.4650
   9323SM   H2F12559   0.286   1.336  12.133  1.6571  0.3575  1.1140
   9323SM   H2G12560   0.186   1.321  12.283  1.2484 -1.8417 -0.3981
   9323SM   C3F12561   0.179   1.520  12.191  0.2967  0.2608  0.2901
   9323SM   H3F12562   0.078   1.542  12.231  0.2650  1.7967 -0.5454
   9323SM   H3G12563   0.178   1.562  12.088 -1.3770  0.2452  0.2609
   9323SM   C4F12564   0.300   1.579  12.263 -0.6655  0.7307 -0.6936
   9323SM   H4F12565   0.277   1.685  12.290  0.4106  0.3279  2.2233
   9323SM   H4G12566   0.385   1.571  12.193 -0.2433 -1.3754 -0.0039
   9323SM   C5F12567   0.336   1.518  12.399 -0.0379  0.7009  0.4903
   9323SM   H5F12568   0.368   1.413  12.385  0.7594  1.1496 -1.4377
   9323SM   H5G12569   0.248   1.529  12.466  0.3479  0.4438  1.0383
   9323SM   C6F12570   0.454   1.585  12.465 -0.5574  0.7667  0.8257
   9323SM   H6F12571   0.545   1.572  12.402 -1.2379 -0.8243  0.1254
   9323SM   H6G12572   0.484   1.521  12.551 -0.7819 -0.7674 -0.1983
   9323SM   C7F12573   0.425   1.726  12.506  0.0485 -0.2034 -0.5804
   9323SM   H7F12574   0.327   1.737  12.559 -2.1722 -1.4432 -4.0975
   9323SM   H7G12575   0.426   1.793  12.418 -1.3018 -0.7421 -1.0262
   9323SM   C8F12576   0.527   1.772  12.609  0.5116  0.0523 -0.0124
   9323SM   H8F12577   0.622   1.725  12.576 -0.6642 -2.2750 -0.3177
   9323SM   H8G12578   0.504   1.729  12.708 -0.2352  1.9575  0.6905
   9323SM   C9F12579   0.534   1.921  12.625  0.4385  0.1585  0.2434
   9323SM   H9F12580   0.433   1.967  12.634 -0.4517 -1.9392  1.9489
   9323SM   H9G12581   0.569   1.973  12.533 -0.2528  1.9099  0.9254
   9323SM  C10F12582   0.619   1.962  12.741 -0.5199 -0.0931 -0.6922
   9323SM  H10F12583   0.600   2.071  12.752  0.2517 -0.1243  1.6462
   9323SM  H10G12584   0.727   1.940  12.725  0.0378  2.4553 -0.8405
   9323SM  C11F12585   0.582   1.905  12.882  0.5838  0.1209  0.0324
   9323SM  H11F12586   0.612   1.798  12.881  0.1773 -0.0463  1.9250
   9323SM  H11G12587   0.471   1.911  12.885  0.5170 -1.1118  2.1463
   9323SM  C12F12588   0.639   1.963  13.010  0.2992 -0.7015  1.0308
   9323SM  H12F12589   0.627   2.073  13.009 -0.8014 -0.7424 -2.4370
   9323SM  H12G12590   0.749   1.950  13.006  0.3484 -0.1260  0.4120
   9323SM  C13F12591   0.597   1.903  13.139 -0.4290 -0.1018 -0.4169
   9323SM  H13F12592   0.600   1.792  13.126 -0.6133  0.1074 -2.6525
   9323SM  H13G12593   0.491   1.936  13.153 -1.1331 -1.9660 -1.0002
   9323SM  C14F12594   0.679   1.950  13.258 -0.2877  0.0620  0.6854
   9323SM  H14F12595   0.681   2.061  13.251 -0.4358  0.0668  0.6995
   9323SM  H14G12596   0.785   1.920  13.247 -0.2337  0.7683 -0.9462
   9323SM  C15F12597   0.615   1.904  13.393 -0.0460  0.4710 -0.2383
   9323SM  H15F12598   0.606   1.793  13.396 -2.6829  0.5975  3.0704
   9323SM  H15G12599   0.507   1.928  13.390 -0.0965  0.0889 -2.2710
   9323SM  C16F12600   0.683   1.965  13.512 -0.3740  0.1658 -0.3073
   9323SM  H16F12601   0.689   2.074  13.494 -2.0617  0.0326 -1.9612
   9323SM  H16G12602   0.790   1.937  13.524 -0.4037  0.1211 -0.1395
   9323SM  C17F12603   0.607   1.946  13.650  0.1243 -0.3171  0.6392
   9323SM  H17F12604   0.503   1.972  13.622  0.8925  2.3415 -0.0044
   9323SM  H17G12605   0.654   2.018  13.719  1.1737  2.0626 -2.3284
   9323SM  C18F12606   0.615   1.807  13.708  0.0752  1.0060 -0.3561
   9323SM  H18F12607   0.724   1.787  13.717  0.4323  2.4200 -1.2371
   9323SM  H18G12608   0.573   1.727  13.643 -0.2891 -1.2558  2.4581
   9323SM  C19F12609   0.544   1.797  13.840 -0.5442  0.0081 -0.2574
   9323SM  H19F12610   0.435   1.779  13.828 -0.3613 -2.6705  1.4001
   9323SM  H19G12611   0.560   1.893  13.895  0.7854  0.4811 -1.4169
   9323SM  C20F12612   0.606   1.692  13.931  0.4151 -0.1333 -0.0422
   9323SM  H20F12613   0.712   1.718  13.951  0.7323 -1.3667 -0.0833
   9323SM  H20G12614   0.610   1.594  13.879  1.6542 -0.8720  1.3470
   9323SM  C21F12615   0.542   1.678  14.070  0.3460  0.3536  0.1830
   9323SM  H21F12616   0.449   1.622  14.048 -0.8501  3.1297 -2.7273
   9323SM  H21G12617   0.511   1.780  14.103 -0.9261 -0.3208  1.1546
   9323SM  C22F12618   0.643   1.622  14.171 -0.8794 -0.4198 -0.6802
   9323SM  H22F12619   0.736   1.682  14.175  1.5050 -3.8631 -0.4541
   9323SM  H22G12620   0.678   1.524  14.132  1.2674  0.3879 -0.9264
   9323SM  C23F12621   0.582   1.608  14.314 -0.3464 -0.1943 -0.0913
   9323SM  H23F12622   0.552   1.710  14.347 -0.9875 -0.5640  0.5002
   9323SM  H23G12623   0.662   1.569  14.380  0.0836 -0.1391 -0.5750
   9323SM  H23H12624   0.497   1.538  14.328  1.3592 -2.2041  0.7576
   9423SM     N12625   5.022   5.429  11.606 -0.0316 -0.2005 -0.2995
   9423SM   C1512626   5.093   5.564  11.579 -0.0986 -0.0956  0.0594
   9423SM  H15A12627   5.036   5.638  11.525 -0.7656 -1.2398 -0.8706
   9423SM  H15B12628   5.179   5.543  11.517 -0.8858 -0.7240 -0.8559
   9423SM  H15C12629   5.136   5.603  11.670  2.0535 -3.1208  0.4944
   9423SM   C1412630   5.010   5.371  11.468  0.5817 -0.0499 -0.0595
   9423SM  H14A12631   5.103   5.337  11.426  1.8281  1.4157  1.3657
   9423SM  H14B12632   4.969   5.442  11.398  1.0186  0.8197  0.5364
   9423SM  H14C12633   4.944   5.286  11.460  0.8112 -0.1854 -0.5508
   9423SM   C1312634   5.104   5.337  11.686 -0.1085 -0.4616 -0.0433
   9423SM  H13A12635   5.210   5.338  11.664  0.2396  1.1042  1.4968
   9423SM  H13B12636   5.067   5.236  11.673 -0.2893 -0.6332  1.5907
   9423SM  H13C12637   5.083   5.348  11.791 -0.6453 -0.4900 -0.1462
   9423SM   C1212638   4.884   5.446  11.672 -0.1837  0.8944 -0.6902
   9423SM  H12A12639   4.828   5.519  11.615  3.0878  0.9028 -4.2807
   9423SM  H12B12640   4.895   5.486  11.772  0.2540 -2.8408  0.9054
   9423SM   C1112641   4.794   5.321  11.694 -0.0902 -0.0352  0.1187
   9423SM  H11A12642   4.732   5.310  11.603  1.6633 -0.0243 -1.1235
   9423SM  H11B12643   4.718   5.342  11.773  1.5733  0.7968  1.5708
   9423SM     P12644   4.871   5.121  11.862  0.3991  0.0207 -0.1419
   9423SM   O1312645   4.734   5.067  11.895  0.1620 -0.3668 -0.8470
   9423SM   O1412646   4.990   5.031  11.863 -0.2683  0.4636  0.4207
   9423SM   O1112647   4.906   5.256  11.935 -0.5253  0.1752 -0.6165
   9423SM   O1212648   4.862   5.193  11.719 -0.2323 -0.0454 -0.2246
   9423SM   C1S12649   4.837   5.315  12.050 -0.4820 -0.8350 -0.1943
   9423SM   H1S12650   4.733   5.278  12.065 -1.9250  3.0895  0.9083
   9423SM   H1T12651   4.817   5.424  12.041 -0.5616 -1.0236 -3.2487
   9423SM    NF12652   4.828   5.330  12.295  0.3757 -0.1295 -0.7183
   9423SM   HNF12653   4.854   5.413  12.345 -1.7788 -1.2858  2.6310
   9423SM   C2S12654   4.919   5.299  12.183 -0.0767 -0.1711 -0.3856
   9423SM   H2S12655   4.951   5.193  12.191 -0.3994 -0.1931  0.9831
   9423SM   C3S12656   5.054   5.387  12.176  0.7531  0.0068 -0.1020
   9423SM   H3S12657   5.022   5.492  12.163  0.9025 -0.1464 -1.9326
   9423SM    O312658   5.135   5.356  12.070  0.3220  0.2151  0.3926
   9423SM   HO312659   5.079   5.296  12.019  0.7899  0.5588 -0.5372
   9423SM   C4S12660   5.121   5.369  12.301 -0.5223 -0.7224 -1.0335
   9423SM   H4S12661   5.156   5.268  12.331 -0.1991  0.0578  1.4520
   9423SM   C5S12662   5.157   5.467  12.393  0.0357 -0.2590  0.1509
   9423SM   H5S12663   5.126   5.568  12.361 -0.8541 -0.2313  1.0728
   9423SM   C6S12664   5.226   5.460  12.528  0.1073  0.3048  1.5170
   9423SM   H6S12665   5.176   5.537  12.591 -1.5350  1.7400 -1.3374
   9423SM   H6T12666   5.329   5.501  12.531 -0.1328  1.1159 -0.1650
   9423SM   C7S12667   5.239   5.326  12.600 -0.3801  0.1207 -0.3589
   9423SM   H7S12668   5.319   5.274  12.544 -1.8098 -2.1974 -0.3833
   9423SM   H7T12669   5.149   5.262  12.584 -1.1514  1.3165 -1.0245
   9423SM   C8S12670   5.269   5.333  12.747 -0.1549  0.3664 -0.1212
   9423SM   H8S12671   5.358   5.397  12.765  0.4442 -0.5119  0.1158
   9423SM   H8T12672   5.284   5.229  12.784 -1.4992  0.0504 -0.4077
   9423SM   C9S12673   5.152   5.390  12.831 -0.4215 -0.5695  0.4932
   9423SM   H9S12674   5.060   5.337  12.799  0.3218 -1.2435 -0.5729
   9423SM   H9T12675   5.142   5.498  12.805 -0.6358 -0.3719  1.3539
   9423SM  C10S12676   5.167   5.374  12.981  0.3220  0.4397  0.0509
   9423SM  H10S12677   5.140   5.270  13.010  0.8386  0.2853 -0.0143
   9423SM  H10T12678   5.084   5.431  13.029  1.8005  1.3406  1.6276
   9423SM  C11S12679   5.298   5.415  13.051 -0.3465 -0.5185 -0.7434
   9423SM  H11S12680   5.309   5.526  13.044 -0.2114 -0.4723  0.1338
   9423SM  H11T12681   5.374   5.362  12.991 -1.1051 -2.7914  0.2177
   9423SM  C12S12682   5.304   5.373  13.199  0.3284  0.4007  0.3881
   9423SM  H12S12683   5.410   5.380  13.231  0.7517 -0.6869 -0.6623
   9423SM  H12T12684   5.277   5.265  13.210  0.7534  0.0651 -1.4651
   9423SM  C13S12685   5.210   5.462  13.292  0.0391 -0.0058 -0.5687
   9423SM  H13S12686   5.111   5.464  13.242  0.3940 -1.8537 -1.4423
   9423SM  H13T12687   5.260   5.561  13.289 -1.1113  0.6127  0.3364
   9423SM  C14S12688   5.197   5.408  13.439  0.0740 -0.9665 -0.3411
   9423SM  H14S12689   5.299   5.381  13.474  2.3287  2.4432 -3.5542
   9423SM  H14T12690   5.128   5.322  13.450 -2.3290  0.6356 -1.9263
   9423SM  C15S12691   5.131   5.523  13.518 -0.8587 -0.7054 -0.9124
   9423SM  H15S12692   5.035   5.553  13.472 -0.3785 -0.6577 -1.9188
   9423SM  H15T12693   5.195   5.614  13.520  1.5470 -2.2890 -0.9819
   9423SM  C16S12694   5.104   5.487  13.661  0.7967  1.0473 -0.0215
   9423SM  H16S12695   5.193   5.466  13.724 -0.6225  0.0938  1.7348
   9423SM  H16T12696   5.047   5.392  13.658 -1.7586  2.4336  1.5153
   9423SM  C17S12697   5.020   5.582  13.747  0.1737  0.3251  0.1185
   9423SM  H17S12698   4.921   5.569  13.698 -0.5865  0.2384  1.6069
   9423SM  H17T12699   5.047   5.687  13.726 -1.0103  0.3568 -1.4167
   9423SM  C18S12700   5.013   5.542  13.892 -0.2415  0.1257  0.2697
   9423SM  H18S12701   5.004   5.431  13.900  0.2340 -0.0376 -1.2235
   9423SM  H18T12702   4.937   5.595  13.953 -1.4706 -0.0797 -1.0363
   9423SM  H18U12703   5.119   5.563  13.920  0.3352 -0.3086 -1.4674
   9423SM   C1F12704   4.721   5.258  12.326 -0.2095  0.2081  0.1480
   9423SM    OF12705   4.701   5.153  12.266  0.2015  0.6018 -0.1961
   9423SM   C2F12706   4.610   5.323  12.419 -0.2410 -0.2672  0.2988
   9423SM   H2F12707   4.528   5.356  12.352  0.3148  0.3872 -0.0684
   9423SM   H2G12708   4.653   5.416  12.462 -0.7730  1.3440 -2.4667
   9423SM   C3F12709   4.556   5.230  12.527  0.5144 -0.2667 -0.3385
   9423SM   H3F12710   4.508   5.156  12.461 -0.0126  1.7560 -2.3461
   9423SM   H3G12711   4.471   5.287  12.571  0.4187  0.1121 -0.9943
   9423SM   C4F12712   4.659   5.172  12.626 -0.0970 -0.3168  0.5863
   9423SM   H4F12713   4.732   5.109  12.571 -0.4499 -0.1417 -0.0867
   9423SM   H4G12714   4.611   5.102  12.697  1.3521 -2.8212 -0.7542
   9423SM   C5F12715   4.755   5.269  12.694 -0.7341  0.4464  0.0446
   9423SM   H5F12716   4.759   5.363  12.635 -0.5200  0.3240 -0.1393
   9423SM   H5G12717   4.857   5.225  12.689 -1.5308 -1.7132 -5.6205
   9423SM   C6F12718   4.714   5.318  12.831  0.1093  0.3692 -0.1292
   9423SM   H6F12719   4.625   5.384  12.834 -0.1522  0.3358 -3.6128
   9423SM   H6G12720   4.793   5.383  12.874 -0.8597  1.3080  0.2666
   9423SM   C7F12721   4.682   5.202  12.935 -0.0030 -0.0841  0.3696
   9423SM   H7F12722   4.758   5.121  12.936  0.8186  0.5558 -2.2551
   9423SM   H7G12723   4.581   5.164  12.911  0.0565  0.3584 -0.6136
   9423SM   C8F12724   4.690   5.267  13.074  0.1008  0.3190 -0.1971
   9423SM   H8F12725   4.618   5.351  13.067 -1.2966 -0.7742  0.5005
   9423SM   H8G12726   4.796   5.299  13.088  1.2331 -2.9633 -0.4278
   9423SM   C9F12727   4.647   5.172  13.187  0.6759 -0.3053 -0.4596
   9423SM   H9F12728   4.704   5.078  13.175 -1.3939 -1.7978  0.7869
   9423SM   H9G12729   4.539   5.147  13.179  0.2382  1.5282 -0.8269
   9423SM  C10F12730   4.659   5.225  13.324  0.1394 -0.4471 -0.3216
   9423SM  H10F12731   4.573   5.185  13.382 -0.6639  1.3064 -0.2252
   9423SM  H10G12732   4.644   5.335  13.323  2.0925 -0.1437  0.4913
   9423SM  C11F12733   4.794   5.202  13.382  0.7141  0.7358  0.2331
   9423SM  H11F12734   4.864   5.255  13.315  0.0207  3.6521  1.6692
   9423SM  H11G12735   4.820   5.093  13.387  0.9477  0.7876  0.1781
   9423SM  C12F12736   4.827   5.259  13.515  0.3937  0.4524  0.3303
   9423SM  H12F12737   4.806   5.368  13.517 -0.5507  0.2768  2.7058
   9423SM  H12G12738   4.930   5.237  13.549  1.1751  1.4316 -1.2983
   9423SM  C13F12739   4.737   5.197  13.616  0.5863 -0.7196  0.1808
   9423SM  H13F12740   4.731   5.086  13.608  0.1254 -0.8306  1.6213
   9423SM  H13G12741   4.636   5.237  13.593  0.3223 -1.0721  0.6887
   9423SM  C14F12742   4.773   5.246  13.759  0.8700  0.1626 -0.1865
   9423SM  H14F12743   4.766   5.356  13.777  0.2550 -0.3999  3.9644
   9423SM  H14G12744   4.880   5.227  13.785  0.9565  0.4439 -0.3275
   9423SM  C15F12745   4.679   5.166  13.857  0.0873  0.2637 -0.2281
   9423SM  H15F12746   4.734   5.072  13.878 -1.4763 -0.5041  0.6134
   9423SM  H15G12747   4.579   5.149  13.813  0.7620  1.9678 -2.6450
   9423SM  C16F12748   4.667   5.233  13.997 -0.5662 -0.4082  0.1615
   9423SM  H16F12749   4.612   5.329  13.987  0.5231  0.2143 -0.0639
   9423SM  H16G12750   4.769   5.243  14.041  0.7724 -2.2786 -2.3234
   9423SM  C17F12751   4.592   5.145  14.096  0.0355 -0.2106  0.2598
   9423SM  H17F12752   4.652   5.061  14.136 -1.7054 -1.2124  0.8830
   9423SM  H17G12753   4.504   5.108  14.039 -0.9400 -1.0999  2.2627
   9423SM  C18F12754   4.539   5.226  14.218 -0.3136 -0.1872  0.8901
   9423SM  H18F12755   4.501   5.149  14.289 -0.7429 -0.6456  0.1730
   9423SM  H18G12756   4.451   5.290  14.193 -0.5496 -1.3861 -1.5764
   9423SM  C19F12757   4.647   5.304  14.299 -0.5697 -0.2376  0.1209
   9423SM  H19F12758   4.694   5.377  14.230  1.8902 -0.0289  1.9013
   9423SM  H19G12759   4.732   5.236  14.320  0.4396  0.9786  0.0718
   9423SM  C20F12760   4.596   5.383  14.420  0.4495  0.2909 -0.0035
   9423SM  H20F12761   4.542   5.326  14.500 -0.5680  0.6932 -0.3905
   9423SM  H20G12762   4.529   5.462  14.382 -1.2011 -1.0075  0.0666
   9423SM  C21F12763   4.708   5.458  14.496  0.1541 -0.1511  0.0413
   9423SM  H21F12764   4.741   5.543  14.433 -1.1128  0.6210  0.3815
   9423SM  H21G12765   4.785   5.385  14.529  0.6811  0.6782  0.6858
   9423SM  C22F12766   4.649   5.513  14.630 -0.5644  0.3551  0.2582
   9423SM  H22F12767   4.608   5.431  14.692 -2.4209  1.6918  0.8959
   9423SM  H22G12768   4.577   5.594  14.605 -1.7136 -1.0631 -1.2469
   9423SM  C23F12769   4.768   5.569  14.700 -0.7934  0.0179 -0.4795
   9423SM  H23F12770   4.743   5.618  14.797  0.7929 -0.8808  0.4188
   9423SM  H23G12771   4.813   5.646  14.633  0.6083 -1.5275 -1.3834
   9423SM  H23H12772   4.838   5.487  14.727  0.0158  0.7445 -0.3224
   9523SM     N12773   1.174   0.511  12.403  0.1673 -0.0859 -1.0371
   9523SM   C1512774   1.268   0.508  12.522 -0.3138 -0.2097  0.3292
   9523SM  H15A12775   1.349   0.579  12.512 -0.9687  0.2820 -2.2739
   9523SM  H15B12776   1.300   0.405  12.532 -1.3737 -0.3906  2.2411
   9523SM  H15C12777   1.223   0.540  12.614 -0.2290 -0.0595  0.3194
   9523SM   C1412778   1.258   0.503  12.285  0.2006 -0.5150  0.5440
   9523SM  H14A12779   1.297   0.406  12.259 -0.7634 -1.3993  2.2687
   9523SM  H14B12780   1.341   0.569  12.306  0.6116 -0.7580 -0.2692
   9523SM  H14C12781   1.200   0.533  12.199 -0.5487 -0.9372  0.8951
   9523SM   C1312782   1.090   0.393  12.407 -0.3301  0.1629 -0.2818
   9523SM  H13A12783   1.017   0.398  12.486 -1.9424  1.6680 -1.7468
   9523SM  H13B12784   1.157   0.309  12.419  1.3818  1.6384  1.2229
   9523SM  H13C12785   1.033   0.392  12.315 -0.7469 -0.6465 -0.0136
   9523SM   C1212786   1.102   0.644  12.392  0.1342 -0.4008 -0.1307
   9523SM  H12A12787   1.032   0.651  12.474  0.7600 -1.6239  0.5436
   9523SM  H12B12788   1.047   0.648  12.299 -0.0217 -1.1591 -0.0786
   9523SM   C1112789   1.178   0.780  12.387  0.3194  0.3068  0.0020
   9523SM  H11A12790   1.102   0.857  12.361  0.0559 -0.0236 -0.1993
   9523SM  H11B12791   1.248   0.778  12.301  1.5578 -0.1986  0.9782
   9523SM     P12792   1.160   0.838  12.637 -0.5115 -0.0826 -0.1701
   9523SM   O1312793   1.058   0.931  12.596  0.0360 -0.0514  0.4873
   9523SM   O1412794   1.108   0.715  12.697  0.7036 -0.3266 -0.0652
   9523SM   O1112795   1.256   0.912  12.745  0.3165  0.2394  0.9190
   9523SM   O1212796   1.243   0.807  12.512 -0.0912 -0.0311  0.3208
   9523SM   C1S12797   1.381   0.855  12.765 -0.9413  0.0538  0.2332
   9523SM   H1S12798   1.442   0.903  12.685 -1.1102 -0.7511 -0.3866
   9523SM   H1T12799   1.384   0.746  12.748 -2.1853  0.2066 -1.1969
   9523SM    NF12800   1.577   0.866  12.910  0.7477  0.2805 -0.0182
   9523SM   HNF12801   1.597   0.780  12.957  2.3614  0.1618 -0.8654
   9523SM   C2S12802   1.436   0.893  12.910 -0.3654  0.3913  1.3571
   9523SM   H2S12803   1.420   1.002  12.921 -2.5415  0.2130  0.5012
   9523SM   C3S12804   1.351   0.824  13.017  0.6973 -0.0306 -0.9136
   9523SM   H3S12805   1.367   0.715  13.001  0.5590 -0.0682 -0.7937
   9523SM    O312806   1.211   0.843  12.997 -0.5251 -0.5596 -0.2457
   9523SM   HO312807   1.201   0.856  12.902  0.6641  0.0155 -0.3193
   9523SM   C4S12808   1.391   0.855  13.158  0.2590 -0.3343  0.0822
   9523SM   H4S12809   1.410   0.962  13.170 -0.2544 -0.3295  0.9389
   9523SM   C5S12810   1.413   0.768  13.258  0.8848 -0.4197  0.1076
   9523SM   H5S12811   1.386   0.664  13.237 -0.1638 -0.0580 -0.3817
   9523SM   C6S12812   1.446   0.797  13.409  0.4252 -0.4341  0.1491
   9523SM   H6S12813   1.538   0.740  13.437 -0.1263 -1.4574 -0.0517
   9523SM   H6T12814   1.366   0.750  13.470  2.3373 -2.9823  0.9050
   9523SM   C7S12815   1.470   0.942  13.456  0.0135  0.0407 -0.6260
   9523SM   H7S12816   1.377   1.003  13.455 -0.2561 -0.2940  1.2303
   9523SM   H7T12817   1.536   0.991  13.381 -0.1542  0.9519 -0.1955
   9523SM   C8S12818   1.537   0.950  13.597 -0.0321  0.1627  0.1256
   9523SM   H8S12819   1.520   1.054  13.631  0.3992  0.3654 -0.2571
   9523SM   H8T12820   1.647   0.932  13.588 -0.3556 -1.7139 -0.5044
   9523SM   C9S12821   1.474   0.860  13.703  0.0596  0.0646 -0.7015
   9523SM   H9S12822   1.463   0.754  13.672 -0.1054  0.4387 -1.9768
   9523SM   H9T12823   1.366   0.888  13.712 -0.1582 -0.4288 -1.6740
   9523SM  C10S12824   1.552   0.849  13.831 -0.4483 -0.0592 -0.6042
   9523SM  H10S12825   1.570   0.952  13.867 -1.3591 -0.1596  0.1898
   9523SM  H10T12826   1.640   0.787  13.806 -1.8024 -2.1073 -0.5303
   9523SM  C11S12827   1.480   0.778  13.945  0.0750 -0.3826  0.0707
   9523SM  H11S12828   1.416   0.857  13.990  1.4288 -0.3454  2.0425
   9523SM  H11T12829   1.559   0.755  14.020  0.6099 -1.8650 -0.9063
   9523SM  C12S12830   1.392   0.651  13.926 -0.5609 -0.3008  0.1376
   9523SM  H12S12831   1.466   0.580  13.883  0.1681 -0.0229  0.8895
   9523SM  H12T12832   1.307   0.677  13.860 -1.9846 -1.7309  1.3133
   9523SM  C13S12833   1.320   0.597  14.050 -0.3870 -0.1838 -0.2260
   9523SM  H13S12834   1.263   0.679  14.098  0.1707 -0.7199  1.4168
   9523SM  H13T12835   1.392   0.550  14.120 -0.0982  1.3664  0.5585
   9523SM  C14S12836   1.235   0.481  14.011 -0.5410 -0.0807 -0.3712
   9523SM  H14S12837   1.300   0.404  13.965  0.8117  0.6008  0.3145
   9523SM  H14T12838   1.157   0.507  13.936  0.4773 -0.5625 -1.6369
   9523SM  C15S12839   1.169   0.420  14.132  0.0316  0.9555 -0.0387
   9523SM  H15S12840   1.112   0.334  14.091  0.4148  0.0607  1.2173
   9523SM  H15T12841   1.094   0.491  14.173 -0.0975 -0.0950  1.6474
   9523SM  C16S12842   1.251   0.365  14.245  0.6773 -0.2843  0.1870
   9523SM  H16S12843   1.253   0.442  14.325 -1.2679 -1.3240  1.3160
   9523SM  H16T12844   1.355   0.351  14.209  1.2714 -0.1181  1.7377
   9523SM  C17S12845   1.206   0.236  14.331 -0.7543 -0.1800  0.9982
   9523SM  H17S12846   1.101   0.250  14.364 -0.7073 -0.2636  1.1834
   9523SM  H17T12847   1.263   0.242  14.426  2.4092 -2.6915 -0.5413
   9523SM  C18S12848   1.234   0.096  14.266 -0.6484  0.3882  0.0846
   9523SM  H18S12849   1.197   0.021  14.339  1.5340  0.6779  1.5873
   9523SM  H18T12850   1.342   0.076  14.248 -0.7449  0.6606 -0.8681
   9523SM  H18U12851   1.186   0.081  14.166  3.6598 -1.0547 -2.0377
   9523SM   C1F12852   1.668   0.937  12.848  0.0565  0.0610 -0.3153
   9523SM    OF12853   1.650   1.055  12.812 -0.3745 -0.6711  0.2770
   9523SM   C2F12854   1.801   0.871  12.832  0.5762 -0.2712 -0.5676
   9523SM   H2F12855   1.848   0.909  12.739 -0.5066  2.4156 -0.1410
   9523SM   H2G12856   1.801   0.760  12.834 -0.1280 -0.2761 -0.3354
   9523SM   C3F12857   1.901   0.902  12.949 -0.2609  0.8219 -0.2765
   9523SM   H3F12858   1.937   1.007  12.950  0.2170  0.6778  1.9928
   9523SM   H3G12859   1.988   0.836  12.928 -1.2103 -0.2974 -0.7785
   9523SM   C4F12860   1.847   0.854  13.085 -0.4731 -0.1192 -0.4536
   9523SM   H4F12861   1.827   0.745  13.076 -0.6184  0.0499 -2.6826
   9523SM   H4G12862   1.758   0.915  13.109  0.2777  1.5241 -1.6892
   9523SM   C5F12863   1.946   0.882  13.201  0.3549  0.9672  0.2878
   9523SM   H5F12864   1.998   0.979  13.191  1.8723  0.4867  2.7795
   9523SM   H5G12865   2.029   0.809  13.187 -0.9175 -0.3714 -0.5384
   9523SM   C6F12866   1.887   0.851  13.341 -0.2372 -0.0394  0.1161
   9523SM   H6F12867   1.875   0.741  13.351 -1.6239 -0.0024 -0.8669
   9523SM   H6G12868   1.789   0.898  13.361 -0.2276 -0.0760  0.2529
   9523SM   C7F12869   1.988   0.896  13.452 -0.0173 -0.7799 -0.1883
   9523SM   H7F12870   1.984   1.007  13.453  0.2018 -0.7756  0.2072
   9523SM   H7G12871   2.092   0.865  13.428 -0.0673 -0.1235 -1.3222
   9523SM   C8F12872   1.950   0.834  13.586  0.2256 -0.3302  0.3121
   9523SM   H8F12873   1.955   0.724  13.569  0.0592 -0.2568 -0.2257
   9523SM   H8G12874   1.840   0.841  13.600 -0.0403  0.8502 -1.9369
   9523SM   C9F12875   2.029   0.881  13.699 -0.0110  0.2497 -0.4324
   9523SM   H9F12876   2.025   0.990  13.716 -1.6941  0.2027 -0.3663
   9523SM   H9G12877   2.135   0.853  13.683  0.4907  1.4510  0.6386
   9523SM  C10F12878   1.972   0.826  13.833 -0.1524  0.1246  0.7872
   9523SM  H10F12879   1.960   0.716  13.838 -0.8899  0.1382 -0.4145
   9523SM  H10G12880   1.869   0.867  13.834  0.4842  2.5140 -3.8509
   9523SM  C11F12881   2.047   0.871  13.961  0.4577 -0.2077  0.4526
   9523SM  H11F12882   2.065   0.978  13.937  0.5270 -0.7261 -2.0637
   9523SM  H11G12883   2.148   0.825  13.964  1.5078  1.7462 -1.4931
   9523SM  C12F12884   1.960   0.828  14.080 -0.5994  0.7744 -0.2044
   9523SM  H12F12885   2.021   0.845  14.171 -0.3992 -0.4732 -0.0837
   9523SM  H12G12886   1.943   0.718  14.075 -3.0239  1.0218  0.7916
   9523SM  C13F12887   1.837   0.914  14.095 -0.4351  0.4186 -0.0384
   9523SM  H13F12888   1.769   0.908  14.007  1.5093  1.3675 -1.6698
   9523SM  H13G12889   1.864   1.019  14.118  2.6839 -0.2674 -0.1326
   9523SM  C14F12890   1.755   0.859  14.208 -0.1125 -0.0850 -0.6920
   9523SM  H14F12891   1.805   0.874  14.306 -1.4683  0.6440 -0.0792
   9523SM  H14G12892   1.734   0.750  14.202  1.0997 -0.5195  1.7211
   9523SM  C15F12893   1.623   0.937  14.221  0.5124 -0.1565  0.0029
   9523SM  H15F12894   1.575   0.953  14.122 -1.1860 -0.9196  0.6620
   9523SM  H15G12895   1.638   1.038  14.265 -1.6405 -0.0409  0.5912
   9523SM  C16F12896   1.522   0.870  14.318  0.5830  0.3969 -0.1540
   9523SM  H16F12897   1.581   0.857  14.412  0.4493  3.4556  0.4533
   9523SM  H16G12898   1.491   0.768  14.286 -1.6866  0.8994  0.2645
   9523SM  C17F12899   1.407   0.963  14.345  0.7898 -0.3606 -0.1948
   9523SM  H17F12900   1.345   0.977  14.253 -1.6047  0.3304  1.4238
   9523SM  H17G12901   1.446   1.063  14.375  0.6239  0.3222 -2.0922
   9523SM  C18F12902   1.309   0.903  14.448  0.0621  0.6586 -0.1614
   9523SM  H18F12903   1.370   0.883  14.539  1.9947 -0.1934 -1.5884
   9523SM  H18G12904   1.290   0.807  14.396 -0.1094  0.7631 -0.2950
   9523SM  C19F12905   1.185   0.990  14.464 -0.9959  0.4605 -0.1584
   9523SM  H19F12906   1.131   0.997  14.367  1.1157  0.8433 -1.3507
   9523SM  H19G12907   1.211   1.093  14.496 -2.1905  0.0224  2.5840
   9523SM  C20F12908   1.091   0.961  14.588 -0.4792 -0.0608 -0.1275
   9523SM  H20F12909   1.017   0.883  14.560 -0.5474  0.2569 -0.8632
   9523SM  H20G12910   1.033   1.053  14.608 -0.0725  0.6048 -1.8230
   9523SM  C21F12911   1.170   0.925  14.716 -0.2611 -0.5873 -0.1059
   9523SM  H21F12912   1.237   1.014  14.718  0.5637 -1.1768 -0.8397
   9523SM  H21G12913   1.233   0.834  14.709 -1.4329 -1.3423 -1.2131
   9523SM  C22F12914   1.093   0.929  14.852 -0.0582  0.1994 -0.1362
   9523SM  H22F12915   1.025   0.842  14.850  0.0031  0.1520 -2.7110
   9523SM  H22G12916   1.025   1.017  14.855  0.1113  0.3286  0.0929
   9523SM  C23F12917   1.178   0.904  14.973 -0.0083 -0.0933 -0.4628
   9523SM  H23F12918   1.119   0.926  15.064  2.0277 -0.4881  1.0370
   9523SM  H23G12919   1.276   0.957  14.971  1.9233 -3.3738 -1.5699
   9523SM  H23H12920   1.216   0.799  14.981 -0.0708 -0.0593  0.3645
   9623SM     N12921   1.916   6.401  12.077  0.5697 -0.1486 -0.0058
   9623SM   C1512922   1.901   6.262  12.024  0.7258  0.5759 -0.4091
   9623SM  H15A12923   1.807   6.232  12.068  0.3390  1.3578 -0.6804
   9623SM  H15B12924   1.981   6.194  12.050  1.2007  1.3280  0.1382
   9623SM  H15C12925   1.891   6.258  11.917 -0.4798 -0.9869 -0.2669
   9623SM   C1412926   2.045   6.463  12.027 -0.3292 -0.7002  0.7847
   9623SM  H14A12927   2.136   6.420  12.065 -0.6477 -0.5801  1.6960
   9623SM  H14B12928   2.049   6.570  12.043  2.3347 -0.7229  0.5756
   9623SM  H14C12929   2.049   6.454  11.919  1.5100 -1.0963  0.8625
   9623SM   C1312930   1.802   6.481  12.021  0.9847 -0.3655 -0.4256
   9623SM  H13A12931   1.704   6.452  12.055  0.9065  0.1022 -0.2462
   9623SM  H13B12932   1.798   6.478  11.913  2.2591  1.7206 -0.5968
   9623SM  H13C12933   1.820   6.584  12.049 -0.7757  0.6728 -2.6939
   9623SM   C1212934   1.921   6.385  12.228  0.4313 -0.5835 -0.4033
   9623SM  H12A12935   2.023   6.355  12.248  0.1888 -1.5622 -0.5787
   9623SM  H12B12936   1.867   6.298  12.261  1.0032  0.2732  3.1394
   9623SM   C1112937   1.886   6.507  12.317  0.1801  0.4014  0.0514
   9623SM  H11A12938   1.886   6.472  12.423 -2.2278 -0.4253 -0.1807
   9623SM  H11B12939   1.783   6.544  12.304 -1.3720 -2.6245  2.4309
   9623SM     P12940   2.125   6.601  12.369 -0.0733 -0.4180  0.2831
   9623SM   O1312941   2.198   6.490  12.306 -0.2140 -0.4041 -0.1983
   9623SM   O1412942   2.197   6.735  12.361  0.0820 -0.5535 -0.7654
   9623SM   O1112943   2.090   6.569  12.524  0.6140  0.1742 -0.2385
   9623SM   O1212944   1.977   6.617  12.309  0.3396  0.2574  0.1939
   9623SM   C1S12945   2.157   6.476  12.606  0.2237 -0.4471 -0.3466
   9623SM   H1S12946   2.250   6.440  12.557 -0.5978 -2.9664 -0.1785
   9623SM   H1T12947   2.091   6.389  12.626 -1.1513  0.6557  0.0754
   9623SM    NF12948   2.264   6.444  12.833 -0.6119 -0.5830  0.4410
   9623SM   HNF12949   2.234   6.375  12.897  1.4619 -0.0045  2.1663
   9623SM   C2S12950   2.178   6.531  12.757  0.2103 -0.5577  0.5731
   9623SM   H2S12951   2.226   6.631  12.759  0.6152 -0.7358  0.0192
   9623SM   C3S12952   2.044   6.553  12.831  0.3311  0.2647  0.1614
   9623SM   H3S12953   1.995   6.455  12.850 -0.1761  0.2115 -1.3238
   9623SM    O312954   1.946   6.614  12.749  0.1729  0.2771  0.0154
   9623SM   HO312955   1.983   6.623  12.661  1.6555  1.7899  0.7317
   9623SM   C4S12956   2.068   6.631  12.958  0.4200  0.1396 -0.2766
   9623SM   H4S12957   2.089   6.574  13.050 -2.4982  1.9422  1.6854
   9623SM   C5S12958   2.065   6.765  12.965 -0.2477  0.6010  0.2688
   9623SM   H5S12959   2.035   6.833  12.884 -1.7683 -0.3267  0.0120
   9623SM   C6S12960   2.101   6.835  13.093  0.2681  0.4272  0.6483
   9623SM   H6S12961   2.045   6.930  13.105 -0.2701  0.0806  0.9247
   9623SM   H6T12962   2.207   6.862  13.075 -0.0493  0.7714 -0.8918
   9623SM   C7S12963   2.088   6.759  13.223 -0.4377 -0.1126 -0.4175
   9623SM   H7S12964   2.150   6.668  13.236  0.0015  0.4504  2.0268
   9623SM   H7T12965   1.979   6.735  13.220 -0.8143  1.1613  1.3743
   9623SM   C8S12966   2.107   6.846  13.345 -0.6437  0.0948  0.1588
   9623SM   H8S12967   2.040   6.934  13.334 -1.2208 -0.1698  1.4324
   9623SM   H8T12968   2.215   6.869  13.335 -0.3694 -1.5895 -1.3844
   9623SM   C9S12969   2.073   6.765  13.472  0.1895  0.3110  0.2746
   9623SM   H9S12970   2.138   6.675  13.479  0.4367  0.5739  1.5957
   9623SM   H9T12971   1.967   6.733  13.481  0.1552  0.8696  2.2737
   9623SM  C10S12972   2.100   6.839  13.605 -0.4739  1.2920 -0.4768
   9623SM  H10S12973   2.048   6.937  13.602  0.4017  1.8342  1.0863
   9623SM  H10T12974   2.208   6.855  13.627 -0.1000 -0.1072 -1.1713
   9623SM  C11S12975   2.036   6.758  13.723 -0.7255 -0.0694  0.4139
   9623SM  H11S12976   2.082   6.657  13.719  1.2655  0.7644  0.5923
   9623SM  H11T12977   1.927   6.750  13.708 -1.0615  3.5193  0.1066
   9623SM  C12S12978   2.073   6.807  13.866 -0.9136 -0.0708 -0.1694
   9623SM  H12S12979   2.043   6.911  13.888  1.5727  0.4733  0.9848
   9623SM  H12T12980   2.183   6.810  13.879 -0.7520 -2.8757 -0.2811
   9623SM  C13S12981   2.029   6.723  13.982 -0.0098  0.7744 -0.5220
   9623SM  H13S12982   2.051   6.614  13.974 -2.0585  0.2770 -0.1936
   9623SM  H13T12983   1.918   6.726  13.988 -0.2502 -2.3784 -1.4043
   9623SM  C14S12984   2.087   6.766  14.118  0.0528 -0.3224 -0.2312
   9623SM  H14S12985   2.063   6.873  14.139  1.7825  0.2074 -0.7576
   9623SM  H14T12986   2.198   6.760  14.126  0.1130  1.8422  1.8509
   9623SM  C15S12987   2.032   6.681  14.237 -0.6513 -0.1882  0.1633
   9623SM  H15S12988   2.055   6.576  14.210 -0.6587  0.1892 -1.4552
   9623SM  H15T12989   1.921   6.686  14.250 -0.6690 -1.1274  0.4342
   9623SM  C16S12990   2.081   6.722  14.378  0.5016  0.0716 -0.5082
   9623SM  H16S12991   2.024   6.817  14.386 -1.3073 -1.1117  3.8874
   9623SM  H16T12992   2.189   6.745  14.387  0.2639  1.2679 -0.6571
   9623SM  C17S12993   2.040   6.615  14.482 -0.5644 -0.0484 -0.2939
   9623SM  H17S12994   1.931   6.598  14.464 -0.5442  1.3449 -2.1057
   9623SM  H17T12995   2.030   6.660  14.583  2.1115 -0.5094  0.2350
   9623SM  C18S12996   2.123   6.487  14.479 -0.0051 -0.6262  0.1294
   9623SM  H18S12997   2.231   6.512  14.484  0.1926 -1.2802 -0.6040
   9623SM  H18T12998   2.102   6.423  14.391  2.2957  0.3635 -1.2265
   9623SM  H18U12999   2.098   6.431  14.572 -0.7555  1.7364  1.4538
   9623SM   C1F13000   2.394   6.445  12.805 -0.0777  0.3241  0.5980
   9623SM    OF13001   2.445   6.522  12.725  0.0020  0.0213 -0.4036
   9623SM   C2F13002   2.474   6.339  12.892 -1.1786 -0.0749  0.1277
   9623SM   H2F13003   2.577   6.316  12.859 -0.5206  1.8378  0.7195
   9623SM   H2G13004   2.415   6.245  12.887 -2.0498  0.3659  1.4275
   9623SM   C3F13005   2.474   6.381  13.041 -0.6362  0.1806 -0.2912
   9623SM   H3F13006   2.549   6.316  13.091  0.5147  1.2878 -0.5222
   9623SM   H3G13007   2.372   6.355  13.079 -0.7531 -1.2402 -1.5076
   9623SM   C4F13008   2.507   6.528  13.064  0.1674 -0.1774  0.1526
   9623SM   H4F13009   2.433   6.589  13.008  0.0945  0.8884  1.3593
   9623SM   H4G13010   2.611   6.540  13.029  0.1133 -0.3715 -0.0782
   9623SM   C5F13011   2.505   6.576  13.210  0.4117  0.2074 -0.4843
   9623SM   H5F13012   2.567   6.515  13.280  0.4036  0.8537  0.1017
   9623SM   H5G13013   2.400   6.574  13.246  0.9706 -1.5352  1.2561
   9623SM   C6F13014   2.553   6.722  13.232  0.3648  0.6024 -1.0978
   9623SM   H6F13015   2.497   6.789  13.163  1.7146  1.1415 -1.6959
   9623SM   H6G13016   2.661   6.732  13.209  0.4369  1.5216 -0.4250
   9623SM   C7F13017   2.518   6.772  13.373 -0.1722 -0.7753  0.2774
   9623SM   H7F13018   2.420   6.726  13.398 -2.5461  3.3272 -0.6395
   9623SM   H7G13019   2.492   6.880  13.377  2.7607  0.0150  0.4077
   9623SM   C8F13020   2.629   6.771  13.476 -0.0076  0.3740  0.2242
   9623SM   H8F13021   2.697   6.858  13.467  0.6331  0.2303  2.6941
   9623SM   H8G13022   2.695   6.683  13.463  0.1339 -0.0030  2.8133
   9623SM   C9F13023   2.582   6.783  13.630  0.4094  0.2909  0.4625
   9623SM   H9F13024   2.527   6.689  13.653  1.5846 -0.4307  0.4152
   9623SM   H9G13025   2.508   6.866  13.638  1.2851  1.4517 -2.2714
   9623SM  C10F13026   2.705   6.818  13.720  0.0751 -0.5128 -0.1681
   9623SM  H10F13027   2.746   6.912  13.677  0.9831 -0.5791  0.5226
   9623SM  H10G13028   2.781   6.738  13.711  0.7760  0.1415 -0.2154
   9623SM  C11F13029   2.670   6.848  13.861 -0.4032 -0.4365  0.7425
   9623SM  H11F13030   2.596   6.931  13.864  0.6727  0.5631  0.2559
   9623SM  H11G13031   2.757   6.882  13.920 -1.1587  0.7820  1.1858
   9623SM  C12F13032   2.601   6.734  13.942  0.6001  0.0326  0.1585
   9623SM  H12F13033   2.681   6.663  13.974 -0.0753 -1.3777 -1.1599
   9623SM  H12G13034   2.522   6.675  13.891 -0.1112  0.4720  0.7342
   9623SM  C13F13035   2.542   6.798  14.074 -0.9814  0.5611  0.4010
   9623SM  H13F13036   2.460   6.869  14.048 -0.2588  1.1803 -0.2502
   9623SM  H13G13037   2.625   6.855  14.120  0.1435 -0.0548 -0.7927
   9623SM  C14F13038   2.487   6.690  14.168 -0.3729  0.0424  0.4398
   9623SM  H14F13039   2.562   6.609  14.162 -1.1455 -0.5829 -2.3600
   9623SM  H14G13040   2.396   6.648  14.121  1.3384  0.4602 -3.6879
   9623SM  C15F13041   2.457   6.736  14.309  0.3162 -0.6305 -0.5548
   9623SM  H15F13042   2.426   6.647  14.368 -1.1568 -0.3244 -0.8293
   9623SM  H15G13043   2.371   6.806  14.318  0.6546 -0.2673 -0.0573
   9623SM  C16F13044   2.576   6.789  14.383 -0.0670 -0.1410 -0.4086
   9623SM  H16F13045   2.555   6.811  14.489 -1.4432  1.4466 -0.9677
   9623SM  H16G13046   2.609   6.882  14.331 -0.8456 -0.6323 -1.8645
   9623SM  C17F13047   2.696   6.687  14.380 -0.2693 -0.0252 -0.0069
   9623SM  H17F13048   2.740   6.685  14.278  2.6639  3.8448  0.9221
   9623SM  H17G13049   2.673   6.588  14.424 -1.0382  0.7547  1.4578
   9623SM  C18F13050   2.813   6.736  14.453 -0.9562 -0.3505  0.0619
   9623SM  H18F13051   2.846   6.833  14.412 -1.8624  1.0598  2.4656
   9623SM  H18G13052   2.891   6.656  14.453 -0.9422 -0.3391 -0.4327
   9623SM  C19F13053   2.797   6.763  14.599  0.8499  0.4925 -0.3226
   9623SM  H19F13054   2.732   6.680  14.635  2.4315 -0.9703 -0.6751
   9623SM  H19G13055   2.736   6.853  14.618 -1.3128 -0.8846 -0.3752
   9623SM  C20F13056   2.927   6.752  14.688  0.1620  0.2430  0.0964
   9623SM  H20F13057   2.981   6.847  14.669 -0.0227  0.1990 -0.6873
   9623SM  H20G13058   2.990   6.670  14.649 -0.4594  0.8847 -2.4222
   9623SM  C21F13059   2.899   6.736  14.834  0.5369  0.0079  0.8469
   9623SM  H21F13060   2.834   6.648  14.852  0.6186  0.0890  1.5718
   9623SM  H21G13061   2.832   6.817  14.871  2.1446  0.4036  3.0961
   9623SM  C22F13062   3.027   6.725  14.921  0.3299  0.4485  0.1171
   9623SM  H22F13063   3.084   6.640  14.878 -0.2612 -0.9450  1.9555
   9623SM  H22G13064   3.020   6.695  15.028  1.9915  1.1032  0.4425
   9623SM  C23F13065   3.120   6.849  14.915  1.1722 -0.3586 -0.5953
   9623SM  H23F13066   3.122   6.906  15.011 -2.1109  2.5106 -2.0389
   9623SM  H23G13067   3.098   6.923  14.835 -0.8690 -0.3066 -0.0381
   9623SM  H23H13068   3.224   6.813  14.900  2.1366  1.0897  1.9669
   9723SM     N13069   4.111   5.048  11.942  0.4269  0.3659 -0.1764
   9723SM   C1513070   4.131   5.003  11.798  0.7032  0.0754  0.2586
   9723SM  H15A13071   4.235   4.981  11.781  0.7215  1.3431 -1.3685
   9723SM  H15B13072   4.080   5.065  11.726 -2.2781 -0.6120  1.5882
   9723SM  H15C13073   4.085   4.906  11.780 -0.2788  1.0456 -2.9773
   9723SM   C1413074   3.971   5.026  11.984  0.2325  0.0280  0.8766
   9723SM  H14A13075   3.955   5.064  12.084  0.5320 -3.1098  2.2389
   9723SM  H14B13076   3.951   4.920  11.981 -2.7385  0.5149 -1.4005
   9723SM  H14C13077   3.902   5.076  11.918 -0.4423 -2.3130 -0.3122
   9723SM   C1313078   4.193   4.962  12.039 -0.0731  0.6856 -0.2565
   9723SM  H13A13079   4.155   4.861  12.032 -0.1981  0.8297 -2.1369
   9723SM  H13B13080   4.203   5.003  12.138  0.3643 -0.7214  0.3121
   9723SM  H13C13081   4.293   4.956  11.999 -0.3281 -0.2147 -0.8051
   9723SM   C1213082   4.155   5.193  11.953  0.4257  0.1056  0.7274
   9723SM  H12A13083   4.101   5.243  11.874 -1.3567  0.4821  2.1347
   9723SM  H12B13084   4.261   5.197  11.932  0.5631  1.0627  1.5285
   9723SM   C1113085   4.115   5.264  12.088 -0.2198  0.5409  0.7821
   9723SM  H11A13086   4.162   5.202  12.168  1.0456  1.7025  0.9860
   9723SM  H11B13087   4.005   5.264  12.101 -0.2805 -1.6601  0.6546
   9723SM     P13088   4.314   5.427  12.122 -0.0517 -0.0312 -0.1088
   9723SM   O1313089   4.398   5.314  12.078  0.3558  0.0474  0.2937
   9723SM   O1413090   4.346   5.561  12.065 -0.4585 -0.0421 -0.3281
   9723SM   O1113091   4.304   5.431  12.276 -0.2936 -0.5886 -0.6694
   9723SM   O1213092   4.166   5.393  12.087  0.2867 -0.9598 -0.1026
   9723SM   C1S13093   4.176   5.465  12.341 -0.3335  0.2105 -0.1134
   9723SM   H1S13094   4.088   5.406  12.308  1.2373 -2.6554  0.5185
   9723SM   H1T13095   4.154   5.572  12.318 -2.4735 -0.7810 -3.2755
   9723SM    NF13096   4.033   5.414  12.531 -0.0986  0.1697  0.3199
   9723SM   HNF13097   3.983   5.499  12.548  1.2493  0.5444  2.9369
   9723SM   C2S13098   4.167   5.444  12.490 -0.2225  0.5687 -1.7018
   9723SM   H2S13099   4.234   5.357  12.505  2.3250  2.3135 -2.2059
   9723SM   C3S13100   4.233   5.556  12.574 -0.6217 -0.0268 -0.3959
   9723SM   H3S13101   4.164   5.642  12.556  0.3109  0.4913 -1.6511
   9723SM    O313102   4.360   5.601  12.537 -0.0886  0.0064 -0.3305
   9723SM   HO313103   4.375   5.555  12.454 -0.1536 -1.8009  0.6245
   9723SM   C4S13104   4.223   5.528  12.729 -0.4727 -0.7144  0.1566
   9723SM   H4S13105   4.132   5.554  12.786  0.0894 -2.9762  2.2753
   9723SM   C5S13106   4.319   5.469  12.807 -0.0305 -0.2596 -0.8845
   9723SM   H5S13107   4.411   5.431  12.761 -0.1139 -0.5190 -0.8358
   9723SM   C6S13108   4.318   5.445  12.954  0.5668 -0.7802 -0.7914
   9723SM   H6S13109   4.408   5.487  13.003  0.1371 -1.1287  0.3367
   9723SM   H6T13110   4.303   5.337  12.976 -1.9294 -0.3741 -0.2428
   9723SM   C7S13111   4.207   5.520  13.034 -0.5295  0.5841  0.4521
   9723SM   H7S13112   4.107   5.476  13.011  0.3037 -2.4183  2.1129
   9723SM   H7T13113   4.220   5.626  13.000  1.1941  0.3900  0.4546
   9723SM   C8S13114   4.224   5.494  13.180  0.0441  0.7666 -0.3414
   9723SM   H8S13115   4.297   5.565  13.223  1.1854  0.5938 -1.8976
   9723SM   H8T13116   4.263   5.392  13.202  1.2900  1.2121 -0.4359
   9723SM   C9S13117   4.100   5.528  13.258  0.0974  0.1679  0.5814
   9723SM   H9S13118   4.013   5.463  13.232 -0.1985  0.8737 -0.2464
   9723SM   H9T13119   4.065   5.632  13.239  1.3908  0.8311  1.6150
   9723SM  C10S13120   4.118   5.512  13.414 -0.8786  0.7312  0.4603
   9723SM  H10S13121   4.170   5.595  13.466  0.7129 -0.0393  0.1641
   9723SM  H10T13122   4.180   5.421  13.429  1.3074  1.2922 -3.5923
   9723SM  C11S13123   3.983   5.496  13.486  0.2624  0.1608 -0.3752
   9723SM  H11S13124   3.906   5.441  13.427 -0.4781 -1.0048  1.5767
   9723SM  H11T13125   3.951   5.601  13.503 -0.7276 -0.3030  0.7782
   9723SM  C12S13126   3.997   5.439  13.629 -0.1653 -0.4190 -0.4009
   9723SM  H12S13127   4.079   5.486  13.687  0.8793  0.2676 -2.3799
   9723SM  H12T13128   4.007   5.329  13.615 -0.1202 -0.2303 -2.0601
   9723SM  C13S13129   3.871   5.461  13.712  0.3906  0.4906 -0.2725
   9723SM  H13S13130   3.787   5.417  13.654  2.1375 -2.2543 -0.9333
   9723SM  H13T13131   3.849   5.569  13.715 -2.0975  0.0346  0.4276
   9723SM  C14S13132   3.857   5.401  13.848 -0.1601  0.0347  0.5914
   9723SM  H14S13133   3.926   5.453  13.918  0.7266 -2.2378  1.4952
   9723SM  H14T13134   3.884   5.293  13.850 -0.7591 -0.1368 -0.1882
   9723SM  C15S13135   3.712   5.413  13.898  0.5166 -0.4909  0.0151
   9723SM  H15S13136   3.650   5.385  13.811  0.0266 -0.4546  0.3472
   9723SM  H15T13137   3.689   5.521  13.916 -1.6873 -0.4238 -2.6234
   9723SM  C16S13138   3.671   5.341  14.025 -0.7798 -0.1677  0.2169
   9723SM  H16S13139   3.744   5.375  14.102  1.9934  0.1477 -2.3673
   9723SM  H16T13140   3.709   5.237  14.017  0.0678  0.0781  0.9262
   9723SM  C17S13141   3.527   5.348  14.068 -0.2168 -0.2195 -0.2494
   9723SM  H17S13142   3.510   5.283  14.156 -0.1016 -1.4840 -1.1385
   9723SM  H17T13143   3.468   5.300  13.986 -0.3372  0.5690 -0.6321
   9723SM  C18S13144   3.476   5.497  14.075 -0.4154  0.7301 -0.5329
   9723SM  H18S13145   3.366   5.480  14.084 -0.1771 -0.5342  0.3280
   9723SM  H18T13146   3.496   5.553  13.981 -2.8648  0.4344 -1.3130
   9723SM  H18U13147   3.515   5.550  14.165 -2.8279 -0.8699  1.6143
   9723SM   C1F13148   3.972   5.298  12.513  0.3960  0.4545 -0.7531
   9723SM    OF13149   4.027   5.200  12.460 -0.2485 -0.1408  0.2721
   9723SM   C2F13150   3.826   5.295  12.553 -1.0277  0.2632  0.5920
   9723SM   H2F13151   3.808   5.196  12.600  0.4571 -0.2615  0.1098
   9723SM   H2G13152   3.754   5.297  12.469 -0.3537  1.3917  0.0182
   9723SM   C3F13153   3.790   5.407  12.655  0.8666  0.4715  0.7064
   9723SM   H3F13154   3.681   5.404  12.676  0.2944 -1.0716 -2.0228
   9723SM   H3G13155   3.810   5.510  12.616  2.9438 -0.3570 -0.6029
   9723SM   C4F13156   3.856   5.404  12.793 -0.5592  0.0330 -0.4236
   9723SM   H4F13157   3.839   5.497  12.851 -1.4947 -0.4388  0.0708
   9723SM   H4G13158   3.966   5.385  12.785 -0.1868  1.6490  0.4326
   9723SM   C5F13159   3.792   5.296  12.882  1.0839  0.5755 -0.6147
   9723SM   H5F13160   3.825   5.201  12.836  3.7547  0.5031  1.2377
   9723SM   H5G13161   3.682   5.308  12.882  0.9731 -0.3687 -1.4353
   9723SM   C6F13162   3.855   5.292  13.023  0.6072  0.2949 -0.1969
   9723SM   H6F13163   3.854   5.394  13.065  1.3204 -0.2492  1.2045
   9723SM   H6G13164   3.962   5.262  13.023  0.8283  1.0465  0.8727
   9723SM   C7F13165   3.784   5.197  13.115 -0.0329 -0.7336 -0.2572
   9723SM   H7F13166   3.785   5.094  13.075  0.8792 -1.7004  2.1429
   9723SM   H7G13167   3.677   5.222  13.135  0.0041 -2.1739  1.9376
   9723SM   C8F13168   3.852   5.193  13.250  0.4239 -0.3114  1.2305
   9723SM   H8F13169   3.883   5.296  13.276  1.7505  0.0823 -1.5496
   9723SM   H8G13170   3.946   5.133  13.246  0.5767 -0.2163  2.6040
   9723SM   C9F13171   3.748   5.144  13.356 -0.1914 -0.0845  0.2457
   9723SM   H9F13172   3.681   5.067  13.312  0.7458  0.8513 -3.1187
   9723SM   H9G13173   3.681   5.228  13.385 -1.4366 -0.6414 -0.9133
   9723SM  C10F13174   3.823   5.100  13.479  0.1165 -0.2027 -0.1817
   9723SM  H10F13175   3.878   5.186  13.522 -0.5435  0.5186 -0.7483
   9723SM  H10G13176   3.895   5.020  13.452 -1.3233 -2.2518  1.6715
   9723SM  C11F13177   3.730   5.047  13.583  0.7077 -0.3442  0.0571
   9723SM  H11F13178   3.694   4.954  13.533  0.0937  0.9751 -2.0789
   9723SM  H11G13179   3.650   5.124  13.593 -0.3872 -1.2331 -1.3910
   9723SM  C12F13180   3.811   5.022  13.714 -0.0929  0.3203 -0.0385
   9723SM  H12F13181   3.862   5.120  13.729 -1.1678  0.6793  1.5407
   9723SM  H12G13182   3.883   4.942  13.687 -0.2061  0.6753 -1.5059
   9723SM  C13F13183   3.726   4.982  13.832  0.7058  0.5201 -0.2592
   9723SM  H13F13184   3.657   4.901  13.799 -0.1317  0.8170  0.7233
   9723SM  H13G13185   3.655   5.064  13.853 -0.3181 -0.3541 -0.2302
   9723SM  C14F13186   3.808   4.934  13.954 -0.4055 -0.3872  0.7052
   9723SM  H14F13187   3.881   5.013  13.982  0.1732 -0.2614 -1.0468
   9723SM  H14G13188   3.854   4.842  13.912 -0.1824  0.3357 -0.6942
   9723SM  C15F13189   3.732   4.896  14.080 -0.8624 -0.0906 -0.6559
   9723SM  H15F13190   3.793   4.828  14.143 -0.7722  0.1656 -0.4666
   9723SM  H15G13191   3.648   4.829  14.048  0.7916 -1.9087 -1.3878
   9723SM  C16F13192   3.678   5.009  14.170 -0.0200  0.1755  0.6221
   9723SM  H16F13193   3.597   5.060  14.113  0.7324 -0.2647 -0.8766
   9723SM  H16G13194   3.753   5.085  14.201  0.7384 -0.5997  0.7390
   9723SM  C17F13195   3.605   4.943  14.293 -0.2617 -0.5867  0.2932
   9723SM  H17F13196   3.684   4.888  14.349  0.2816 -0.8213 -0.6822
   9723SM  H17G13197   3.531   4.876  14.246 -0.1100  0.7060 -1.8984
   9723SM  C18F13198   3.533   5.056  14.380 -0.8620 -0.0050 -0.4823
   9723SM  H18F13199   3.475   5.123  14.314 -2.0531  1.0682  1.5722
   9723SM  H18G13200   3.612   5.123  14.419 -0.7572 -0.6467  0.4540
   9723SM  C19F13201   3.439   5.014  14.496  1.0084 -0.1907 -0.9999
   9723SM  H19F13202   3.489   4.942  14.564 -0.2591 -0.1191  0.0615
   9723SM  H19G13203   3.358   4.954  14.447  0.2933 -1.3716  1.4770
   9723SM  C20F13204   3.392   5.140  14.562  0.1796  0.4775 -0.7416
   9723SM  H20F13205   3.340   5.210  14.493 -1.4921  0.5583  0.5420
   9723SM  H20G13206   3.479   5.191  14.609  1.4358 -0.7033 -1.6917
   9723SM  C21F13207   3.293   5.113  14.679 -0.2869 -0.1654  0.6863
   9723SM  H21F13208   3.345   5.057  14.760  0.7594  1.0396  0.8740
   9723SM  H21G13209   3.205   5.052  14.652 -0.2333  1.1865 -3.1239
   9723SM  C22F13210   3.253   5.244  14.748 -0.3672  0.0600 -0.0709
   9723SM  H22F13211   3.176   5.277  14.676  1.3969 -2.2127 -3.2112
   9723SM  H22G13212   3.324   5.330  14.760 -0.6661 -0.0248  3.2975
   9723SM  C23F13213   3.184   5.206  14.882 -0.4453 -0.9739 -0.2508
   9723SM  H23F13214   3.101   5.136  14.860 -1.3861  0.6332 -2.2579
   9723SM  H23G13215   3.137   5.289  14.938 -0.5121 -0.9261 -0.3760
   9723SM  H23H13216   3.248   5.147  14.950 -0.3421  1.6895  2.1843
   9823SM     N13217   6.085   4.340  11.308  0.4451 -0.2146 -0.0029
   9823SM   C1513218   6.100   4.485  11.337 -0.2615 -0.2884  0.1485
   9823SM  H15A13219   6.179   4.507  11.406  1.3646 -0.5405 -1.5522
   9823SM  H15B13220   6.008   4.523  11.380  0.8050  2.4769  0.1807
   9823SM  H15C13221   6.108   4.542  11.246  0.0334 -0.2066  0.2247
   9823SM   C1413222   6.195   4.295  11.213  0.0941  0.0227  0.6091
   9823SM  H14A13223   6.203   4.188  11.225 -1.1258 -0.0860  0.5898
   9823SM  H14B13224   6.294   4.329  11.238  0.3076 -0.8953  1.0557
   9823SM  H14C13225   6.172   4.306  11.108 -1.4116 -0.7516  0.8274
   9823SM   C1313226   6.098   4.272  11.433 -0.2437 -0.5117  0.0735
   9823SM  H13A13227   6.115   4.166  11.423 -2.0674 -1.3122  3.7411
   9823SM  H13B13228   6.012   4.290  11.496 -0.5936  1.9005 -0.9649
   9823SM  H13C13229   6.190   4.303  11.481  0.8429  0.0126 -2.2222
   9823SM   C1213230   5.953   4.309  11.238 -0.8322  0.5308 -0.3065
   9823SM  H12A13231   5.956   4.218  11.180 -2.7832 -0.2872  0.7816
   9823SM  H12B13232   5.940   4.386  11.163  1.8252  1.0715 -0.3079
   9823SM   C1113233   5.819   4.314  11.314  0.4749  0.3998 -0.1305
   9823SM  H11A13234   5.735   4.309  11.242  0.8485  0.1562 -0.5569
   9823SM  H11B13235   5.816   4.415  11.361  3.1932  0.7923 -0.6300
   9823SM     P13236   5.766   4.062  11.360 -0.4816  0.1974 -0.1527
   9823SM   O1313237   5.632   4.065  11.285 -1.4711  0.1700 -0.0437
   9823SM   O1413238   5.873   4.003  11.273  0.4089  0.7190 -0.0296
   9823SM   O1113239   5.744   3.970  11.491 -0.4277 -0.0079  0.1050
   9823SM   O1213240   5.805   4.206  11.406 -0.0160 -0.0464  0.5120
   9823SM   C1S13241   5.847   3.925  11.573 -0.0558 -0.0761  0.2749
   9823SM   H1S13242   5.908   4.017  11.589 -1.9351  0.9454  2.0288
   9823SM   H1T13243   5.903   3.841  11.528  0.8333 -0.1278  1.4384
   9823SM    NF13244   5.897   3.862  11.815  0.0964  0.0632  0.5000
   9823SM   HNF13245   5.917   3.766  11.833  0.9390  0.6012  2.7673
   9823SM   C2S13246   5.793   3.893  11.715 -0.0820  0.3438 -0.5650
   9823SM   H2S13247   5.746   3.989  11.746  0.3679  0.6167 -0.7261
   9823SM   C3S13248   5.677   3.789  11.711 -0.5150  0.2258 -0.3364
   9823SM   H3S13249   5.718   3.695  11.670 -0.9373 -0.3965  0.6351
   9823SM    O313250   5.574   3.828  11.624 -0.2150  0.3321 -0.1657
   9823SM   HO313251   5.625   3.884  11.565  0.4533  1.6766  1.6073
   9823SM   C4S13252   5.608   3.757  11.836 -0.8471 -0.2474 -0.0110
   9823SM   H4S13253   5.599   3.846  11.900 -0.4090 -1.7197  2.1990
   9823SM   C5S13254   5.564   3.639  11.877  0.5789 -0.4674  0.7230
   9823SM   H5S13255   5.577   3.543  11.825 -1.3476 -0.5401  0.2986
   9823SM   C6S13256   5.504   3.614  12.012  0.1929 -0.4145  0.3401
   9823SM   H6S13257   5.555   3.533  12.068 -0.6073 -1.7137 -0.7449
   9823SM   H6T13258   5.398   3.583  11.995  0.3171 -0.0223 -1.3562
   9823SM   C7S13259   5.513   3.741  12.099  0.0981 -0.3306 -0.7450
   9823SM   H7S13260   5.458   3.831  12.062  1.3999  0.8395  0.0530
   9823SM   H7T13261   5.619   3.771  12.113  0.3113 -0.7051 -1.5549
   9823SM   C8S13262   5.455   3.719  12.238  0.2464  0.0170 -0.4609
   9823SM   H8S13263   5.511   3.633  12.281 -0.5951  0.5951  1.9399
   9823SM   H8T13264   5.349   3.690  12.248  0.2463  0.2261  0.1891
   9823SM   C9S13265   5.471   3.838  12.336 -0.0808  0.7639 -0.0809
   9823SM   H9S13266   5.413   3.927  12.302 -1.3591 -1.3315 -4.0532
   9823SM   H9T13267   5.578   3.866  12.342 -0.4774  2.0468  1.5361
   9823SM  C10S13268   5.420   3.817  12.481  0.5330  0.0376 -0.1659
   9823SM  H10S13269   5.474   3.729  12.522 -0.9064 -0.1284  1.4887
   9823SM  H10T13270   5.312   3.793  12.474  0.2134  1.1905  0.4794
   9823SM  C11S13271   5.446   3.932  12.576  0.5483  1.1721 -0.4447
   9823SM  H11S13272   5.389   4.022  12.545 -1.9035 -0.0991  0.1288
   9823SM  H11T13273   5.553   3.959  12.565  0.7054  1.8432  2.0741
   9823SM  C12S13274   5.404   3.902  12.721 -0.3159 -0.5937  0.1596
   9823SM  H12S13275   5.460   3.810  12.748  2.5640 -0.1295 -3.3826
   9823SM  H12T13276   5.299   3.867  12.718 -0.1086 -1.1600 -1.5807
   9823SM  C13S13277   5.424   4.030  12.802  0.5630 -0.1694  0.0075
   9823SM  H13S13278   5.363   4.113  12.760  2.8205  0.6778 -1.8285
   9823SM  H13T13279   5.531   4.061  12.795  0.5879 -0.0761  0.7396
   9823SM  C14S13280   5.385   4.030  12.945  0.5478  0.6976 -0.0674
   9823SM  H14S13281   5.275   4.041  12.953  0.7875  2.1939  1.9041
   9823SM  H14T13282   5.429   4.118  12.997 -1.5787  0.4389  2.3963
   9823SM  C15S13283   5.436   3.908  13.008 -1.2543  0.0507 -0.3558
   9823SM  H15S13284   5.529   3.879  12.954 -1.7484 -1.9300 -0.1982
   9823SM  H15T13285   5.377   3.814  13.000  0.5479 -1.2603  0.8717
   9823SM  C16S13286   5.457   3.931  13.158  0.1389  0.6803 -0.2173
   9823SM  H16S13287   5.358   3.956  13.201 -0.1056 -0.5304 -0.0436
   9823SM  H16T13288   5.520   4.021  13.177  0.9414  0.2660 -0.8448
   9823SM  C17S13289   5.516   3.811  13.240 -0.2747 -0.2880  0.5797
   9823SM  H17S13290   5.624   3.809  13.214 -0.1340  3.2309  0.4262
   9823SM  H17T13291   5.465   3.720  13.203 -0.6084  0.1630 -0.1013
   9823SM  C18S13292   5.506   3.811  13.392  0.4022  0.0291 -0.1214
   9823SM  H18S13293   5.536   3.911  13.431  0.1392  0.1047 -0.1135
   9823SM  H18T13294   5.558   3.729  13.446 -0.3594  0.1789  0.8535
   9823SM  H18U13295   5.397   3.812  13.409 -0.2934  2.0631 -3.5621
   9823SM   C1F13296   5.976   3.956  11.857 -0.1400 -0.2691  0.4986
   9823SM    OF13297   5.955   4.076  11.844  0.4266  0.0132 -1.0433
   9823SM   C2F13298   6.102   3.911  11.933 -0.4562  0.6568  0.6253
   9823SM   H2F13299   6.184   3.983  11.910 -1.1492  0.8843 -1.3012
   9823SM   H2G13300   6.133   3.811  11.896 -1.7009 -0.4273  2.3269
   9823SM   C3F13301   6.095   3.887  12.088 -0.4231  0.3526  0.0381
   9823SM   H3F13302   6.194   3.859  12.131 -1.9387 -1.9781  2.3119
   9823SM   H3G13303   6.021   3.811  12.122 -0.6057  0.3206 -0.4333
   9823SM   C4F13304   6.041   4.014  12.156  0.6002  0.2435  0.1877
   9823SM   H4F13305   5.931   4.017  12.140  0.4953 -0.5144  0.7428
   9823SM   H4G13306   6.092   4.103  12.112 -1.7127  1.6983  0.2674
   9823SM   C5F13307   6.047   4.019  12.308 -0.1142  0.2895 -0.6869
   9823SM   H5F13308   5.995   4.113  12.338 -0.1373 -0.1314  0.6167
   9823SM   H5G13309   6.150   4.029  12.348  0.1921 -1.1687 -1.0675
   9823SM   C6F13310   5.982   3.903  12.377  0.1941  0.7595  0.0928
   9823SM   H6F13311   6.045   3.813  12.361  0.6012  0.7919  1.4174
   9823SM   H6G13312   5.878   3.885  12.341  0.4694  0.3008 -0.4963
   9823SM   C7F13313   5.964   3.935  12.524  0.6922 -0.2205 -0.1342
   9823SM   H7F13314   5.933   4.041  12.536 -2.9353 -1.2822  1.4419
   9823SM   H7G13315   6.058   3.917  12.581 -0.4629  2.1092  2.7994
   9823SM   C8F13316   5.865   3.845  12.591  0.7208 -0.1297 -0.1410
   9823SM   H8F13317   5.890   3.738  12.576  2.4023  0.4387 -1.7338
   9823SM   H8G13318   5.771   3.854  12.533  0.6197  0.4389  0.1071
   9823SM   C9F13319   5.844   3.886  12.736 -0.0379 -0.0840  0.9534
   9823SM   H9F13320   5.747   3.851  12.777 -0.6700 -0.0754 -0.4685
   9823SM   H9G13321   5.841   3.996  12.747  0.3682 -0.1883  2.1519
   9823SM  C10F13322   5.958   3.835  12.825 -0.2800 -0.2529 -0.2043
   9823SM  H10F13323   6.054   3.882  12.795 -1.6353  1.5538 -1.9138
   9823SM  H10G13324   5.978   3.726  12.811  1.2538  0.2240 -2.2671
   9823SM  C11F13325   5.941   3.872  12.970  0.4157 -0.2957 -0.0042
   9823SM  H11F13326   5.847   3.837  13.020  0.8628 -0.3108  0.8499
   9823SM  H11G13327   5.953   3.982  12.963  4.0692 -0.6712 -2.1998
   9823SM  C12F13328   6.061   3.837  13.056 -0.5985 -1.0349 -0.0194
   9823SM  H12F13329   6.143   3.911  13.046  0.2993 -2.0386 -0.2461
   9823SM  H12G13330   6.103   3.737  13.032  1.2205  0.2662 -2.8226
   9823SM  C13F13331   6.019   3.842  13.203 -0.0319  0.1846  0.0416
   9823SM  H13F13332   5.943   3.761  13.196  2.7647 -2.5326 -1.9822
   9823SM  H13G13333   5.968   3.938  13.224 -1.0219 -0.0320 -1.2201
   9823SM  C14F13334   6.126   3.816  13.298  0.3704 -0.7248 -0.2640
   9823SM  H14F13335   6.206   3.894  13.301  1.9426 -2.3029  1.0313
   9823SM  H14G13336   6.174   3.719  13.273 -1.1953 -1.1716 -1.6892
   9823SM  C15F13337   6.069   3.809  13.444  0.0856  0.8620 -0.5354
   9823SM  H15F13338   6.002   3.721  13.439 -1.4207  2.0264 -1.6459
   9823SM  H15G13339   6.003   3.898  13.458  0.8933  1.2859  0.8644
   9823SM  C16F13340   6.168   3.796  13.557 -0.9730 -0.6875 -0.4266
   9823SM  H16F13341   6.237   3.884  13.560 -2.6467  0.6491  0.3602
   9823SM  H16G13342   6.225   3.702  13.540  1.9121  0.5476  1.6616
   9823SM  C17F13343   6.094   3.787  13.694  0.6485  0.7273 -0.1380
   9823SM  H17F13344   6.033   3.694  13.694  0.2272  0.9979 -0.0981
   9823SM  H17G13345   6.016   3.866  13.703 -0.3486 -0.3188  0.8500
   9823SM  C18F13346   6.191   3.792  13.812  0.0511  0.0014  0.1766
   9823SM  H18F13347   6.268   3.872  13.805 -0.6529  0.9021  1.9233
   9823SM  H18G13348   6.242   3.694  13.822 -0.9188 -0.8390 -2.3087
   9823SM  C19F13349   6.113   3.828  13.943 -0.9493  0.1953 -0.1985
   9823SM  H19F13350   6.064   3.928  13.937  0.2929  0.9163  1.0009
   9823SM  H19G13351   6.193   3.830  14.020 -1.5200  0.2395  0.4077
   9823SM  C20F13352   6.019   3.724  13.981 -0.4200  0.6191 -0.6013
   9823SM  H20F13353   6.063   3.623  13.990  1.0847  1.2987 -0.0511
   9823SM  H20G13354   5.935   3.718  13.908  0.0154 -0.2398 -1.0439
   9823SM  C21F13355   5.952   3.759  14.116  0.0004 -0.3229  0.2454
   9823SM  H21F13356   5.903   3.856  14.091 -1.8780 -0.7838  1.9118
   9823SM  H21G13357   6.018   3.783  14.203  0.1533  0.8573 -0.1721
   9823SM  C22F13358   5.850   3.655  14.168  0.5946 -0.2183  0.0795
   9823SM  H22F13359   5.896   3.559  14.139  0.6530  0.2530 -1.5067
   9823SM  H22G13360   5.770   3.657  14.091 -0.7504  2.0466  1.3950
   9823SM  C23F13361   5.789   3.669  14.303 -0.2377 -0.1891  0.8745
   9823SM  H23F13362   5.868   3.698  14.376  0.6920  1.5232 -0.7009
   9823SM  H23G13363   5.728   3.582  14.332 -1.6487  0.9883  1.5885
   9823SM  H23H13364   5.715   3.751  14.312 -1.3081 -1.0961  0.4525
   9923SM     N13365   6.661   4.887  11.301  0.2041 -0.1235 -0.1232
   9923SM   C1513366   6.697   4.793  11.409  0.1016  0.2548  0.3736
   9923SM  H15A13367   6.713   4.689  11.383 -0.6660  0.7058 -2.1393
   9923SM  H15B13368   6.609   4.784  11.471  0.3212  0.0739  0.6656
   9923SM  H15C13369   6.781   4.837  11.460  0.0194  0.0261  0.7133
   9923SM   C1413370   6.775   4.902  11.204  0.1083 -0.2508 -0.7819
   9923SM  H14A13371   6.863   4.946  11.249 -0.0240 -0.5164 -0.2534
   9923SM  H14B13372   6.751   4.963  11.119  0.9554  0.1243 -0.7639
   9923SM  H14C13373   6.805   4.804  11.171 -0.3636 -0.5750 -0.2653
   9923SM   C1313374   6.540   4.833  11.225 -0.5141 -0.8307  0.7225
   9923SM  H13A13375   6.522   4.896  11.139 -0.2768 -2.0958 -0.2866
   9923SM  H13B13376   6.452   4.813  11.284 -1.6657 -2.4534 -1.4100
   9923SM  H13C13377   6.572   4.745  11.171  0.0522 -0.0893 -0.1932
   9923SM   C1213378   6.635   5.027  11.354 -0.1607  0.1787 -0.0296
   9923SM  H12A13379   6.551   5.020  11.421 -1.1824 -0.5463 -1.3250
   9923SM  H12B13380   6.606   5.090  11.271  0.3066 -1.3044 -1.3854
   9923SM   C1113381   6.750   5.105  11.432  0.6225 -0.1020 -0.3554
   9923SM  H11A13382   6.709   5.208  11.445 -0.9644 -0.7840  0.2552
   9923SM  H11B13383   6.843   5.102  11.372  1.2202  1.7464  0.4147
   9923SM     P13384   6.664   5.052  11.680 -0.0377 -0.7196 -0.2110
   9923SM   O1313385   6.532   5.000  11.637 -0.8346  0.7759  0.2449
   9923SM   O1413386   6.721   4.988  11.799 -0.1169 -0.2961 -0.0661
   9923SM   O1113387   6.651   5.204  11.713 -0.4307  0.5511  0.0139
   9923SM   O1213388   6.772   5.048  11.565 -0.5242 -0.1310 -0.1202
   9923SM   C1S13389   6.555   5.249  11.801 -0.0227 -0.2763 -0.2918
   9923SM   H1S13390   6.453   5.218  11.769  0.5182  0.2633 -2.6632
   9923SM   H1T13391   6.546   5.359  11.808 -0.5320 -0.2607 -1.1461
   9923SM    NF13392   6.460   5.249  12.027 -0.2397  0.2241 -0.4789
   9923SM   HNF13393   6.458   5.338  12.071  1.4588  0.2146 -0.3408
   9923SM   C2S13394   6.579   5.207  11.955  0.4586  0.3901  1.0060
   9923SM   H2S13395   6.581   5.097  11.963  2.8748  0.2352 -0.8075
   9923SM   C3S13396   6.712   5.265  12.015 -0.3687  0.4259 -0.0601
   9923SM   H3S13397   6.705   5.374  11.994 -2.1793  0.0081 -1.9456
   9923SM    O313398   6.831   5.226  11.948 -0.4093  0.2358  0.5104
   9923SM   HO313399   6.798   5.188  11.865  0.3883  2.0276 -0.6884
   9923SM   C4S13400   6.730   5.226  12.156 -0.0112 -0.3572  0.4468
   9923SM   H4S13401   6.744   5.119  12.177  1.4000 -0.5294 -1.1406
   9923SM   C5S13402   6.711   5.316  12.257 -0.6255 -0.3364 -0.0291
   9923SM   H5S13403   6.662   5.411  12.232  0.9711  0.5893  0.2117
   9923SM   C6S13404   6.717   5.278  12.407  0.0259 -0.2265 -0.6162
   9923SM   H6S13405   6.616   5.297  12.450  0.2246 -0.9831  0.1956
   9923SM   H6T13406   6.792   5.348  12.450  0.1915 -0.8130  0.0566
   9923SM   C7S13407   6.772   5.145  12.442 -0.0409 -0.8188 -0.0328
   9923SM   H7S13408   6.860   5.116  12.380  0.3432 -1.7416  0.9175
   9923SM   H7T13409   6.702   5.061  12.423 -1.9787  0.4892  0.9977
   9923SM   C8S13410   6.813   5.143  12.590  0.1202  0.3509 -0.3338
   9923SM   H8S13411   6.720   5.173  12.642  0.3936 -2.2393  1.8212
   9923SM   H8T13412   6.885   5.218  12.630 -0.9977  1.7711 -0.8987
   9923SM   C9S13413   6.850   5.001  12.648  0.2401  0.7011  0.4028
   9923SM   H9S13414   6.933   4.973  12.579 -0.6333 -1.7365  0.2483
   9923SM   H9T13415   6.769   4.927  12.632  1.6625 -0.4552 -2.1238
   9923SM  C10S13416   6.905   5.008  12.793 -0.2882  0.0957 -0.1456
   9923SM  H10S13417   7.002   5.062  12.788 -0.7679  0.9291 -0.8599
   9923SM  H10T13418   6.932   4.908  12.833 -0.4197  0.0594 -0.1499
   9923SM  C11S13419   6.822   5.074  12.900 -0.3283 -0.7405 -0.0547
   9923SM  H11S13420   6.727   5.017  12.902 -0.3118 -0.9503 -2.4551
   9923SM  H11T13421   6.816   5.181  12.871 -1.5593 -0.4879  1.0187
   9923SM  C12S13422   6.891   5.079  13.037 -0.1939 -0.6684 -0.5549
   9923SM  H12S13423   6.981   5.141  13.018  0.7251 -1.4864  0.8653
   9923SM  H12T13424   6.928   4.979  13.068  0.5699  0.3121  2.0064
   9923SM  C13S13425   6.810   5.123  13.156  0.4126  0.3094 -0.2194
   9923SM  H13S13426   6.713   5.070  13.149  1.4608 -1.6921 -0.1959
   9923SM  H13T13427   6.794   5.233  13.164 -1.3999  0.0245  0.5681
   9923SM  C14S13428   6.874   5.080  13.294  0.8225  0.2880  0.1249
   9923SM  H14S13429   6.974   5.129  13.290  0.3916  1.2745  0.9387
   9923SM  H14T13430   6.882   4.969  13.285 -1.6600  0.1625 -1.6686
   9923SM  C15S13431   6.792   5.116  13.416 -0.3023 -0.1932  0.4260
   9923SM  H15S13432   6.695   5.070  13.390  0.3049 -1.3784  0.1954
   9923SM  H15T13433   6.779   5.226  13.426 -1.0508 -0.1775 -0.5798
   9923SM  C16S13434   6.839   5.049  13.548  0.1288  0.0663  0.1155
   9923SM  H16S13435   6.947   5.074  13.545  0.4452 -1.3056 -2.3744
   9923SM  H16T13436   6.829   4.940  13.528  1.0412  0.0880 -0.5515
   9923SM  C17S13437   6.756   5.095  13.671 -0.3411 -0.5902 -0.7746
   9923SM  H17S13438   6.647   5.077  13.657 -0.8859 -0.9930  2.9299
   9923SM  H17T13439   6.772   5.204  13.685  1.4470 -0.8077 -0.9087
   9923SM  C18S13440   6.800   5.027  13.799 -0.2247  0.5950 -0.4136
   9923SM  H18S13441   6.910   5.016  13.814 -0.4887  1.2429  2.6993
   9923SM  H18T13442   6.752   4.927  13.808 -0.7597  0.7639 -1.2752
   9923SM  H18U13443   6.763   5.079  13.891  0.7675 -0.5134  0.6469
   9923SM   C1F13444   6.344   5.180  12.026 -0.3654 -0.1859 -0.4159
   9923SM    OF13445   6.317   5.102  11.937 -0.0680  0.6777  0.0452
   9923SM   C2F13446   6.258   5.194  12.145  0.6530 -0.3192 -0.0695
   9923SM   H2F13447   6.152   5.214  12.117  0.0420 -3.9926 -0.8599
   9923SM   H2G13448   6.295   5.283  12.201  1.6292 -0.8488  0.1498
   9923SM   C3F13449   6.252   5.072  12.246  0.3291 -0.2832  0.2268
   9923SM   H3F13450   6.218   4.988  12.183  1.7503  0.3799 -1.5412
   9923SM   H3G13451   6.177   5.091  12.325  0.5440 -2.2498  0.9498
   9923SM   C4F13452   6.386   5.046  12.320 -0.8300 -1.0141  0.3984
   9923SM   H4F13453   6.413   5.147  12.356  2.2505 -0.5156 -2.6750
   9923SM   H4G13454   6.466   5.020  12.247  0.6688  0.7742  1.3191
   9923SM   C5F13455   6.372   4.936  12.421 -0.2332 -0.2738 -0.7443
   9923SM   H5F13456   6.400   4.836  12.380  0.7017 -0.7058  0.8753
   9923SM   H5G13457   6.271   4.941  12.466  0.9540  4.0158  2.0382
   9923SM   C6F13458   6.459   4.965  12.545 -0.1085 -0.6424  0.3082
   9923SM   H6F13459   6.456   5.070  12.580  0.6411 -0.7300  0.6528
   9923SM   H6G13460   6.563   4.938  12.515  0.5977  0.4212  1.6625
   9923SM   C7F13461   6.420   4.870  12.654 -0.1630  0.4292  0.2358
   9923SM   H7F13462   6.406   4.763  12.627 -1.8332  0.0951  2.2275
   9923SM   H7G13463   6.323   4.907  12.693 -0.1527  2.1577 -1.2817
   9923SM   C8F13464   6.518   4.862  12.769 -0.0370  0.5947 -1.0279
   9923SM   H8F13465   6.536   4.967  12.801 -1.1398  1.0874 -1.9475
   9923SM   H8G13466   6.614   4.817  12.736 -0.3610 -3.5244  2.7211
   9923SM   C9F13467   6.470   4.788  12.891 -0.0015 -0.7700 -0.2373
   9923SM   H9F13468   6.455   4.682  12.864 -0.1785 -0.6188 -0.7554
   9923SM   H9G13469   6.376   4.838  12.922 -0.2642  0.1699 -2.3494
   9923SM  C10F13470   6.557   4.831  13.016 -0.7551  0.2504 -0.1074
   9923SM  H10F13471   6.552   4.934  13.057 -1.9067 -0.2967  1.2216
   9923SM  H10G13472   6.656   4.824  12.967 -1.6016 -1.4192 -1.7069
   9923SM  C11F13473   6.560   4.735  13.134 -0.1316 -0.2974 -0.4035
   9923SM  H11F13474   6.638   4.769  13.205 -0.9289 -0.7897  0.7459
   9923SM  H11G13475   6.579   4.631  13.100 -0.8123  0.3029 -2.8198
   9923SM  C12F13476   6.424   4.730  13.201 -0.2999 -0.4314  0.0345
   9923SM  H12F13477   6.355   4.686  13.126 -1.1320  1.3990 -0.3397
   9923SM  H12G13478   6.379   4.830  13.220  0.8875 -0.3812  3.1794
   9923SM  C13F13479   6.422   4.650  13.335  0.1762 -0.8459  0.0993
   9923SM  H13F13480   6.471   4.552  13.316  0.9018 -0.9361  2.1944
   9923SM  H13G13481   6.322   4.614  13.368 -0.6459  0.9181 -0.3628
   9923SM  C14F13482   6.487   4.715  13.463  0.5580 -0.2638  0.1236
   9923SM  H14F13483   6.416   4.793  13.497  0.6055 -0.7940  1.5056
   9923SM  H14G13484   6.581   4.765  13.433 -0.2497  0.8734 -0.5704
   9923SM  C15F13485   6.508   4.617  13.574  0.4803  0.5551  0.0098
   9923SM  H15F13486   6.591   4.548  13.545 -2.0743 -2.3943 -0.8629
   9923SM  H15G13487   6.416   4.557  13.587  2.5433 -2.3870  2.4082
   9923SM  C16F13488   6.530   4.686  13.709 -0.7277 -0.7718  0.1279
   9923SM  H16F13489   6.447   4.758  13.725 -0.9348 -1.1607  0.8417
   9923SM  H16G13490   6.623   4.747  13.705 -0.1351 -1.7349 -1.5032
   9923SM  C17F13491   6.527   4.592  13.829 -0.4391  0.0864  0.9311
   9923SM  H17F13492   6.594   4.620  13.913  0.5828 -2.9225  1.2393
   9923SM  H17G13493   6.564   4.492  13.800 -1.9463 -0.2587  0.1080
   9923SM  C18F13494   6.383   4.561  13.885  0.1966  0.6055 -0.2664
   9923SM  H18F13495   6.321   4.552  13.793  0.7212 -0.6635 -0.5130
   9923SM  H18G13496   6.340   4.649  13.937  0.7897  0.8163 -0.1239
   9923SM  C19F13497   6.370   4.430  13.971 -0.2758 -0.1565 -0.4206
   9923SM  H19F13498   6.387   4.336  13.914  2.4998 -1.4176  2.1559
   9923SM  H19G13499   6.266   4.429  14.008 -0.1098  1.1115  0.1227
   9923SM  C20F13500   6.458   4.418  14.104 -0.0679 -0.4983  0.1966
   9923SM  H20F13501   6.564   4.415  14.074  0.3004 -0.4169  1.4304
   9923SM  H20G13502   6.431   4.331  14.167 -1.6819 -1.3549 -1.5629
   9923SM  C21F13503   6.435   4.540  14.199  0.2098  0.6643  1.1895
   9923SM  H21F13504   6.328   4.551  14.224 -0.0363 -0.5480  0.7268
   9923SM  H21G13505   6.443   4.629  14.133 -2.6369 -0.4081 -0.8025
   9923SM  C22F13506   6.526   4.569  14.325 -0.0756  0.5477  0.3233
   9923SM  H22F13507   6.628   4.597  14.290  1.2952 -1.2939  2.5776
   9923SM  H22G13508   6.528   4.477  14.387 -1.8380  0.7094  0.6666
   9923SM  C23F13509   6.458   4.685  14.396 -0.5102 -0.5622 -0.5230
   9923SM  H23F13510   6.441   4.774  14.331  1.1775  0.5954  0.5213
   9923SM  H23G13511   6.520   4.734  14.474 -2.0630  0.2206  0.2705
   9923SM  H23H13512   6.358   4.664  14.438 -0.3264  0.0475  0.2483
  10023SM     N13513   6.415   6.230  12.205  0.3778  0.1010 -0.3618
  10023SM   C1513514   6.434   6.354  12.286 -0.2159  0.7978 -0.0364
  10023SM  H15A13515   6.453   6.441  12.225  2.9292  0.3864  0.1515
  10023SM  H15B13516   6.520   6.340  12.350 -1.7189 -1.1796  1.6846
  10023SM  H15C13517   6.344   6.374  12.341  0.0844  0.2654  0.6613
  10023SM   C1413518   6.385   6.118  12.298  0.3496 -0.2965 -0.6728
  10023SM  H14A13519   6.472   6.086  12.354  1.1831 -0.0969 -1.8100
  10023SM  H14B13520   6.370   6.024  12.247  2.5164 -0.8019 -0.4868
  10023SM  H14C13521   6.301   6.141  12.361  0.1117 -0.8268 -0.7901
  10023SM   C1313522   6.300   6.243  12.115 -0.2088  0.4583  0.3548
  10023SM  H13A13523   6.309   6.332  12.053 -0.0956  0.6802  0.6852
  10023SM  H13B13524   6.204   6.256  12.161 -0.3637 -1.6795  0.7205
  10023SM  H13C13525   6.286   6.154  12.056  1.5743  0.4527 -0.1213
  10023SM   C1213526   6.542   6.198  12.130 -0.2805 -0.1530 -0.2584
  10023SM  H12A13527   6.566   6.292  12.082 -0.2032 -0.3123 -0.5327
  10023SM  H12B13528   6.526   6.122  12.055  1.0626  0.5335 -1.2763
  10023SM   C1113529   6.657   6.137  12.211  0.0713  0.2618  0.4610
  10023SM  H11A13530   6.683   6.217  12.283 -0.3439  3.4487 -2.5974
  10023SM  H11B13531   6.748   6.141  12.146 -0.0461  1.9694  0.3400
  10023SM     P13532   6.644   5.885  12.169 -0.0959  0.1230 -0.1652
  10023SM   O1313533   6.526   5.806  12.194  0.4299 -0.0719  0.1674
  10023SM   O1413534   6.661   5.928  12.027  0.4164  0.0678 -0.0655
  10023SM   O1113535   6.772   5.811  12.229 -0.0120 -0.4490 -0.1605
  10023SM   O1213536   6.624   6.008  12.256 -0.2353 -0.0623 -0.4811
  10023SM   C1S13537   6.789   5.801  12.367 -0.5234  0.6289  0.2611
  10023SM   H1S13538   6.697   5.788  12.427 -1.0642 -0.7100 -0.8259
  10023SM   H1T13539   6.857   5.882  12.402 -0.6916  1.0074 -0.2826
  10023SM    NF13540   6.876   5.628  12.530 -0.0832 -0.5322 -0.5803
  10023SM   HNF13541   6.966   5.648  12.569 -0.6224  3.0627 -0.8649
  10023SM   C2S13542   6.867   5.667  12.393  0.0854 -0.2255  0.4780
  10023SM   H2S13543   6.804   5.588  12.346 -0.2376  0.0208  0.4960
  10023SM   C3S13544   6.997   5.657  12.306 -0.6108 -0.0240  0.0090
  10023SM   H3S13545   7.075   5.733  12.330  0.0071  0.2315 -2.5275
  10023SM    O313546   6.961   5.674  12.165 -0.7818  0.8656 -0.4888
  10023SM   HO313547   6.879   5.723  12.178 -0.3868  1.0372  1.7285
  10023SM   C4S13548   7.056   5.521  12.328 -0.0260 -0.7549 -0.0451
  10023SM   H4S13549   7.002   5.427  12.310 -1.0365 -0.5738  1.7727
  10023SM   C5S13550   7.178   5.505  12.380  0.1669 -0.3615 -0.5212
  10023SM   H5S13551   7.248   5.586  12.404  0.9720 -1.0280 -0.5713
  10023SM   C6S13552   7.232   5.365  12.412 -0.1647 -0.3476 -0.2636
  10023SM   H6S13553   7.317   5.341  12.345 -0.4341  1.3286 -1.2900
  10023SM   H6T13554   7.154   5.291  12.387 -0.8482  0.0809  0.5443
  10023SM   C7S13555   7.274   5.346  12.563 -0.1182  0.5774  0.7917
  10023SM   H7S13556   7.356   5.418  12.580  1.3789 -0.8458 -0.1066
  10023SM   H7T13557   7.314   5.242  12.570 -0.6760  0.2905 -0.1019
  10023SM   C8S13558   7.158   5.376  12.659  0.3763  0.7586 -0.6501
  10023SM   H8S13559   7.085   5.292  12.652 -0.3264  1.3583 -0.6416
  10023SM   H8T13560   7.105   5.473  12.646 -2.3474 -0.4855  0.4412
  10023SM   C9S13561   7.212   5.375  12.806 -0.1465  0.0110  0.1941
  10023SM   H9S13562   7.282   5.460  12.818  1.9866 -1.1660 -2.7671
  10023SM   H9T13563   7.265   5.280  12.830  0.4189  0.0951 -0.6949
  10023SM  C10S13564   7.103   5.395  12.915  0.6631 -0.6642 -0.9114
  10023SM  H10S13565   7.027   5.314  12.906 -0.2613  0.1306 -0.3856
  10023SM  H10T13566   7.059   5.494  12.892 -0.5679 -1.3796 -1.7366
  10023SM  C11S13567   7.154   5.396  13.055 -0.3476 -0.0197 -0.0710
  10023SM  H11S13568   7.237   5.470  13.051 -0.0419 -0.4072 -1.3154
  10023SM  H11T13569   7.187   5.300  13.099  0.6369  0.1638 -0.3875
  10023SM  C12S13570   7.049   5.434  13.155  1.0452 -0.5003  1.3092
  10023SM  H12S13571   6.962   5.365  13.147 -0.3877  1.4236 -0.9434
  10023SM  H12T13572   7.006   5.535  13.139 -0.2269 -1.2152  0.0413
  10023SM  C13S13573   7.105   5.432  13.297 -0.6870  1.0771 -0.1897
  10023SM  H13S13574   7.190   5.504  13.306 -0.8622  1.1733  0.9016
  10023SM  H13T13575   7.143   5.328  13.302  0.4736  1.4884 -0.1105
  10023SM  C14S13576   7.007   5.466  13.408  0.3560 -0.4367 -0.1030
  10023SM  H14S13577   6.908   5.423  13.384  0.3044 -0.9153  0.9223
  10023SM  H14T13578   6.993   5.575  13.392  0.5820 -0.5263 -0.9464
  10023SM  C15S13579   7.037   5.423  13.550 -0.5577 -0.4807  0.1974
  10023SM  H15S13580   7.141   5.452  13.577  0.5926 -2.4702 -1.7739
  10023SM  H15T13581   7.028   5.313  13.546 -0.0715 -0.5064 -0.3443
  10023SM  C16S13582   6.935   5.493  13.644  0.2782  0.2351  0.1759
  10023SM  H16S13583   6.835   5.454  13.619 -0.5919  1.5083  1.4717
  10023SM  H16T13584   6.945   5.603  13.638 -0.6115  0.3285  0.3258
  10023SM  C17S13585   6.939   5.458  13.799  0.0766  0.1183  0.5965
  10023SM  H17S13586   7.030   5.397  13.819 -0.3045 -1.1130 -1.2359
  10023SM  H17T13587   6.850   5.407  13.842 -0.0119  0.0524  0.3333
  10023SM  C18S13588   6.968   5.580  13.884 -0.5151 -0.4781  0.5925
  10023SM  H18S13589   6.890   5.653  13.854  0.1139  0.1048  0.3457
  10023SM  H18T13590   7.065   5.634  13.873 -2.1896  4.0455  4.2899
  10023SM  H18U13591   6.955   5.559  13.993 -1.8271  1.1296  0.7914
  10023SM   C1F13592   6.771   5.598  12.603  0.2823 -0.6638 -0.5501
  10023SM    OF13593   6.654   5.590  12.562 -0.0543 -0.2049  0.4412
  10023SM   C2F13594   6.800   5.591  12.746  0.5741  0.4906 -0.4645
  10023SM   H2F13595   6.773   5.684  12.799  0.8713 -0.5994  1.7153
  10023SM   H2G13596   6.909   5.576  12.763  0.3215 -0.8143  0.1219
  10023SM   C3F13597   6.721   5.474  12.812 -0.3332  0.5323  0.0008
  10023SM   H3F13598   6.770   5.381  12.775  0.1089  1.5571 -2.1000
  10023SM   H3G13599   6.618   5.484  12.773 -0.3640  0.7136  0.1273
  10023SM   C4F13600   6.724   5.479  12.969 -0.5630  0.6232  0.0913
  10023SM   H4F13601   6.828   5.477  13.008 -0.4119  1.1967 -0.2623
  10023SM   H4G13602   6.678   5.390  13.016  2.9002  0.1828  3.1041
  10023SM   C5F13603   6.664   5.607  13.031 -0.8313 -0.0393  0.2368
  10023SM   H5F13604   6.565   5.624  12.984 -0.8906 -1.4833 -0.2144
  10023SM   H5G13605   6.730   5.690  12.997  0.1949 -1.1500 -0.5486
  10023SM   C6F13606   6.656   5.601  13.183  0.0880  0.0501 -0.2854
  10023SM   H6F13607   6.758   5.592  13.224 -0.5954 -3.1155  1.0337
  10023SM   H6G13608   6.599   5.512  13.217  2.3875 -0.8799  1.3317
  10023SM   C7F13609   6.599   5.726  13.240  0.4858 -0.2070  0.2434
  10023SM   H7F13610   6.500   5.752  13.198 -0.5655 -2.4550  1.1610
  10023SM   H7G13611   6.679   5.802  13.227  0.3126 -0.1397 -0.4749
  10023SM   C8F13612   6.554   5.705  13.388  0.0036  0.1157  0.1389
  10023SM   H8F13613   6.480   5.622  13.393 -0.1240  0.2357  0.2444
  10023SM   H8G13614   6.504   5.795  13.429  2.0734  1.6126 -0.5060
  10023SM   C9F13615   6.674   5.665  13.472  0.4831 -0.4020  0.1045
  10023SM   H9F13616   6.754   5.739  13.452 -1.2905  1.7234  0.3919
  10023SM   H9G13617   6.692   5.560  13.441 -0.5583 -0.5437 -0.0757
  10023SM  C10F13618   6.628   5.675  13.619 -0.2458 -0.2254 -0.1030
  10023SM  H10F13619   6.613   5.783  13.642 -0.8154 -0.7788  2.4557
  10023SM  H10G13620   6.708   5.643  13.689  0.0467  0.3187 -0.1819
  10023SM  C11F13621   6.514   5.579  13.661  0.6384  0.7032 -0.1399
  10023SM  H11F13622   6.546   5.474  13.653 -1.9252 -0.2981  1.3690
  10023SM  H11G13623   6.440   5.600  13.580  1.3976 -2.0181 -1.6466
  10023SM  C12F13624   6.460   5.599  13.803  0.1319 -0.1745 -0.0961
  10023SM  H12F13625   6.359   5.554  13.817 -0.7169  1.8784  1.0084
  10023SM  H12G13626   6.447   5.707  13.828 -1.2160 -0.4059  0.3187
  10023SM  C13F13627   6.556   5.538  13.911  0.3105 -0.0813  0.2408
  10023SM  H13F13628   6.648   5.601  13.910 -0.1340  0.6071  1.1624
  10023SM  H13G13629   6.574   5.435  13.875  0.7573  0.0552  0.0631
  10023SM  C14F13630   6.515   5.526  14.053  0.2772  0.7058  0.0861
  10023SM  H14F13631   6.590   5.476  14.118 -0.4205 -3.2860 -1.8920
  10023SM  H14G13632   6.422   5.465  14.056  0.8876 -0.2064  1.3645
  10023SM  C15F13633   6.455   5.658  14.103 -0.3018  0.9024  0.0479
  10023SM  H15F13634   6.355   5.662  14.055 -0.0045 -0.6311 -0.7489
  10023SM  H15G13635   6.509   5.749  14.066  1.3809  0.3265  0.9571
  10023SM  C16F13636   6.444   5.668  14.249 -0.5550  0.1676 -0.6707
  10023SM  H16F13637   6.419   5.566  14.288  1.0682  0.1054  0.3118
  10023SM  H16G13638   6.372   5.745  14.284  0.3431 -0.3718  2.7884
  10023SM  C17F13639   6.577   5.701  14.320 -0.2286  0.0427 -1.1719
  10023SM  H17F13640   6.610   5.805  14.299  0.9440  0.2723  1.4564
  10023SM  H17G13641   6.656   5.633  14.283 -0.6026 -0.2232 -1.4982
  10023SM  C18F13642   6.560   5.694  14.475 -0.1630  0.3787 -0.1138
  10023SM  H18F13643   6.665   5.696  14.513 -0.4639  0.9298  0.7019
  10023SM  H18G13644   6.508   5.600  14.502  0.0087 -0.0819 -1.3004
  10023SM  C19F13645   6.487   5.819  14.529  0.2645 -0.3382  0.0877
  10023SM  H19F13646   6.393   5.815  14.470  1.2715  0.9921 -1.7304
  10023SM  H19G13647   6.548   5.908  14.502 -0.9847  2.7416  5.8544
  10023SM  C20F13648   6.459   5.829  14.682 -0.2891 -0.5701 -0.5333
  10023SM  H20F13649   6.555   5.831  14.739  0.7294 -1.3963 -2.1383
  10023SM  H20G13650   6.407   5.732  14.699  0.8300 -1.1218 -0.1072
  10023SM  C21F13651   6.367   5.949  14.715  0.3237  0.2845  0.1771
  10023SM  H21F13652   6.264   5.946  14.674  0.9187 -0.0368 -1.3268
  10023SM  H21G13653   6.424   6.032  14.668 -0.0235 -0.3786 -1.4869
  10023SM  C22F13654   6.354   5.959  14.867  0.2139 -0.9067  0.2754
  10023SM  H22F13655   6.442   5.917  14.920  1.5169  0.9712 -0.2837
  10023SM  H22G13656   6.270   5.891  14.893  0.2369 -0.7194  0.8668
  10023SM  C23F13657   6.337   6.105  14.912 -0.0278 -0.0412 -0.3348
  10023SM  H23F13658   6.427   6.161  14.879 -0.6214  2.1393  1.5188
  10023SM  H23G13659   6.328   6.125  15.020  1.2328  3.1123 -0.7135
  10023SM  H23H13660   6.253   6.153  14.857 -0.2560  2.0921  1.7219
  101CHL1    C313661   3.395   2.775  16.303  0.5864 -0.3849  0.2154
  101CHL1    H313662   3.433   2.676  16.336 -0.9183 -0.6110  1.3478
  101CHL1    O313663   3.358   2.842  16.428 -0.2347 -0.0638  0.0140
  101CHL1   H3'13664   3.343   2.935  16.409  3.5846  0.7916  0.4691
  101CHL1    C413665   3.498   2.861  16.239  0.5631  0.2938  0.1031
  101CHL1   H4A13666   3.461   2.965  16.249 -1.8751 -0.4973 -0.0364
  101CHL1   H4B13667   3.591   2.864  16.299  0.0875  2.5394  0.8117
  101CHL1    C513668   3.531   2.849  16.088 -0.3548 -0.5043 -0.4239
  101CHL1    C613669   3.656   2.826  16.035  0.2272 -0.3680  0.2244
  101CHL1    H613670   3.744   2.826  16.101 -0.2948  3.4923  1.1855
  101CHL1    C713671   3.672   2.827  15.886 -0.0543 -0.1383 -0.0642
  101CHL1   H7A13672   3.762   2.886  15.859  1.2131 -2.2221 -0.5953
  101CHL1   H7B13673   3.686   2.723  15.850 -0.1162 -0.0098 -0.4633
  101CHL1    C813674   3.552   2.882  15.797  0.2136 -0.6356 -0.3511
  101CHL1    H813675   3.555   2.993  15.809  1.5595 -0.5039 -1.6547
  101CHL1   C1413676   3.567   2.846  15.651  0.2483  0.0496  0.2809
  101CHL1   H1413677   3.574   2.736  15.639 -1.3142 -0.2025  1.4210
  101CHL1   C1513678   3.699   2.892  15.579 -0.1056 -0.2917 -0.4018
  101CHL1  H15A13679   3.700   3.003  15.580  0.4677 -0.2969 -0.5352
  101CHL1  H15B13680   3.793   2.853  15.624 -1.8369 -0.9697  2.9435
  101CHL1   C1613681   3.669   2.859  15.435  0.3918  0.2437  0.4563
  101CHL1  H16A13682   3.723   2.921  15.360  2.2755 -0.3245  1.2837
  101CHL1  H16B13683   3.703   2.754  15.423 -2.7435 -0.9557  0.9002
  101CHL1   C1713684   3.514   2.857  15.423  0.1859 -0.6610  0.3129
  101CHL1   H1713685   3.496   2.748  15.416  0.1089 -0.7205  1.2200
  101CHL1   C1313686   3.451   2.892  15.560  0.1876 -0.6876 -0.6807
  101CHL1   C1813687   3.435   3.043  15.556  0.3730  0.2375  0.1788
  101CHL1  H18A13688   3.516   3.100  15.506 -0.1857  0.6204 -0.3030
  101CHL1  H18B13689   3.343   3.060  15.496  1.7794  2.0789 -1.6245
  101CHL1  H18C13690   3.431   3.086  15.659  4.1908  0.0583  0.5592
  101CHL1   C1213691   3.328   2.821  15.611 -0.2401 -0.3506  0.1468
  101CHL1  H12A13692   3.243   2.864  15.554  2.5158  1.8638 -2.6952
  101CHL1  H12B13693   3.342   2.712  15.594  2.6954  0.0294 -0.5009
  101CHL1   C1113694   3.299   2.848  15.760 -0.5668 -0.4322 -0.4948
  101CHL1  H11A13695   3.272   2.955  15.768  0.0222 -0.3912  1.6065
  101CHL1  H11B13696   3.216   2.782  15.793 -0.8226  0.0687 -0.1165
  101CHL1    C913697   3.425   2.817  15.850  0.6085  0.6847 -0.2260
  101CHL1    H913698   3.446   2.708  15.841  1.5132  0.6300  2.0293
  101CHL1   C1013699   3.396   2.852  16.006  0.1129  1.0083  0.2103
  101CHL1   C1913700   3.333   2.991  16.015 -0.3819 -0.1544 -0.1402
  101CHL1  H19A13701   3.394   3.068  15.962 -0.2940  0.6078  1.0429
  101CHL1  H19B13702   3.233   2.993  15.965 -0.0455  2.3618 -0.8624
  101CHL1  H19C13703   3.317   3.025  16.119 -2.3951 -1.8483  0.1615
  101CHL1    C113704   3.308   2.739  16.072  0.2880 -0.4134  0.0349
  101CHL1   H1A13705   3.213   2.719  16.018 -0.3868  0.8191  0.7296
  101CHL1   H1B13706   3.369   2.646  16.065  0.3002 -0.3795 -0.3504
  101CHL1    C213707   3.272   2.772  16.218  0.1455 -0.6083 -0.3450
  101CHL1   H2A13708   3.216   2.685  16.259  0.9767 -0.5434  1.0135
  101CHL1   H2B13709   3.209   2.863  16.231 -2.5558 -2.4806  0.4555
  101CHL1   C2013710   3.454   2.910  15.290 -0.4099  0.2449  0.1391
  101CHL1   H2013711   3.487   3.016  15.289 -1.8486  0.7069 -1.2116
  101CHL1   C2113712   3.306   2.889  15.279 -0.2503  0.0453 -0.0253
  101CHL1  H21A13713   3.280   2.781  15.281 -0.0512 -0.0550 -1.8279
  101CHL1  H21B13714   3.274   2.926  15.179  1.1871  3.0019  0.5175
  101CHL1  H21C13715   3.249   2.942  15.359  1.6780  0.0929  1.3725
  101CHL1   C2213716   3.516   2.840  15.168  0.2901 -0.4376  0.2092
  101CHL1  H22A13717   3.626   2.834  15.172  0.2910  0.3747  2.4239
  101CHL1  H22B13718   3.475   2.737  15.156  1.0807 -0.7139 -0.1750
  101CHL1   C2313719   3.491   2.912  15.027 -0.4250  0.3344 -0.1536
  101CHL1  H23A13720   3.382   2.928  15.012 -0.4809  1.4635  1.2536
  101CHL1  H23B13721   3.532   3.012  15.052  0.6741 -0.8273  3.2227
  101CHL1   C2413722   3.564   2.848  14.906  0.3540 -0.1501 -0.2813
  101CHL1  H24A13723   3.671   2.865  14.930  0.5377 -0.7982 -0.6157
  101CHL1  H24B13724   3.561   2.742  14.874  0.5323  0.8059 -3.9833
  101CHL1   C2513725   3.531   2.928  14.775 -0.0336  0.2940  0.1273
  101CHL1   H2513726   3.531   3.037  14.799  0.7393 -0.2015  2.8280
  101CHL1   C2613727   3.640   2.917  14.665  0.0055 -0.2748  0.5236
  101CHL1  H26A13728   3.592   2.950  14.571  0.1257  2.2256  1.2849
  101CHL1  H26B13729   3.727   2.980  14.694 -0.1627 -0.2959  1.0959
  101CHL1  H26C13730   3.676   2.814  14.643  2.7216  0.9059 -1.0816
  101CHL1   C2713731   3.394   2.893  14.721 -0.6524  0.0114 -0.2951
  101CHL1  H27A13732   3.311   2.916  14.791 -0.8662 -1.3809 -0.0631
  101CHL1  H27B13733   3.371   2.944  14.625  1.7751  2.7561  0.4351
  101CHL1  H27C13734   3.383   2.783  14.707 -0.8901 -0.0317  0.2126
  102CHL1    C313735   2.348   2.782  16.092 -0.4120 -0.9286 -0.6972
  102CHL1    H313736   2.439   2.720  16.076 -0.6096 -1.7426  0.9937
  102CHL1    O313737   2.341   2.785  16.235  0.0082  0.6710  0.1138
  102CHL1   H3'13738   2.257   2.825  16.259 -0.6207  0.0269 -0.9305
  102CHL1    C413739   2.379   2.921  16.037  0.2536  0.6375  0.6229
  102CHL1   H4A13740   2.296   2.988  16.069 -1.5740 -0.5645 -1.3440
  102CHL1   H4B13741   2.472   2.964  16.080  0.8904  0.4872 -0.5720
  102CHL1    C513742   2.377   2.923  15.883 -0.2931  0.5557  0.8045
  102CHL1    C613743   2.479   2.953  15.805  0.4432 -0.5411 -0.2239
  102CHL1    H613744   2.580   2.976  15.842  0.8079 -2.1947 -0.1046
  102CHL1    C713745   2.483   2.977  15.653  0.2477  0.1465 -0.4352
  102CHL1   H7A13746   2.510   3.083  15.638 -3.0394  1.1580 -0.0358
  102CHL1   H7B13747   2.557   2.916  15.597  0.0781 -0.6419  0.1744
  102CHL1    C813748   2.335   2.960  15.594 -0.2298 -0.2183 -0.0255
  102CHL1    H813749   2.281   3.055  15.611 -0.0981 -0.2282  0.4853
  102CHL1   C1413750   2.347   2.931  15.446 -0.2582  0.1986  0.0764
  102CHL1   H1413751   2.395   2.831  15.442 -0.5677  0.0691 -0.4200
  102CHL1   C1513752   2.428   3.026  15.360  0.9230 -0.3896 -0.2272
  102CHL1  H15A13753   2.421   3.129  15.401  1.2086 -0.5890  0.3180
  102CHL1  H15B13754   2.533   2.991  15.361  1.1436  0.2564 -0.1366
  102CHL1   C1613755   2.371   3.014  15.224  0.4488  0.4454  0.7115
  102CHL1  H16A13756   2.347   3.117  15.189 -3.1580 -0.6345 -0.3796
  102CHL1  H16B13757   2.446   2.979  15.150  1.0070  3.0659 -0.0808
  102CHL1   C1713758   2.252   2.916  15.222  0.3082  0.5331 -0.4321
  102CHL1   H1713759   2.304   2.819  15.205  1.0346  1.0724 -1.3428
  102CHL1   C1313760   2.211   2.917  15.375 -0.1861 -0.4303  0.2920
  102CHL1   C1813761   2.129   3.047  15.394  0.4112  0.7256  0.0953
  102CHL1  H18A13762   2.024   3.024  15.365  0.0429 -0.3114  2.0239
  102CHL1  H18B13763   2.127   3.079  15.501 -0.3253 -2.8537  1.2999
  102CHL1  H18C13764   2.168   3.135  15.338 -0.1894  0.8819 -0.0872
  102CHL1   C1213765   2.148   2.785  15.430 -0.0704  0.1215 -0.5305
  102CHL1  H12A13766   2.044   2.769  15.395 -0.2087 -1.6008  0.5531
  102CHL1  H12B13767   2.211   2.697  15.406 -1.1542 -0.7255 -0.3786
  102CHL1   C1113768   2.133   2.801  15.585  0.0612 -0.3503  0.1422
  102CHL1  H11A13769   2.052   2.877  15.598 -0.0250  0.3074 -3.2974
  102CHL1  H11B13770   2.093   2.711  15.637  1.3710 -0.2449  1.3724
  102CHL1    C913771   2.263   2.845  15.668  0.3695  0.4908  0.7097
  102CHL1    H913772   2.329   2.757  15.656 -1.5377 -1.1253  1.5082
  102CHL1   C1013773   2.243   2.862  15.825 -1.2108 -0.4797  0.2128
  102CHL1   C1913774   2.123   2.944  15.850  0.1679 -0.2813 -0.7346
  102CHL1  H19A13775   2.120   2.968  15.958 -1.2664 -1.1705 -0.5639
  102CHL1  H19B13776   2.132   3.038  15.791  1.1107 -0.5332 -1.0107
  102CHL1  H19C13777   2.028   2.903  15.811 -0.1918 -0.1798  0.0229
  102CHL1    C113778   2.219   2.718  15.887 -0.3787 -0.2570  0.0121
  102CHL1   H1A13779   2.126   2.682  15.837 -1.8420  2.0311  0.9561
  102CHL1   H1B13780   2.304   2.654  15.854  1.6210  1.3210  1.8506
  102CHL1    C213781   2.222   2.720  16.040  0.1061  0.2691  0.4296
  102CHL1   H2A13782   2.220   2.615  16.076  0.8333  0.5139  1.2056
  102CHL1   H2B13783   2.135   2.781  16.071 -1.4413 -1.5166 -0.1673
  102CHL1   C2013784   2.148   2.938  15.111  0.1074 -0.3128  0.5738
  102CHL1   H2013785   2.100   3.037  15.128  1.0879  0.4092 -0.7033
  102CHL1   C2113786   2.040   2.828  15.134  0.0719 -0.3946 -0.2422
  102CHL1  H21A13787   1.971   2.862  15.214 -1.5211 -1.6530 -1.0306
  102CHL1  H21B13788   2.093   2.736  15.166 -1.4053 -0.9039  0.8525
  102CHL1  H21C13789   1.979   2.817  15.042  1.5664 -0.9727 -1.2037
  102CHL1   C2213790   2.218   2.925  14.972 -0.8252 -0.0782  0.7038
  102CHL1  H22A13791   2.299   3.000  14.979  1.1582 -2.1494  0.9382
  102CHL1  H22B13792   2.281   2.837  14.948 -2.1295 -0.3851 -2.0285
  102CHL1   C2313793   2.128   2.977  14.858 -0.2224  0.1762  0.0746
  102CHL1  H23A13794   2.047   2.902  14.842  1.6456 -1.7357 -0.8585
  102CHL1  H23B13795   2.077   3.073  14.881  0.0614  0.3243  0.0811
  102CHL1   C2413796   2.214   2.993  14.732  0.1534 -0.7714  0.0612
  102CHL1  H24A13797   2.306   3.043  14.771 -0.0840  1.0184 -1.4917
  102CHL1  H24B13798   2.241   2.888  14.707  1.6521  0.0156 -1.9462
  102CHL1   C2513799   2.145   3.065  14.623  0.3492 -0.0260 -0.0045
  102CHL1   H2513800   2.077   3.146  14.657  2.3089  1.2947  0.9282
  102CHL1   C2613801   2.242   3.133  14.521 -0.4625 -0.3732  0.1824
  102CHL1  H26A13802   2.310   3.055  14.479  0.3162 -0.2574  1.1829
  102CHL1  H26B13803   2.191   3.192  14.442 -1.5836 -0.5680  0.7465
  102CHL1  H26C13804   2.303   3.209  14.575 -1.3543  0.4080  0.1035
  102CHL1   C2713805   2.057   2.966  14.547 -0.0141  0.9185 -0.0666
  102CHL1  H27A13806   2.129   2.899  14.495  0.9964  2.1485 -0.2749
  102CHL1  H27B13807   2.014   2.903  14.628  1.9519  0.7128  0.8752
  102CHL1  H27C13808   1.986   3.008  14.472 -0.2698 -2.3210 -1.8372
  103CHL1    C313809   2.015   1.753  16.082 -0.2657  0.0968 -0.3259
  103CHL1    H313810   2.106   1.812  16.060 -1.1566  1.5897 -0.1206
  103CHL1    O313811   1.975   1.759  16.221 -0.1259 -0.2458  0.3100
  103CHL1   H3'13812   1.894   1.709  16.227  0.2750 -0.8115  1.2453
  103CHL1    C413813   1.891   1.813  16.007  0.0412 -0.1560 -0.3651
  103CHL1   H4A13814   1.804   1.748  16.027  1.6848 -1.8321  1.8342
  103CHL1   H4B13815   1.877   1.916  16.047  0.6261 -0.6126  1.0806
  103CHL1    C513816   1.928   1.815  15.860  0.2590  0.5918 -0.4024
  103CHL1    C613817   1.919   1.931  15.791 -0.0125  0.7318  0.6730
  103CHL1    H613818   1.876   2.022  15.837  0.6658  0.5248  1.7350
  103CHL1    C713819   1.949   1.943  15.646 -0.2814  0.1655  0.2562
  103CHL1   H7A13820   1.860   1.987  15.595 -1.7386 -2.4070  0.4342
  103CHL1   H7B13821   2.034   2.014  15.638 -0.4549  0.3302 -0.1777
  103CHL1    C813822   1.980   1.802  15.581 -0.0666 -0.3158 -0.4788
  103CHL1    H813823   1.880   1.755  15.566  0.3222 -1.7537  1.1706
  103CHL1   C1413824   2.050   1.818  15.449  0.4983  0.3126 -0.5397
  103CHL1   H1413825   2.151   1.862  15.459  0.9518 -0.6124 -0.9714
  103CHL1   C1513826   1.967   1.900  15.345 -0.5416  0.3208 -0.1354
  103CHL1  H15A13827   1.859   1.874  15.346 -0.3621 -0.6297 -1.7412
  103CHL1  H15B13828   1.970   2.005  15.379 -0.7718 -0.0724  1.1320
  103CHL1   C1613829   2.038   1.874  15.216 -0.8291  0.4296 -0.0604
  103CHL1  H16A13830   1.964   1.854  15.135  0.7136 -0.4744 -1.3176
  103CHL1  H16B13831   2.102   1.958  15.182 -0.3806  0.7473  1.5243
  103CHL1   C1713832   2.117   1.741  15.242  0.0890  0.1273  0.5640
  103CHL1   H1713833   2.222   1.776  15.256 -0.6767  1.7087  3.2263
  103CHL1   C1313834   2.074   1.685  15.375  0.5747 -0.2462 -0.5315
  103CHL1   C1813835   1.943   1.608  15.358  0.2848  0.0162 -0.0355
  103CHL1  H18A13836   1.958   1.512  15.305 -0.7008 -0.0049 -0.2866
  103CHL1  H18B13837   1.899   1.592  15.459  0.3918  2.7303  0.5235
  103CHL1  H18C13838   1.861   1.663  15.307  1.7627 -0.1821 -2.7912
  103CHL1   C1213839   2.183   1.615  15.460  0.7399 -0.1810 -0.6896
  103CHL1  H12A13840   2.202   1.515  15.414  0.0627 -0.5969 -0.1009
  103CHL1  H12B13841   2.272   1.681  15.467 -0.4913  1.8040 -2.7054
  103CHL1   C1113842   2.130   1.585  15.598  0.1960  0.1247 -0.2060
  103CHL1  H11A13843   2.063   1.497  15.585  0.7527  0.0984 -4.4603
  103CHL1  H11B13844   2.213   1.546  15.662 -0.5000  1.1537  1.3813
  103CHL1    C913845   2.058   1.705  15.673 -0.2558 -0.4977  0.1761
  103CHL1    H913846   2.148   1.766  15.699 -0.4275 -0.4252  0.6174
  103CHL1   C1013847   1.987   1.678  15.801 -0.5751  0.5002 -0.1146
  103CHL1   C1913848   1.878   1.570  15.785  0.0461 -0.6741 -0.0132
  103CHL1  H19A13849   1.819   1.565  15.879  1.5201  0.1527  1.0082
  103CHL1  H19B13850   1.817   1.598  15.697 -1.5267 -1.5563  0.7502
  103CHL1  H19C13851   1.921   1.469  15.767 -2.4153 -2.3038  2.5321
  103CHL1    C113852   2.093   1.614  15.890  0.1694  0.3119 -0.4703
  103CHL1   H1A13853   2.112   1.507  15.865 -0.4893 -0.0773  0.6232
  103CHL1   H1B13854   2.190   1.668  15.879  0.6018 -0.1084  0.9536
  103CHL1    C213855   2.051   1.610  16.036  0.0202 -0.5658 -0.4177
  103CHL1   H2A13856   2.135   1.584  16.105 -1.0080 -1.0903  0.6625
  103CHL1   H2B13857   1.975   1.537  16.071  0.4769 -0.0273  1.8166
  103CHL1   C2013858   2.110   1.638  15.121 -0.3002 -0.4045 -0.0675
  103CHL1   H2013859   2.002   1.613  15.107 -0.9567  1.7319  0.7379
  103CHL1   C2113860   2.191   1.508  15.154  0.7243 -0.2805 -0.4986
  103CHL1  H21A13861   2.284   1.531  15.210  0.1957 -1.2930  0.8732
  103CHL1  H21B13862   2.220   1.452  15.063  0.9526  0.7410 -1.0723
  103CHL1  H21C13863   2.138   1.439  15.223 -1.9118  1.5423 -0.5292
  103CHL1   C2213864   2.172   1.706  14.993  0.5963  0.1880 -0.0844
  103CHL1  H22A13865   2.119   1.797  14.961  0.5671 -0.3050 -1.4854
  103CHL1  H22B13866   2.276   1.732  15.022  0.2074  0.1611  1.4649
  103CHL1   C2313867   2.165   1.628  14.858 -0.2104 -0.5161 -0.5521
  103CHL1  H23A13868   2.242   1.549  14.871  0.7701  0.1911 -1.8398
  103CHL1  H23B13869   2.063   1.585  14.848 -0.3888 -0.7568  1.7771
  103CHL1   C2413870   2.188   1.721  14.734 -0.3196 -0.2685 -0.1048
  103CHL1  H24A13871   2.103   1.792  14.732  0.4410  0.6551 -1.8713
  103CHL1  H24B13872   2.285   1.774  14.746 -1.2603  1.0361  2.6639
  103CHL1   C2513873   2.190   1.642  14.599 -0.4786 -0.2794  0.1810
  103CHL1   H2513874   2.086   1.613  14.574 -0.5913 -0.4277  0.7885
  103CHL1   C2613875   2.237   1.731  14.485  0.0773 -0.5966  0.5710
  103CHL1  H26A13876   2.214   1.676  14.391 -0.5690  0.7386 -0.0719
  103CHL1  H26B13877   2.186   1.829  14.495  3.0696  1.1367  0.0326
  103CHL1  H26C13878   2.346   1.748  14.497 -0.2535  1.8355  0.5448
  103CHL1   C2713879   2.267   1.512  14.598  0.1777 -0.1465 -0.0601
  103CHL1  H27A13880   2.207   1.433  14.649  0.7874 -0.1971  0.5986
  103CHL1  H27B13881   2.289   1.489  14.492 -1.4546  0.6815 -0.6152
  103CHL1  H27C13882   2.358   1.522  14.662 -0.6322 -0.8890  1.2564
  104CHL1    C313883   5.476   4.028  16.137  0.7890 -0.2231  0.5051
  104CHL1    H313884   5.502   3.946  16.066 -1.7197  0.5894 -1.4907
  104CHL1    O313885   5.455   3.989  16.271 -0.2081  0.2979 -0.1086
  104CHL1   H3'13886   5.372   3.942  16.281  0.4450 -0.8592  0.0469
  104CHL1    C413887   5.588   4.128  16.128  0.1945 -0.2707  0.8739
  104CHL1   H4A13888   5.580   4.214  16.197 -1.8821 -2.6492  3.8447
  104CHL1   H4B13889   5.677   4.070  16.161  1.4639 -0.2070 -2.0790
  104CHL1    C513890   5.598   4.166  15.979  0.2842 -0.1159 -0.3047
  104CHL1    C613891   5.713   4.143  15.908 -0.0296  0.0834  0.0987
  104CHL1    H613892   5.802   4.099  15.956  0.1523  0.4209  0.0746
  104CHL1    C713893   5.734   4.190  15.766 -0.1854 -0.1090  0.0700
  104CHL1   H7A13894   5.833   4.237  15.753 -0.2468  0.2605  0.8509
  104CHL1   H7B13895   5.732   4.098  15.703  0.0997  1.0451 -1.6861
  104CHL1    C813896   5.618   4.292  15.727  0.4479  0.7301  0.4419
  104CHL1    H813897   5.647   4.384  15.782  0.4240 -0.1817  2.0730
  104CHL1   C1413898   5.622   4.306  15.582  0.1452 -0.1223  0.8941
  104CHL1   H1413899   5.583   4.215  15.532 -1.0948  0.6365  0.4217
  104CHL1   C1513900   5.763   4.328  15.520 -0.0168  0.4549  0.1825
  104CHL1  H15A13901   5.805   4.392  15.601 -1.7621  1.0612  0.6716
  104CHL1  H15B13902   5.827   4.237  15.518 -0.4466  0.1615 -1.7781
  104CHL1   C1613903   5.734   4.393  15.382 -1.0248  0.6343  0.6309
  104CHL1  H16A13904   5.778   4.495  15.385  0.6488 -0.0406 -0.0489
  104CHL1  H16B13905   5.757   4.318  15.304  1.7877  1.8143  0.1998
  104CHL1   C1713906   5.587   4.421  15.378 -0.2066 -0.4242 -0.4454
  104CHL1   H1713907   5.534   4.334  15.334  1.7748 -2.1226  0.3854
  104CHL1   C1313908   5.538   4.421  15.525 -0.2728 -0.6236  0.9805
  104CHL1   C1813909   5.584   4.557  15.591  0.3206  0.3784 -0.4124
  104CHL1  H18A13910   5.694   4.563  15.581  0.2699  0.4393 -0.9754
  104CHL1  H18B13911   5.543   4.641  15.531  2.4334  0.9437 -1.1439
  104CHL1  H18C13912   5.557   4.572  15.698  0.8624  0.0165 -0.2154
  104CHL1   C1213913   5.389   4.387  15.556 -0.4170 -0.0847  0.1752
  104CHL1  H12A13914   5.326   4.472  15.522  0.5340  0.7259  0.4022
  104CHL1  H12B13915   5.359   4.293  15.506 -2.8497  0.3025  0.7865
  104CHL1   C1113916   5.365   4.356  15.709  0.1272  0.0812  0.3250
  104CHL1  H11A13917   5.372   4.453  15.762  1.8340  0.3113 -0.2824
  104CHL1  H11B13918   5.259   4.323  15.722 -0.4553  0.7882 -2.0348
  104CHL1    C913919   5.475   4.255  15.771  0.2608  0.4897  0.8449
  104CHL1    H913920   5.462   4.159  15.716  2.3681 -0.3645  1.7479
  104CHL1   C1013921   5.464   4.229  15.925 -0.0974  0.6920  0.1559
  104CHL1   C1913922   5.443   4.360  15.996  0.3575 -0.8890  0.2186
  104CHL1  H19A13923   5.438   4.347  16.106  0.1180 -0.0160  0.3246
  104CHL1  H19B13924   5.535   4.419  15.976  0.8284 -1.0782  1.7293
  104CHL1  H19C13925   5.352   4.414  15.961 -0.2924 -1.4603  1.0005
  104CHL1    C113926   5.341   4.132  15.955 -0.4462 -0.0362  0.0295
  104CHL1   H1A13927   5.244   4.186  15.942 -0.8239  0.3560  3.3807
  104CHL1   H1B13928   5.368   4.057  15.878  2.7329  1.1414 -0.1660
  104CHL1    C213929   5.337   4.079  16.096 -0.5541  0.4758 -0.2835
  104CHL1   H2A13930   5.263   3.996  16.105  0.8956 -0.8591 -0.2147
  104CHL1   H2B13931   5.306   4.152  16.174  0.6423  0.6230  0.0726
  104CHL1   C2013932   5.549   4.547  15.300  0.6805  0.3720 -0.3684
  104CHL1   H2013933   5.607   4.633  15.340  3.8753  0.3841 -4.2918
  104CHL1   C2113934   5.397   4.586  15.289 -0.4867  0.1502 -0.0177
  104CHL1  H21A13935   5.358   4.625  15.385  0.2790  3.5913 -0.9815
  104CHL1  H21B13936   5.344   4.491  15.265 -0.9265 -0.1172  1.8875
  104CHL1  H21C13937   5.389   4.665  15.211  0.4911 -0.8092 -1.1463
  104CHL1   C2213938   5.608   4.547  15.157 -0.4806  0.1785 -0.2342
  104CHL1  H22A13939   5.610   4.654  15.128  0.4401 -0.3469 -2.3516
  104CHL1  H22B13940   5.714   4.513  15.159 -1.0631 -1.7848 -0.0542
  104CHL1   C2313941   5.542   4.463  15.050 -0.1053 -0.2679  0.3801
  104CHL1  H23A13942   5.568   4.358  15.076  1.9057 -0.2910 -1.4408
  104CHL1  H23B13943   5.435   4.491  15.045 -0.5351 -1.9493 -0.4078
  104CHL1   C2413944   5.605   4.485  14.907  0.3627  0.7492 -0.5450
  104CHL1  H24A13945   5.613   4.595  14.896 -3.3994  1.0669 -1.2047
  104CHL1  H24B13946   5.709   4.446  14.912 -0.0185 -0.2757 -0.2902
  104CHL1   C2513947   5.539   4.419  14.789  0.0172 -0.0954  0.3355
  104CHL1   H2513948   5.555   4.311  14.806 -0.0030 -0.5175 -1.9401
  104CHL1   C2613949   5.383   4.438  14.790 -0.1164  0.2145  0.0079
  104CHL1  H26A13950   5.351   4.370  14.708 -3.9284 -1.5014  2.6423
  104CHL1  H26B13951   5.331   4.390  14.876  2.3128 -1.0513  0.8918
  104CHL1  H26C13952   5.360   4.542  14.759 -4.3937 -0.1578  1.3315
  104CHL1   C2713953   5.595   4.465  14.656  0.2765 -0.0808 -0.0017
  104CHL1  H27A13954   5.554   4.413  14.566  0.7420  1.0521 -0.9003
  104CHL1  H27B13955   5.560   4.568  14.631  1.9779  0.3868 -0.6005
  104CHL1  H27C13956   5.706   4.468  14.648  0.2988  0.7441  0.4621
  105CHL1    C313957   5.917   1.915  16.098  0.3939 -0.1785  0.0467
  105CHL1    H313958   5.918   2.023  16.072 -0.9256  0.0281  0.7364
  105CHL1    O313959   5.939   1.899  16.239  0.8800 -0.1198 -0.1609
  105CHL1   H3'13960   5.865   1.851  16.277 -0.4846  1.5369 -0.5889
  105CHL1    C413961   5.785   1.852  16.054 -0.1056  0.0076 -0.0542
  105CHL1   H4A13962   5.791   1.750  16.098 -0.7287  0.2590  0.6404
  105CHL1   H4B13963   5.698   1.893  16.111  0.2204  0.2088  0.2979
  105CHL1    C513964   5.762   1.850  15.906 -0.2521  0.3369 -0.5438
  105CHL1    C613965   5.650   1.894  15.850  0.1165 -0.1436  0.4265
  105CHL1    H613966   5.566   1.935  15.907 -2.1186 -3.1234 -0.5095
  105CHL1    C713967   5.634   1.896  15.697  0.1816  0.0914  0.5513
  105CHL1   H7A13968   5.531   1.881  15.658  0.1030  1.0374  0.3889
  105CHL1   H7B13969   5.658   1.998  15.662 -0.8729 -0.0934 -0.7824
  105CHL1    C813970   5.729   1.798  15.620  0.2127 -0.0456 -0.2687
  105CHL1    H813971   5.684   1.699  15.646  0.6297  0.3749  2.3506
  105CHL1   C1413972   5.720   1.829  15.472  0.0593  0.7013  0.1704
  105CHL1   H1413973   5.751   1.932  15.446  1.2582  0.5807  1.0453
  105CHL1   C1513974   5.581   1.812  15.400 -0.0911 -0.5546 -0.4540
  105CHL1  H15A13975   5.513   1.738  15.447 -1.5067 -0.1426 -1.7602
  105CHL1  H15B13976   5.520   1.905  15.399 -0.4717 -0.8018 -0.2872
  105CHL1   C1613977   5.610   1.786  15.254  0.0582 -0.1917 -0.5467
  105CHL1  H16A13978   5.568   1.688  15.221 -1.6320 -0.1557  1.2932
  105CHL1  H16B13979   5.566   1.866  15.192  1.7412  2.4847  1.4889
  105CHL1   C1713980   5.764   1.789  15.244 -0.9076 -0.1368  0.1051
  105CHL1   H1713981   5.793   1.894  15.227 -0.3309 -0.3640 -0.3554
  105CHL1   C1313982   5.818   1.753  15.387  0.1035 -0.1236 -0.3472
  105CHL1   C1813983   5.792   1.597  15.403  0.2354  0.2038 -0.0850
  105CHL1  H18A13984   5.862   1.538  15.340  1.0087 -1.6512  2.4059
  105CHL1  H18B13985   5.813   1.574  15.509  2.2132 -0.4256 -0.5766
  105CHL1  H18C13986   5.684   1.577  15.383  0.1658 -2.3561  2.3167
  105CHL1   C1213987   5.963   1.789  15.433 -0.4848  0.0091 -0.1040
  105CHL1  H12A13988   6.042   1.722  15.393 -2.5213 -1.1177 -2.5141
  105CHL1  H12B13989   5.989   1.896  15.419 -0.6840  0.2773  1.4683
  105CHL1   C1113990   5.985   1.770  15.587 -0.3266  0.1404 -0.4148
  105CHL1  H11A13991   5.986   1.662  15.613  1.9363 -0.0131 -0.9391
  105CHL1  H11B13992   6.079   1.821  15.614  0.0991  0.0704 -1.7064
  105CHL1    C913993   5.872   1.830  15.670  0.2810 -0.1906 -0.6716
  105CHL1    H913994   5.873   1.939  15.651 -2.0548  0.0653  0.3082
  105CHL1   C1013995   5.886   1.803  15.820 -0.0230 -0.0247 -0.1459
  105CHL1   C1913996   5.893   1.651  15.849  0.0059  1.0087  0.3019
  105CHL1  H19A13997   5.864   1.616  15.950  0.4250 -1.8225 -0.4857
  105CHL1  H19B13998   5.832   1.592  15.778 -0.4405  0.1914  1.3318
  105CHL1  H19C13999   5.994   1.607  15.836 -0.3958 -0.3626  1.5304
  105CHL1    C114000   6.013   1.871  15.868  0.4213 -0.2454  0.7753
  105CHL1   H1A14001   6.110   1.842  15.821  0.6223  2.5160 -0.6680
  105CHL1   H1B14002   5.993   1.979  15.853  1.0526 -0.1465  0.6211
  105CHL1    C214003   6.039   1.862  16.021 -0.2383  0.4110  0.4882
  105CHL1   H2A14004   6.135   1.913  16.043  1.5083 -1.5822 -2.0171
  105CHL1   H2B14005   6.059   1.756  16.046  1.0875  1.3956  4.3356
  105CHL1   C2014006   5.817   1.707  15.121  0.0548 -0.8182  0.8693
  105CHL1   H2014007   5.800   1.599  15.138 -0.8419 -0.5999  1.4254
  105CHL1   C2114008   5.979   1.734  15.102 -0.6699 -0.2446  0.2820
  105CHL1  H21A14009   6.038   1.680  15.178 -0.3246 -0.5859 -0.2247
  105CHL1  H21B14010   5.995   1.844  15.107 -0.5583 -0.1422 -1.6509
  105CHL1  H21C14011   6.017   1.700  15.003  0.2082  1.2255  0.0874
  105CHL1   C2214012   5.739   1.749  14.990 -0.2644 -0.0087 -0.4116
  105CHL1  H22A14013   5.629   1.752  15.006 -0.3905  2.5581 -1.2467
  105CHL1  H22B14014   5.773   1.853  14.971 -0.2538  0.1086  0.2373
  105CHL1   C2314015   5.759   1.644  14.878  0.1978  0.3352  0.4120
  105CHL1  H23A14016   5.868   1.626  14.870  0.6394  2.0458  2.0119
  105CHL1  H23B14017   5.709   1.556  14.923  1.5765 -1.0777 -0.7181
  105CHL1   C2414018   5.689   1.686  14.750 -0.1883 -0.2427  0.8637
  105CHL1  H24A14019   5.580   1.709  14.759  0.0337  1.3599 -0.1111
  105CHL1  H24B14020   5.733   1.784  14.722 -0.0689 -0.8251 -1.1263
  105CHL1   C2514021   5.712   1.591  14.627 -0.4048  0.1985  0.4001
  105CHL1   H2514022   5.813   1.551  14.652 -0.1503  0.9624  0.6213
  105CHL1   C2614023   5.615   1.476  14.634 -0.0272 -0.0192 -0.1071
  105CHL1  H26A14024   5.628   1.405  14.719  2.2036  0.2919 -0.1297
  105CHL1  H26B14025   5.514   1.521  14.638  0.7227  1.7779  4.3653
  105CHL1  H26C14026   5.620   1.411  14.544  1.8093 -1.0543  0.6837
  105CHL1   C2714027   5.704   1.660  14.484  0.5291  0.0462 -0.2995
  105CHL1  H27A14028   5.754   1.603  14.403  0.4535 -2.2723  1.1920
  105CHL1  H27B14029   5.600   1.670  14.447  0.2424  1.6144  0.7933
  105CHL1  H27C14030   5.751   1.761  14.488  1.1033 -0.2480  1.6292
  106CHL1    C314031   0.582   2.109  15.875  0.9782 -0.1052  0.4010
  106CHL1    H314032   0.635   2.207  15.872  0.2176  0.2963 -0.2871
  106CHL1    O314033   0.564   2.074  16.014 -0.6052  0.4067  0.2959
  106CHL1   H3'14034   0.653   2.068  16.048 -0.1660  1.1444 -0.6940
  106CHL1    C414035   0.439   2.107  15.826 -0.3001  0.0957  0.8268
  106CHL1   H4A14036   0.407   2.002  15.812  0.3160  0.0363 -0.2047
  106CHL1   H4B14037   0.370   2.163  15.893 -1.5447 -1.8531  1.2629
  106CHL1    C514038   0.444   2.158  15.686  0.2073 -0.7399 -0.0957
  106CHL1    C614039   0.384   2.275  15.653 -0.1227  0.5902 -0.1921
  106CHL1    H614040   0.327   2.325  15.733  0.4775 -0.4197  0.8984
  106CHL1    C714041   0.371   2.330  15.517 -0.7015  0.4402  0.3979
  106CHL1   H7A14042   0.270   2.359  15.483 -0.6011  1.1494  0.6934
  106CHL1   H7B14043   0.429   2.425  15.513 -1.3598  0.8025 -1.0171
  106CHL1    C814044   0.434   2.236  15.408  1.0158 -0.5584  0.0222
  106CHL1    H814045   0.359   2.159  15.379  0.9617 -0.8537  0.9393
  106CHL1   C1414046   0.471   2.317  15.288 -0.2984 -0.2354  0.1306
  106CHL1   H1414047   0.557   2.381  15.318  2.3646 -2.8265 -1.4559
  106CHL1   C1514048   0.366   2.406  15.229  0.7045  0.3987 -0.5787
  106CHL1  H15A14049   0.275   2.342  15.232  0.7095  0.4227  0.1672
  106CHL1  H15B14050   0.343   2.502  15.279 -0.4402  0.7467 -1.6959
  106CHL1   C1614051   0.400   2.419  15.075 -0.7293  0.1280 -0.0730
  106CHL1  H16A14052   0.313   2.378  15.020 -0.2864  0.1315 -0.7805
  106CHL1  H16B14053   0.428   2.522  15.043  0.8579 -0.6704 -1.4030
  106CHL1   C1714054   0.537   2.335  15.057  0.5873 -0.6570  0.6212
  106CHL1   H1714055   0.628   2.391  15.089 -0.1371  0.3997  0.8768
  106CHL1   C1314056   0.525   2.232  15.171  0.2129 -0.7106  0.0607
  106CHL1   C1814057   0.426   2.121  15.128  0.7318  0.0110 -0.3228
  106CHL1  H18A14058   0.463   2.064  15.041  1.7610  2.7403 -1.7818
  106CHL1  H18B14059   0.432   2.037  15.200  1.7900  0.0366 -0.3664
  106CHL1  H18C14060   0.324   2.158  15.104  0.2248 -1.0703  0.1059
  106CHL1   C1214061   0.661   2.165  15.213  0.1742 -0.7173  0.7506
  106CHL1  H12A14062   0.703   2.097  15.136  0.5630  0.2201  0.1198
  106CHL1  H12B14063   0.740   2.242  15.216 -1.1096  0.6401  0.6811
  106CHL1   C1114064   0.634   2.080  15.341 -0.5399 -0.2117 -0.1407
  106CHL1  H11A14065   0.573   1.991  15.316  2.3468 -2.3660 -0.0075
  106CHL1  H11B14066   0.732   2.038  15.373 -0.6828 -0.3360  0.1358
  106CHL1    C914067   0.562   2.160  15.460 -0.0020  0.4131  0.6718
  106CHL1    H914068   0.643   2.231  15.490  0.2498  0.5118 -0.2082
  106CHL1   C1014069   0.540   2.078  15.588 -0.0518  0.2911 -0.8672
  106CHL1   C1914070   0.475   1.940  15.543 -0.6268  0.0366 -0.6985
  106CHL1  H19A14071   0.382   1.963  15.487 -1.5193  1.5388  1.2321
  106CHL1  H19B14072   0.544   1.874  15.488 -0.3940 -0.1352 -0.2052
  106CHL1  H19C14073   0.440   1.893  15.638  1.6554 -0.6642 -0.1523
  106CHL1    C114074   0.682   2.054  15.655  0.2352  0.0341  0.3262
  106CHL1   H1A14075   0.739   1.989  15.586  0.9893  0.3781  0.6097
  106CHL1   H1B14076   0.745   2.145  15.652  0.9718 -0.4881 -2.2552
  106CHL1    C214077   0.673   2.016  15.804  0.1755  1.1190 -0.4960
  106CHL1   H2A14078   0.776   2.003  15.845  0.6631 -0.2172 -2.0499
  106CHL1   H2B14079   0.641   1.910  15.809 -0.6435  1.2984 -1.5077
  106CHL1   C2014080   0.551   2.294  14.905 -0.1386 -0.9598  0.9562
  106CHL1   H2014081   0.458   2.243  14.873  0.0474 -0.1529 -0.9863
  106CHL1   C2114082   0.662   2.200  14.887 -0.2847  0.1138 -0.5219
  106CHL1  H21A14083   0.638   2.101  14.931 -0.9287 -0.4597 -2.0868
  106CHL1  H21B14084   0.765   2.229  14.916  1.2772 -3.7763 -1.5115
  106CHL1  H21C14085   0.676   2.168  14.782 -3.5805 -0.7345 -0.8022
  106CHL1   C2214086   0.571   2.422  14.807  0.4280 -0.1262 -0.6171
  106CHL1  H22A14087   0.478   2.482  14.818  0.4164 -0.0369 -1.2050
  106CHL1  H22B14088   0.647   2.492  14.847  0.3308  0.9009 -2.1663
  106CHL1   C2314089   0.601   2.385  14.663  0.3262  0.2859  1.5567
  106CHL1  H23A14090   0.704   2.343  14.664  0.6514  0.9746  0.0709
  106CHL1  H23B14091   0.533   2.306  14.625  1.1746 -0.4402  1.4986
  106CHL1   C2414092   0.596   2.511  14.573 -0.4040  0.0769 -0.2597
  106CHL1  H24A14093   0.642   2.599  14.623 -0.0309 -0.6462  0.7057
  106CHL1  H24B14094   0.664   2.486  14.489  0.8147 -0.6356  0.8860
  106CHL1   C2514095   0.454   2.553  14.536 -0.3467 -0.1336 -0.4045
  106CHL1   H2514096   0.398   2.598  14.621  0.6450  3.5950 -1.5398
  106CHL1   C2614097   0.451   2.667  14.439  0.1950  0.1858  0.2901
  106CHL1  H26A14098   0.473   2.648  14.332  2.2614  2.5746  0.2039
  106CHL1  H26B14099   0.349   2.711  14.452  0.7358  1.0357  2.1163
  106CHL1  H26C14100   0.525   2.742  14.473  0.0690  1.5168 -2.1669
  106CHL1   C2714101   0.377   2.438  14.482  0.4667 -0.4112  0.3740
  106CHL1  H27A14102   0.342   2.377  14.569  1.3552  0.5655  1.4508
  106CHL1  H27B14103   0.292   2.484  14.428  1.5088  2.5861  1.0715
  106CHL1  H27C14104   0.431   2.377  14.407  1.1310  1.2268 -0.5334
  107CHL1    C314105   3.264   4.819  15.998 -0.1191  0.5110 -0.1591
  107CHL1    H314106   3.326   4.909  15.978 -0.7256  0.6989 -1.2576
  107CHL1    O314107   3.232   4.802  16.136 -0.4689 -0.0684 -0.0640
  107CHL1   H3'14108   3.176   4.723  16.132  1.3361 -1.3688 -2.1815
  107CHL1    C414109   3.130   4.825  15.921 -0.3236  0.3868  0.2075
  107CHL1   H4A14110   3.067   4.736  15.942  0.8716 -0.1647  1.6709
  107CHL1   H4B14111   3.076   4.915  15.956 -2.3140 -0.6131 -0.0968
  107CHL1    C514112   3.162   4.830  15.768  0.9611 -0.2493 -0.2560
  107CHL1    C614113   3.112   4.932  15.688  0.1018  0.2629  0.2784
  107CHL1    H614114   3.057   5.012  15.740  2.4313  0.6112  2.4323
  107CHL1    C714115   3.128   4.932  15.537  0.3825  0.0925 -0.1224
  107CHL1   H7A14116   3.035   4.963  15.485 -0.1880  0.0680  0.8561
  107CHL1   H7B14117   3.204   5.010  15.513 -0.5457  1.0836  0.1154
  107CHL1    C814118   3.195   4.806  15.473 -0.5998  0.2468 -0.2784
  107CHL1    H814119   3.117   4.727  15.463  0.8617 -1.3497  0.4160
  107CHL1   C1414120   3.252   4.824  15.337  0.4098 -0.0288  0.8782
  107CHL1   H1414121   3.335   4.897  15.349 -0.2056  0.7610  0.4210
  107CHL1   C1514122   3.157   4.885  15.235 -0.7169  0.0693 -0.5968
  107CHL1  H15A14123   3.062   4.830  15.249  0.0811 -1.2612 -0.1509
  107CHL1  H15B14124   3.152   4.996  15.237  1.6781  0.2245 -0.2606
  107CHL1   C1614125   3.223   4.835  15.102  0.3242  0.4929  0.1467
  107CHL1  H16A14126   3.153   4.777  15.038  1.5744 -1.0805  0.1622
  107CHL1  H16B14127   3.242   4.923  15.036 -1.5995  0.6225 -0.2942
  107CHL1   C1714128   3.355   4.755  15.130 -0.3639 -0.2100 -1.1778
  107CHL1   H1714129   3.444   4.819  15.143  0.1891 -1.0121 -0.9655
  107CHL1   C1314130   3.321   4.700  15.277  0.1324  0.0537  1.0090
  107CHL1   C1814131   3.223   4.579  15.267 -0.5912  0.4157  0.1108
  107CHL1  H18A14132   3.149   4.591  15.185  0.0284 -0.6379 -0.6351
  107CHL1  H18B14133   3.281   4.487  15.244 -0.0720  0.7358  0.1219
  107CHL1  H18C14134   3.176   4.553  15.364  0.5828  2.5747  1.3412
  107CHL1   C1214135   3.440   4.674  15.371 -0.1190 -0.2740 -0.4508
  107CHL1  H12A14136   3.512   4.599  15.334  1.5788  0.2667  1.5281
  107CHL1  H12B14137   3.490   4.773  15.384  0.3385 -0.1788 -2.5884
  107CHL1   C1114138   3.396   4.640  15.512  0.0031 -0.7492 -0.2271
  107CHL1  H11A14139   3.364   4.534  15.507  2.0537 -1.3818 -2.9705
  107CHL1  H11B14140   3.484   4.651  15.579  0.1736  2.3516 -0.7676
  107CHL1    C914141   3.304   4.750  15.569  0.0806 -0.9233  0.1143
  107CHL1    H914142   3.373   4.837  15.582  0.9379 -1.7067  0.9814
  107CHL1   C1014143   3.253   4.715  15.716  0.4127  0.1268  0.3664
  107CHL1   C1914144   3.155   4.595  15.709  0.0626  0.3690  0.1077
  107CHL1  H19A14145   3.104   4.569  15.804  0.4485 -0.8683 -0.0057
  107CHL1  H19B14146   3.079   4.611  15.631  1.4113 -1.2230 -1.6481
  107CHL1  H19C14147   3.208   4.503  15.675 -0.2327 -1.1505  3.3994
  107CHL1    C114148   3.378   4.689  15.810  0.3498  0.5135  0.0466
  107CHL1   H1A14149   3.429   4.599  15.767 -2.8027 -0.4744 -1.9904
  107CHL1   H1B14150   3.453   4.770  15.803  1.6672 -0.7295 -1.1150
  107CHL1    C214151   3.346   4.692  15.958  0.5234  0.1944 -0.2424
  107CHL1   H2A14152   3.435   4.693  16.024  0.5034  1.3284 -0.2141
  107CHL1   H2B14153   3.286   4.599  15.972 -1.2264  1.3875  0.5754
  107CHL1   C2014154   3.369   4.653  15.018 -0.0351 -0.2825 -0.4232
  107CHL1   H2014155   3.290   4.575  15.019  0.9257 -1.3894 -2.7342
  107CHL1   C2114156   3.507   4.593  15.024 -0.1079 -0.6889 -0.2907
  107CHL1  H21A14157   3.527   4.526  14.938 -0.7628 -1.4376  0.1305
  107CHL1  H21B14158   3.508   4.532  15.117 -0.2102  1.4387  1.1814
  107CHL1  H21C14159   3.583   4.673  15.037  1.0009 -1.6489 -0.7732
  107CHL1   C2214160   3.349   4.705  14.871  0.1802  0.1890 -0.2141
  107CHL1  H22A14161   3.255   4.765  14.861  0.5775  0.5881 -1.8735
  107CHL1  H22B14162   3.429   4.780  14.851  0.5240  0.2230  1.1557
  107CHL1   C2314163   3.334   4.597  14.761  0.0790 -0.2503  0.3438
  107CHL1  H23A14164   3.427   4.537  14.755  1.2564  1.5949 -1.0521
  107CHL1  H23B14165   3.249   4.531  14.789 -0.7084 -0.8053 -2.9165
  107CHL1   C2414166   3.308   4.659  14.621 -0.2780 -0.1356 -0.3744
  107CHL1  H24A14167   3.218   4.723  14.622 -1.2767 -1.4893  0.5036
  107CHL1  H24B14168   3.389   4.733  14.610  0.2850 -0.5314  0.9472
  107CHL1   C2514169   3.305   4.580  14.491 -0.0884 -0.0978 -0.1891
  107CHL1   H2514170   3.232   4.499  14.513  1.1224 -1.3802 -0.7878
  107CHL1   C2614171   3.245   4.663  14.374 -0.2424  0.3893  0.5824
  107CHL1  H26A14172   3.156   4.720  14.410 -0.5024 -0.0475  0.6485
  107CHL1  H26B14173   3.323   4.733  14.340 -0.8039  1.4102  1.3338
  107CHL1  H26C14174   3.216   4.593  14.293  1.7902  1.0749 -0.8096
  107CHL1   C2714175   3.439   4.522  14.450 -0.3992 -0.1717 -0.4297
  107CHL1  H27A14176   3.418   4.439  14.380 -0.6714 -0.7764  0.3521
  107CHL1  H27B14177   3.505   4.598  14.403 -0.4575  1.0384  1.3441
  107CHL1  H27C14178   3.483   4.473  14.539 -1.3841 -0.9977 -0.3840
  108CHL1    C314179   5.546   1.436  16.672 -0.0639  0.0199  0.3914
  108CHL1    H314180   5.436   1.453  16.680  0.0381  1.3125 -0.6581
  108CHL1    O314181   5.589   1.448  16.808 -0.8668 -0.3258  0.3647
  108CHL1   H3'14182   5.681   1.422  16.803 -0.9627 -0.4398 -1.4750
  108CHL1    C414183   5.574   1.293  16.626 -0.3493  0.0619  0.0174
  108CHL1   H4A14184   5.682   1.271  16.642 -0.5489 -1.2167 -0.3087
  108CHL1   H4B14185   5.515   1.219  16.683 -0.4649 -1.0488 -1.4845
  108CHL1    C514186   5.554   1.271  16.476  0.2332 -1.1192  0.0374
  108CHL1    C614187   5.471   1.178  16.420  0.2182  0.3097 -0.0795
  108CHL1    H614188   5.435   1.100  16.489  1.3330  0.0147  0.1883
  108CHL1    C714189   5.445   1.144  16.278 -0.6602  0.1331  0.2068
  108CHL1   H7A14190   5.470   1.037  16.266 -1.9010 -0.3368  1.5569
  108CHL1   H7B14191   5.341   1.177  16.256 -0.7410  1.0834  1.8556
  108CHL1    C814192   5.535   1.234  16.180  0.2342  0.3977  0.1087
  108CHL1    H814193   5.626   1.176  16.155 -0.5421 -1.2804  0.9797
  108CHL1   C1414194   5.463   1.250  16.045  0.2991 -0.3061 -0.0064
  108CHL1   H1414195   5.362   1.295  16.059  0.8207  0.1566  3.0216
  108CHL1   C1514196   5.427   1.117  15.983 -0.2594  0.1212 -0.0319
  108CHL1  H15A14197   5.512   1.045  15.989  0.6932  1.3681  2.6480
  108CHL1  H15B14198   5.340   1.068  16.031  0.7063 -1.0573  0.5785
  108CHL1   C1614199   5.411   1.145  15.832 -0.1399  0.4298 -0.1468
  108CHL1  H16A14200   5.475   1.067  15.785 -1.3293  1.6604 -4.1944
  108CHL1  H16B14201   5.304   1.131  15.807  0.0614  1.1963 -1.5391
  108CHL1   C1714202   5.461   1.291  15.810  0.3300  0.7554 -0.4748
  108CHL1   H1714203   5.369   1.353  15.819 -0.2983 -0.0085 -1.3493
  108CHL1   C1314204   5.544   1.323  15.938  0.2123  0.6035 -0.0734
  108CHL1   C1814205   5.690   1.261  15.927 -0.1620 -0.2397  0.2751
  108CHL1  H18A14206   5.745   1.318  15.849  1.3077 -1.5230  0.3315
  108CHL1  H18B14207   5.742   1.272  16.024 -0.0486  1.7900  0.0176
  108CHL1  H18C14208   5.690   1.152  15.904  0.9993  0.0817 -1.4879
  108CHL1   C1214209   5.545   1.471  15.991  0.4206 -0.1647  0.8099
  108CHL1  H12A14210   5.604   1.535  15.922  2.6856  0.2393  2.9759
  108CHL1  H12B14211   5.441   1.510  16.001  0.4947  0.6862 -1.1644
  108CHL1   C1114212   5.609   1.482  16.133 -0.3311  0.3649  0.4919
  108CHL1  H11A14213   5.717   1.457  16.131 -0.6742 -1.7262  2.8844
  108CHL1  H11B14214   5.595   1.585  16.171  0.3864  1.0984 -1.1323
  108CHL1    C914215   5.553   1.371  16.235 -0.4527 -0.6969 -0.1136
  108CHL1    H914216   5.450   1.412  16.243  0.4441  2.1099 -1.7266
  108CHL1   C1014217   5.616   1.377  16.378  0.1828 -0.0524 -0.3536
  108CHL1   C1914218   5.764   1.339  16.373  0.0164  0.6840 -0.8750
  108CHL1  H19A14219   5.800   1.252  16.314  1.0752  1.0722 -0.8185
  108CHL1  H19B14220   5.801   1.425  16.313 -1.3028  0.7096 -1.6758
  108CHL1  H19C14221   5.809   1.337  16.475  1.0866 -1.7360 -1.3207
  108CHL1    C114222   5.586   1.519  16.432 -0.2821  0.2345 -0.5215
  108CHL1   H1A14223   5.658   1.586  16.380  1.7907 -2.3132 -1.1375
  108CHL1   H1B14224   5.478   1.539  16.414 -0.6178  1.3350  2.1948
  108CHL1    C214225   5.617   1.542  16.587  0.4746  1.0266  0.0379
  108CHL1   H2A14226   5.584   1.646  16.612 -0.5592  0.9536 -0.9326
  108CHL1   H2B14227   5.727   1.529  16.584  0.3700  0.0367  0.2785
  108CHL1   C2014228   5.505   1.308  15.666 -0.1078 -0.9050 -0.1226
  108CHL1   H2014229   5.602   1.254  15.657  0.2232 -0.6341  1.3952
  108CHL1   C2114230   5.535   1.458  15.654  0.4156  0.1348  0.3522
  108CHL1  H21A14231   5.439   1.509  15.681  1.3428  1.8100  0.6161
  108CHL1  H21B14232   5.553   1.484  15.548 -1.0388 -1.8623 -0.4392
  108CHL1  H21C14233   5.621   1.488  15.718 -0.8342  0.0366  2.1506
  108CHL1   C2214234   5.404   1.262  15.559  0.3681 -0.4964  0.3562
  108CHL1  H22A14235   5.398   1.153  15.581 -0.7863 -0.1287  2.0478
  108CHL1  H22B14236   5.308   1.316  15.575 -0.6803 -1.3141 -2.4856
  108CHL1   C2314237   5.439   1.282  15.406  0.6012  0.1836 -0.0792
  108CHL1  H23A14238   5.348   1.242  15.356  1.6855  0.4661 -2.4007
  108CHL1  H23B14239   5.444   1.391  15.385 -0.5982  1.1059  3.6144
  108CHL1   C2414240   5.565   1.209  15.358  0.0259  0.1165  0.0560
  108CHL1  H24A14241   5.643   1.286  15.370  1.1595 -0.8238 -1.0012
  108CHL1  H24B14242   5.591   1.113  15.408 -0.2667  0.1986  0.3716
  108CHL1   C2514243   5.577   1.200  15.203 -0.2042 -0.6890  0.0971
  108CHL1   H2514244   5.682   1.170  15.185  0.3791  1.4603 -0.3427
  108CHL1   C2614245   5.500   1.072  15.156 -0.1407  0.3931 -0.4439
  108CHL1  H26A14246   5.398   1.079  15.200 -0.1193  0.9832 -0.4785
  108CHL1  H26B14247   5.488   1.067  15.045  0.3502 -1.5019 -0.4465
  108CHL1  H26C14248   5.554   0.986  15.201 -1.0509  0.2234  0.3527
  108CHL1   C2714249   5.541   1.326  15.126  0.3475 -0.3478  0.4057
  108CHL1  H27A14250   5.612   1.410  15.141 -1.3737  1.5443 -1.4803
  108CHL1  H27B14251   5.525   1.309  15.018 -1.4598  0.4289  0.5192
  108CHL1  H27C14252   5.445   1.371  15.161  0.2954 -0.4180  0.3517
  109CHL1    C314253   2.088   4.860  16.229 -0.1571  0.5789  0.5490
  109CHL1    H314254   2.061   4.965  16.256 -2.8094 -0.5434  2.7281
  109CHL1    O314255   2.075   4.781  16.347 -0.2815  0.1679  0.0565
  109CHL1   H3'14256   1.986   4.745  16.355 -0.0284 -0.0963  2.3299
  109CHL1    C414257   1.979   4.822  16.123  0.9079  0.0656 -0.6692
  109CHL1   H4A14258   1.961   4.713  16.118 -1.3012  0.3071  0.7575
  109CHL1   H4B14259   1.878   4.853  16.158  1.5461  0.4618  0.8746
  109CHL1    C514260   2.009   4.886  15.988 -0.0456 -0.5194 -0.0778
  109CHL1    C614261   1.915   4.964  15.925 -0.1109  0.3057 -0.2327
  109CHL1    H614262   1.818   4.984  15.973 -0.0936  3.4994 -1.2749
  109CHL1    C714263   1.930   5.018  15.787  0.4372  0.1934  0.2999
  109CHL1   H7A14264   1.835   4.988  15.738 -0.8128  3.2554  0.6475
  109CHL1   H7B14265   1.954   5.126  15.779 -1.1786  0.7541  2.0635
  109CHL1    C814266   2.050   4.952  15.708 -0.1015  0.0750  0.3681
  109CHL1    H814267   2.015   4.852  15.673 -0.3620  0.0792  0.6088
  109CHL1   C1414268   2.080   5.019  15.577  0.4226 -0.1186  0.8053
  109CHL1   H1414269   2.098   5.126  15.601 -0.0105 -0.2252  1.6110
  109CHL1   C1514270   1.969   5.029  15.467  0.5523  0.3565 -0.8650
  109CHL1  H15A14271   1.907   4.937  15.459  0.9296 -0.2329  1.8753
  109CHL1  H15B14272   1.890   5.100  15.498 -0.9527 -0.5871 -2.3411
  109CHL1   C1614273   2.042   5.064  15.335  0.8195 -0.1260  0.5320
  109CHL1  H16A14274   2.014   4.977  15.272 -0.1347 -1.5386  2.7821
  109CHL1  H16B14275   2.018   5.160  15.284  0.2580 -1.2097 -1.3219
  109CHL1   C1714276   2.194   5.054  15.367  0.8267 -0.0312  0.3681
  109CHL1   H1714277   2.221   5.155  15.402 -3.5393  1.2751  0.5632
  109CHL1   C1314278   2.204   4.969  15.503 -0.5767 -0.0571  0.3409
  109CHL1   C1814279   2.189   4.822  15.467 -0.6814 -0.4052 -0.1264
  109CHL1  H18A14280   2.112   4.817  15.386 -0.2059  1.8822 -0.7996
  109CHL1  H18B14281   2.288   4.786  15.432 -0.4917  0.8294 -0.9261
  109CHL1  H18C14282   2.166   4.756  15.553  1.0534  1.2149  1.6472
  109CHL1   C1214283   2.324   5.003  15.592  0.1922  0.7246 -0.2195
  109CHL1  H12A14284   2.425   4.984  15.551  0.5539 -0.9405  1.3320
  109CHL1  H12B14285   2.320   5.113  15.610 -0.0191  0.4349  1.7147
  109CHL1   C1114286   2.313   4.918  15.723 -0.1618  0.2659  0.1467
  109CHL1  H11A14287   2.321   4.812  15.688  1.1058  0.7336 -1.0654
  109CHL1  H11B14288   2.397   4.944  15.791  0.7969 -0.2402 -0.8118
  109CHL1    C914289   2.175   4.946  15.797 -0.4948 -0.0297  0.2345
  109CHL1    H914290   2.192   5.051  15.828  0.6764 -0.6023  1.6523
  109CHL1   C1014291   2.150   4.865  15.931  0.2817  1.0291  0.6822
  109CHL1   C1914292   2.177   4.718  15.897 -0.6063 -0.9427  0.1560
  109CHL1  H19A14293   2.285   4.696  15.880 -0.2332  0.0197  1.1973
  109CHL1  H19B14294   2.142   4.648  15.976 -0.1814  0.7240  1.8862
  109CHL1  H19C14295   2.130   4.695  15.799  0.2793  2.2280 -1.1292
  109CHL1    C114296   2.249   4.917  16.033 -0.3892  0.1705 -0.5918
  109CHL1   H1A14297   2.353   4.893  16.003  0.5382  1.4872  1.3541
  109CHL1   H1B14298   2.239   5.027  16.046  1.9751  0.3052  0.6638
  109CHL1    C214299   2.233   4.847  16.173 -0.9274 -0.2119  0.5854
  109CHL1   H2A14300   2.308   4.899  16.237  0.2313  1.4554 -1.9682
  109CHL1   H2B14301   2.263   4.741  16.164 -2.1705 -0.8284  2.8494
  109CHL1   C2014302   2.284   5.011  15.244 -0.0338  0.1950  0.1839
  109CHL1   H2014303   2.262   4.909  15.206 -0.2735 -0.1656  1.2562
  109CHL1   C2114304   2.434   5.037  15.279  0.1843 -0.6255 -0.2317
  109CHL1  H21A14305   2.437   5.133  15.335 -2.2968 -0.4460 -0.2998
  109CHL1  H21B14306   2.496   5.034  15.188 -0.0686 -0.3518 -0.4158
  109CHL1  H21C14307   2.475   4.956  15.344 -0.5594 -0.3693  0.5868
  109CHL1   C2214308   2.262   5.103  15.118 -0.3346 -0.2082 -0.4602
  109CHL1  H22A14309   2.153   5.115  15.098 -0.8180 -1.0445  1.4503
  109CHL1  H22B14310   2.299   5.206  15.136 -0.4268 -0.4028  1.0339
  109CHL1   C2314311   2.321   5.040  14.993 -0.1288 -0.5764  0.3988
  109CHL1  H23A14312   2.427   5.073  14.987 -1.0516  2.7628  0.4413
  109CHL1  H23B14313   2.319   4.929  14.999 -1.0607 -0.5280  1.1159
  109CHL1   C2414314   2.246   5.085  14.864  0.0377 -0.0892  0.3431
  109CHL1  H24A14315   2.143   5.044  14.856  0.6777 -1.3692 -2.4760
  109CHL1  H24B14316   2.266   5.194  14.858  2.6518 -0.5970 -2.7353
  109CHL1   C2514317   2.313   5.019  14.736 -0.1046  0.3217 -0.2633
  109CHL1   H2514318   2.333   4.914  14.765  1.7930 -0.1832 -3.0173
  109CHL1   C2614319   2.215   5.027  14.611  0.3098 -0.0854 -0.1232
  109CHL1  H26A14320   2.268   4.983  14.523 -1.2308 -1.4676 -0.4204
  109CHL1  H26B14321   2.137   4.951  14.636  1.2664 -1.0304  0.0874
  109CHL1  H26C14322   2.183   5.133  14.603  0.7095  0.1835  1.6182
  109CHL1   C2714323   2.448   5.088  14.704 -0.6109  0.4420  0.0935
  109CHL1  H27A14324   2.531   5.049  14.766 -0.6827  0.2963  0.0984
  109CHL1  H27B14325   2.472   5.082  14.595 -2.0464  1.5662 -0.3229
  109CHL1  H27C14326   2.432   5.196  14.726  0.3999  0.6755 -0.2592
  110CHL1    C314327   1.187   3.684  15.655  0.3482  0.0407 -0.1787
  110CHL1    H314328   1.095   3.686  15.593  0.2372 -2.7756 -0.2387
  110CHL1    O314329   1.148   3.645  15.787 -0.6073  0.0377  0.4048
  110CHL1   H3'14330   1.224   3.664  15.842  0.7334  0.8695 -1.6425
  110CHL1    C414331   1.290   3.575  15.605  0.3138 -0.4115  0.1246
  110CHL1   H4A14332   1.370   3.558  15.680  1.1508  0.2498 -0.5934
  110CHL1   H4B14333   1.238   3.478  15.604  1.6749 -1.1693 -0.1217
  110CHL1    C514334   1.352   3.606  15.470 -0.1679 -0.5912 -0.8681
  110CHL1    C614335   1.350   3.524  15.363 -0.2250 -0.0846 -0.2584
  110CHL1    H614336   1.302   3.425  15.370  0.2738 -0.3456 -0.4480
  110CHL1    C714337   1.415   3.554  15.229  0.2312 -0.6095  0.9528
  110CHL1   H7A14338   1.478   3.472  15.189  0.9672  0.5214 -0.2719
  110CHL1   H7B14339   1.347   3.579  15.145  0.3994  1.7577  1.4713
  110CHL1    C814340   1.519   3.660  15.234 -0.0587  0.0688 -0.6578
  110CHL1    H814341   1.607   3.618  15.288  0.1330  1.7014  0.3997
  110CHL1   C1414342   1.548   3.714  15.097 -0.1810 -0.2428  0.0455
  110CHL1   H1414343   1.453   3.756  15.057  0.4162  0.0051 -1.1600
  110CHL1   C1514344   1.583   3.617  14.985 -0.0078  0.5497  0.0968
  110CHL1  H15A14345   1.668   3.550  15.012 -1.2873 -2.2210 -2.3110
  110CHL1  H15B14346   1.506   3.544  14.955 -0.1724 -0.1450  2.0608
  110CHL1   C1614347   1.622   3.719  14.875  0.3925  0.5727  0.0475
  110CHL1  H16A14348   1.708   3.679  14.818  1.3899  0.4212  1.6174
  110CHL1  H16B14349   1.531   3.736  14.813 -1.0452 -3.5515  0.7617
  110CHL1   C1714350   1.651   3.854  14.932 -0.2831 -0.2617 -0.1273
  110CHL1   H1714351   1.565   3.922  14.914  1.5850  3.3120  2.9293
  110CHL1   C1314352   1.650   3.831  15.085  0.5624 -0.0356 -0.1826
  110CHL1   C1814353   1.787   3.780  15.134  0.1310  0.3631 -0.4838
  110CHL1  H18A14354   1.868   3.857  15.138  0.2137  0.2322  2.1728
  110CHL1  H18B14355   1.790   3.732  15.234  0.7458  3.1653  0.9700
  110CHL1  H18C14356   1.822   3.709  15.057  0.9266 -2.6772  2.4419
  110CHL1   C1214357   1.588   3.948  15.172  0.4923  0.5428 -0.6773
  110CHL1  H12A14358   1.664   4.028  15.184  0.7783  0.2693 -0.6461
  110CHL1  H12B14359   1.502   3.990  15.117  1.1958 -0.5916 -2.7578
  110CHL1   C1114360   1.561   3.909  15.317  0.1275 -0.2108 -0.7204
  110CHL1  H11A14361   1.661   3.882  15.357  0.8850  1.5350 -1.3734
  110CHL1  H11B14362   1.521   3.989  15.383  1.0027 -0.5270  0.2122
  110CHL1    C914363   1.468   3.779  15.330 -0.2774 -0.1441 -0.3899
  110CHL1    H914364   1.371   3.800  15.280  0.7128  0.9827 -1.9092
  110CHL1   C1014365   1.422   3.742  15.468 -0.4243  0.8037  0.3799
  110CHL1   C1914366   1.550   3.730  15.551 -0.2904 -0.0103 -0.3115
  110CHL1  H19A14367   1.522   3.709  15.657 -1.1399  0.8316 -0.3505
  110CHL1  H19B14368   1.615   3.649  15.512  1.2675  2.1670 -2.5078
  110CHL1  H19C14369   1.612   3.823  15.554 -0.4034  0.1439 -1.8759
  110CHL1    C114370   1.329   3.855  15.528  0.4418 -0.1754 -0.0334
  110CHL1   H1A14371   1.392   3.941  15.558 -1.1861  1.2851 -0.6288
  110CHL1   H1B14372   1.262   3.889  15.446  0.8704 -0.0690 -0.3405
  110CHL1    C214373   1.252   3.823  15.660 -0.3632  0.0547 -0.0947
  110CHL1   H2A14374   1.181   3.902  15.693 -0.5112 -0.6877  1.4279
  110CHL1   H2B14375   1.339   3.822  15.729  0.1595  2.5521 -0.5911
  110CHL1   C2014376   1.770   3.938  14.878 -0.2474 -0.0634 -0.0445
  110CHL1   H2014377   1.867   3.887  14.895  0.6181  1.0500 -1.3711
  110CHL1   C2114378   1.757   4.087  14.939  0.1167 -0.1641  0.2226
  110CHL1  H21A14379   1.657   4.132  14.957  0.3918 -0.2765  2.3091
  110CHL1  H21B14380   1.822   4.157  14.883 -0.3502 -1.4588 -2.0695
  110CHL1  H21C14381   1.804   4.090  15.039 -0.7061 -1.6238  0.6863
  110CHL1   C2214382   1.757   3.956  14.728  0.5039  0.1679 -0.7149
  110CHL1  H22A14383   1.851   4.009  14.704  0.9238 -0.9890 -1.7233
  110CHL1  H22B14384   1.755   3.854  14.683  0.8239 -1.1389  2.0324
  110CHL1   C2314385   1.634   4.038  14.672 -0.2313 -0.6485 -0.7978
  110CHL1  H23A14386   1.538   3.999  14.713 -0.7740  2.5858  1.3724
  110CHL1  H23B14387   1.640   4.138  14.720  0.0408 -1.7761  1.6681
  110CHL1   C2414388   1.654   4.058  14.520 -0.6611  1.1013 -0.4994
  110CHL1  H24A14389   1.735   4.131  14.500 -0.2695  1.0320  0.7305
  110CHL1  H24B14390   1.688   3.956  14.492 -0.7711  1.1490 -0.8041
  110CHL1   C2514391   1.523   4.086  14.444  0.1210  0.1421 -0.0760
  110CHL1   H2514392   1.449   4.032  14.507  0.8362 -0.1433  0.5318
  110CHL1   C2614393   1.498   4.239  14.438 -0.6029 -0.3029  0.1897
  110CHL1  H26A14394   1.585   4.285  14.386  0.0517 -0.1939  1.3361
  110CHL1  H26B14395   1.406   4.246  14.376  0.3850  3.6308 -1.1197
  110CHL1  H26C14396   1.482   4.292  14.535 -1.3740 -2.0458  1.0695
  110CHL1   C2714397   1.528   4.017  14.314  0.6267 -0.7213 -0.5130
  110CHL1  H27A14398   1.437   4.040  14.255  1.4338  0.0875 -1.4849
  110CHL1  H27B14399   1.621   4.047  14.261 -0.2817 -0.8324 -2.2710
  110CHL1  H27C14400   1.528   3.908  14.336 -0.9998 -1.4427 -3.4402
  111CHL1    C314401   1.581   5.971  16.394  0.3465 -0.1465  0.3959
  111CHL1    H314402   1.636   5.880  16.363 -0.4770  0.3793 -3.0219
  111CHL1    O314403   1.565   5.968  16.534 -0.2216  0.2015 -0.1805
  111CHL1   H3'14404   1.491   5.908  16.544  0.3777 -0.7149 -0.9368
  111CHL1    C414405   1.660   6.093  16.369  0.2778 -0.2097 -0.2455
  111CHL1   H4A14406   1.590   6.172  16.402 -2.2383 -1.6141 -1.9284
  111CHL1   H4B14407   1.752   6.099  16.432  0.2714  0.2246 -0.2785
  111CHL1    C514408   1.685   6.125  16.223  0.1169  0.0981 -0.3636
  111CHL1    C614409   1.806   6.135  16.169  0.4519 -0.0762 -0.0712
  111CHL1    H614410   1.895   6.133  16.233  0.2806  1.0857  0.2275
  111CHL1    C714411   1.836   6.157  16.022  0.6986  0.6652  0.0235
  111CHL1   H7A14412   1.911   6.238  16.013  1.5907  0.0684  1.6123
  111CHL1   H7B14413   1.882   6.063  15.984  0.9032  0.3163  1.0718
  111CHL1    C814414   1.704   6.194  15.942 -0.2548 -0.2709  0.3713
  111CHL1    H814415   1.681   6.299  15.969 -1.2908  0.0798 -1.6289
  111CHL1   C1414416   1.734   6.173  15.795  0.2912  0.0760  0.0425
  111CHL1   H1414417   1.743   6.063  15.778 -2.2620  0.0041 -1.4770
  111CHL1   C1514418   1.874   6.233  15.746  0.3861 -0.3508 -0.0043
  111CHL1  H15A14419   1.901   6.332  15.788  0.3719 -1.1866  2.1255
  111CHL1  H15B14420   1.961   6.168  15.768  0.6916 -0.1352 -0.5567
  111CHL1   C1614421   1.848   6.247  15.596 -0.1331 -0.3395 -0.6748
  111CHL1  H16A14422   1.840   6.357  15.580 -1.0627 -0.1334  1.0023
  111CHL1  H16B14423   1.929   6.207  15.531  1.5760  1.5510  0.1693
  111CHL1   C1714424   1.701   6.204  15.567  0.3933  0.0188 -0.4623
  111CHL1   H1714425   1.708   6.095  15.550 -2.5204 -0.1354 -1.2574
  111CHL1   C1314426   1.621   6.221  15.702  0.5415 -0.2433 -0.3964
  111CHL1   C1814427   1.599   6.376  15.729 -0.1155 -0.4661 -0.4481
  111CHL1  H18A14428   1.579   6.387  15.838  1.0324 -1.3359 -0.1205
  111CHL1  H18B14429   1.699   6.421  15.713  0.3706 -1.6292 -0.8161
  111CHL1  H18C14430   1.522   6.425  15.666  1.0290  0.2986 -1.3008
  111CHL1   C1214431   1.501   6.127  15.727  0.0525 -0.6353  0.3284
  111CHL1  H12A14432   1.413   6.157  15.667  1.1563 -0.5804 -1.3080
  111CHL1  H12B14433   1.523   6.019  15.711 -1.5132 -1.0308  0.6034
  111CHL1   C1114434   1.465   6.137  15.880  0.0912  0.3314 -0.2960
  111CHL1  H11A14435   1.426   6.238  15.903  0.5209  0.4883 -0.2384
  111CHL1  H11B14436   1.389   6.063  15.912 -0.3256  1.2078  0.7986
  111CHL1    C914437   1.586   6.105  15.980  0.3406  0.0306 -0.1701
  111CHL1    H914438   1.620   6.004  15.948  2.2400  1.1003 -1.7403
  111CHL1   C1014439   1.557   6.120  16.135  0.2370  0.3874  0.3835
  111CHL1   C1914440   1.487   6.255  16.169  0.1413 -0.2193  0.7702
  111CHL1  H19A14441   1.544   6.349  16.150 -0.2430  0.0363  0.8597
  111CHL1  H19B14442   1.390   6.265  16.116 -0.3118  1.2413  1.7860
  111CHL1  H19C14443   1.468   6.257  16.279  3.3311  0.3180  1.4090
  111CHL1    C114444   1.468   6.000  16.173  0.0775  0.4681  0.2985
  111CHL1   H1A14445   1.369   6.001  16.123 -0.2542 -2.8005  0.6762
  111CHL1   H1B14446   1.522   5.913  16.130  0.3640  0.6907  0.1996
  111CHL1    C214447   1.445   5.968  16.318 -0.9141 -0.3476 -0.2751
  111CHL1   H2A14448   1.392   5.871  16.326 -3.7079  0.9581 -1.4136
  111CHL1   H2B14449   1.392   6.048  16.373  0.4833  0.6077 -0.2813
  111CHL1   C2014450   1.632   6.269  15.447  0.0168  0.1278 -0.6180
  111CHL1   H2014451   1.621   6.378  15.464  3.6834  0.5192  0.0537
  111CHL1   C2114452   1.495   6.217  15.414  0.4782  0.2654 -0.4850
  111CHL1  H21A14453   1.461   6.253  15.314 -4.3733 -0.3930  0.6906
  111CHL1  H21B14454   1.422   6.263  15.484 -0.1033 -0.0664 -0.8649
  111CHL1  H21C14455   1.491   6.106  15.414  0.4824  0.2471  0.9640
  111CHL1   C2214456   1.727   6.258  15.326 -0.0623 -0.3115  0.1704
  111CHL1  H22A14457   1.678   6.309  15.240 -1.6159 -2.6603 -0.4394
  111CHL1  H22B14458   1.823   6.309  15.350 -0.3402  0.4865 -0.3917
  111CHL1   C2314459   1.773   6.117  15.287  0.9790  0.6696 -0.6226
  111CHL1  H23A14460   1.811   6.063  15.377 -2.1625 -1.1457 -0.2724
  111CHL1  H23B14461   1.695   6.043  15.259  1.6634 -1.4061  2.4885
  111CHL1   C2414462   1.877   6.120  15.172  0.0978  0.5899  0.9472
  111CHL1  H24A14463   1.960   6.191  15.194  0.0855  0.6477  0.8062
  111CHL1  H24B14464   1.926   6.020  15.171  0.9862  1.0139  1.1159
  111CHL1   C2514465   1.828   6.161  15.028 -0.2989  0.1768  0.4692
  111CHL1   H2514466   1.782   6.259  15.055 -0.7000  0.8454 -2.3780
  111CHL1   C2614467   1.945   6.193  14.929 -0.1565 -0.6771 -0.2596
  111CHL1  H26A14468   2.021   6.261  14.974 -0.7659  0.5216 -0.9892
  111CHL1  H26B14469   1.985   6.103  14.877  1.2527  0.6049 -1.5057
  111CHL1  H26C14470   1.906   6.255  14.845 -2.2320  2.4000  2.6864
  111CHL1   C2714471   1.711   6.073  14.977  0.2171 -0.3105  0.4280
  111CHL1  H27A14472   1.747   5.968  14.971 -1.6762 -1.0771  1.7512
  111CHL1  H27B14473   1.621   6.059  15.040 -0.2685 -0.7107 -0.3409
  111CHL1  H27C14474   1.683   6.120  14.880 -1.0220 -0.6346  0.6141
  112CHL1    C314475   4.381   0.114  16.618 -0.4512  0.0968 -0.0468
  112CHL1    H314476   4.270   0.110  16.605 -0.9806 -0.3049  3.6094
  112CHL1    O314477   4.411   0.110  16.755 -0.3014  0.3658 -0.3301
  112CHL1   H3'14478   4.345   0.050  16.793 -1.0445  0.7473 -0.9901
  112CHL1    C414479   4.441  -0.002  16.537 -0.2154  0.7690  0.5492
  112CHL1   H4A14480   4.544  -0.023  16.572 -0.4671 -2.1663 -0.1816
  112CHL1   H4B14481   4.382  -0.089  16.572 -0.0170  0.8760  1.1612
  112CHL1    C514482   4.436   0.011  16.387  0.1686  0.6038 -0.6969
  112CHL1    C614483   4.371  -0.081  16.312  0.6633 -0.0570  0.7885
  112CHL1    H614484   4.309  -0.160  16.359 -0.7382  1.0481  0.8577
  112CHL1    C714485   4.352  -0.074  16.161 -0.4483 -0.0846  0.5656
  112CHL1   H7A14486   4.383  -0.172  16.117  1.1027 -0.3931  2.2249
  112CHL1   H7B14487   4.246  -0.067  16.131  0.1242 -2.5274 -2.5633
  112CHL1    C814488   4.450   0.027  16.095 -0.6873  0.1336 -0.0737
  112CHL1    H814489   4.554  -0.010  16.103 -0.9013 -0.2709  1.1371
  112CHL1   C1414490   4.397   0.053  15.959  0.3709 -0.2963  0.7968
  112CHL1   H1414491   4.298   0.102  15.974  0.0429 -0.5264 -0.4197
  112CHL1   C1514492   4.361  -0.063  15.859 -0.5701  0.4392 -0.3914
  112CHL1  H15A14493   4.445  -0.135  15.851 -1.0980 -0.2578  0.1715
  112CHL1  H15B14494   4.270  -0.117  15.895  0.4558 -1.1234 -0.0722
  112CHL1   C1614495   4.325   0.012  15.727 -0.2137  0.3135  0.4523
  112CHL1  H16A14496   4.374  -0.041  15.643 -2.3790  1.3634 -1.5751
  112CHL1  H16B14497   4.220   0.016  15.692 -0.3748 -0.7245  0.7725
  112CHL1   C1714498   4.381   0.159  15.744 -0.5105 -0.2429 -0.0306
  112CHL1   H1714499   4.293   0.225  15.762  1.8613  3.1364  0.1566
  112CHL1   C1314500   4.468   0.161  15.873  1.4921 -0.2094 -1.0102
  112CHL1   C1814501   4.609   0.112  15.836  0.1088 -0.4660  0.1412
  112CHL1  H18A14502   4.613   0.019  15.776 -1.5102 -1.4653  1.4807
  112CHL1  H18B14503   4.663   0.195  15.787  0.0594 -0.7098 -0.3375
  112CHL1  H18C14504   4.668   0.093  15.928  0.7292  1.3873  0.1681
  112CHL1   C1214505   4.479   0.290  15.953 -0.4464  0.7902  0.5836
  112CHL1  H12A14506   4.552   0.360  15.907 -0.8987  0.8272 -0.0892
  112CHL1  H12B14507   4.378   0.334  15.963  0.0676  1.7580  1.6801
  112CHL1   C1114508   4.528   0.268  16.104  0.2332 -0.5528  0.8672
  112CHL1  H11A14509   4.638   0.254  16.098  0.6218  1.9050  1.2410
  112CHL1  H11B14510   4.516   0.356  16.171  1.1326  0.3277 -0.0780
  112CHL1    C914511   4.450   0.157  16.176 -0.4519 -0.3492 -0.3427
  112CHL1    H914512   4.343   0.185  16.178 -0.1843  1.0518 -2.4238
  112CHL1   C1014513   4.487   0.138  16.328  0.3819  0.2052  0.1751
  112CHL1   C1914514   4.637   0.119  16.336  0.8763  0.2320  0.2698
  112CHL1  H19A14515   4.698   0.202  16.294 -0.4130  0.7227 -0.7134
  112CHL1  H19B14516   4.668   0.098  16.440 -1.1274  0.6627  1.0067
  112CHL1  H19C14517   4.664   0.029  16.278 -1.0966 -0.9079  1.0243
  112CHL1    C114518   4.434   0.260  16.416  0.7532  0.2019  0.9672
  112CHL1   H1A14519   4.484   0.352  16.378 -3.8044  2.0573 -1.2467
  112CHL1   H1B14520   4.326   0.265  16.391  0.6692 -0.8418  1.0680
  112CHL1    C214521   4.450   0.241  16.570  0.2483  0.1881 -0.1177
  112CHL1   H2A14522   4.412   0.336  16.612  0.4779 -0.4050  1.5307
  112CHL1   H2B14523   4.559   0.237  16.589  0.0282 -1.7303  1.1162
  112CHL1   C2014524   4.430   0.221  15.611 -0.6167 -0.0558 -0.3118
  112CHL1   H2014525   4.511   0.159  15.567 -2.1301 -1.6092 -1.0270
  112CHL1   C2114526   4.478   0.363  15.631  0.5841 -0.7061  0.2786
  112CHL1  H21A14527   4.499   0.416  15.536 -0.6962 -0.1512  0.2796
  112CHL1  H21B14528   4.567   0.367  15.697  1.5380 -3.3775 -0.7242
  112CHL1  H21C14529   4.397   0.422  15.679  1.2499  1.6262 -1.3246
  112CHL1   C2214530   4.307   0.220  15.509  0.1943 -0.2221 -0.2237
  112CHL1  H22A14531   4.255   0.122  15.513 -0.1919 -0.1197 -2.0039
  112CHL1  H22B14532   4.235   0.303  15.529  0.9880  0.8598 -1.6888
  112CHL1   C2314533   4.345   0.225  15.359 -0.2223  0.4578  0.0921
  112CHL1  H23A14534   4.397   0.322  15.339  1.3704 -0.5982 -1.1968
  112CHL1  H23B14535   4.409   0.137  15.338 -2.0269 -0.6320 -1.0429
  112CHL1   C2414536   4.224   0.208  15.253 -0.0643  0.1961  0.3463
  112CHL1  H24A14537   4.188   0.103  15.252 -0.0383  0.1191 -2.8593
  112CHL1  H24B14538   4.133   0.270  15.271  0.5744  1.2960 -0.0877
  112CHL1   C2514539   4.274   0.219  15.105  1.1213 -0.1798 -0.1445
  112CHL1   H2514540   4.381   0.189  15.099  1.3163  0.6557 -1.2015
  112CHL1   C2614541   4.192   0.140  14.998 -0.1455 -0.4607 -0.5702
  112CHL1  H26A14542   4.083   0.151  15.012  0.2437 -0.5647  3.9564
  112CHL1  H26B14543   4.224   0.173  14.896  1.7423  0.5351  0.2763
  112CHL1  H26C14544   4.211   0.031  15.007  0.8141 -0.4467 -2.0798
  112CHL1   C2714545   4.276   0.370  15.064 -0.1249 -0.3594 -0.2757
  112CHL1  H27A14546   4.326   0.379  14.965 -0.0975 -0.2042 -0.2485
  112CHL1  H27B14547   4.175   0.417  15.070  0.4808  0.8149  1.4391
  112CHL1  H27C14548   4.345   0.420  15.135 -0.6026 -0.7605  0.4759
  113CHL1    C314549   0.448   4.067  15.715  0.2164  0.0698  0.3212
  113CHL1    H314550   0.344   4.031  15.732  0.0567  1.2148  1.9314
  113CHL1    O314551   0.511   4.092  15.838 -0.2803 -0.4748  0.4008
  113CHL1   H3'14552   0.545   4.008  15.867 -1.2779 -1.4133 -1.0401
  113CHL1    C414553   0.526   3.955  15.639 -0.0152  0.2543  0.3871
  113CHL1   H4A14554   0.634   3.981  15.648  0.3320 -1.0239  0.0109
  113CHL1   H4B14555   0.522   3.861  15.697  0.9618 -0.9366 -1.4053
  113CHL1    C514556   0.480   3.923  15.499  0.2528  0.1988 -0.0127
  113CHL1    C614557   0.448   3.801  15.457  0.5128  0.6375 -0.3563
  113CHL1    H614558   0.458   3.716  15.526 -0.8137 -1.2544 -2.3728
  113CHL1    C714559   0.404   3.763  15.321  0.0305  0.0842 -0.2795
  113CHL1   H7A14560   0.449   3.669  15.284  1.0126 -0.4000  1.9726
  113CHL1   H7B14561   0.295   3.744  15.326  0.2252 -1.0284 -0.0244
  113CHL1    C814562   0.428   3.876  15.216 -0.3052 -0.1739  0.2811
  113CHL1    H814563   0.533   3.874  15.179 -0.3131  0.4645  0.2128
  113CHL1   C1414564   0.331   3.855  15.099  0.0548 -0.1608 -0.7065
  113CHL1   H1414565   0.229   3.871  15.141  1.7139  0.4390  3.7259
  113CHL1   C1514566   0.336   3.715  15.041  0.0510 -0.2517  0.0578
  113CHL1  H15A14567   0.438   3.673  15.047  0.7587  1.6212  2.0692
  113CHL1  H15B14568   0.276   3.641  15.098  1.6710 -1.5746  0.1284
  113CHL1   C1614569   0.274   3.732  14.900 -0.4087 -0.2563  0.7072
  113CHL1  H16A14570   0.337   3.685  14.822 -0.5701 -0.1211  0.4901
  113CHL1  H16B14571   0.177   3.677  14.901 -0.1595 -0.7491  2.6991
  113CHL1   C1714572   0.248   3.884  14.877 -0.0562  0.2419  0.4062
  113CHL1   H1714573   0.144   3.904  14.910  0.0305  0.6937  0.4145
  113CHL1   C1314574   0.344   3.946  14.983 -0.2376 -0.1532  0.4757
  113CHL1   C1814575   0.486   3.942  14.917 -0.0790  0.2479 -0.4498
  113CHL1  H18A14576   0.525   3.839  14.908 -2.8930 -0.7612 -2.5710
  113CHL1  H18B14577   0.487   3.992  14.818 -0.5417  1.4456  0.1181
  113CHL1  H18C14578   0.554   3.994  14.988  0.1448 -1.5857  0.7606
  113CHL1   C1214579   0.317   4.087  15.037 -0.4051  0.2765 -0.1543
  113CHL1  H12A14580   0.355   4.155  14.957 -2.1558 -0.5052 -1.7268
  113CHL1  H12B14581   0.207   4.088  15.049 -0.4787  2.1373 -0.6991
  113CHL1   C1114582   0.378   4.131  15.166  0.0535  0.8783 -0.0241
  113CHL1  H11A14583   0.484   4.157  15.145 -0.0432 -0.1001 -1.9043
  113CHL1  H11B14584   0.316   4.208  15.216 -2.3755 -0.2768 -1.1356
  113CHL1    C914585   0.393   4.016  15.274  0.3638  0.8500 -0.1376
  113CHL1    H914586   0.286   4.001  15.298  0.0947 -0.5923 -1.9916
  113CHL1   C1014587   0.471   4.043  15.406 -0.1067 -0.5056  0.7045
  113CHL1   C1914588   0.603   4.094  15.369 -1.0588 -0.4711  0.3456
  113CHL1  H19A14589   0.596   4.188  15.311 -0.8158 -0.3176  0.5621
  113CHL1  H19B14590   0.675   4.110  15.452 -0.8858 -0.6478  0.2308
  113CHL1  H19C14591   0.657   4.023  15.303 -0.1888  0.4371  0.0531
  113CHL1    C114592   0.393   4.162  15.477 -0.4740  0.5241  0.0454
  113CHL1   H1A14593   0.419   4.256  15.424  0.0479  2.0964  2.9334
  113CHL1   H1B14594   0.283   4.153  15.485 -0.4647  1.3335  1.1763
  113CHL1    C214595   0.437   4.189  15.622 -0.3562  0.6335 -0.2375
  113CHL1   H2A14596   0.374   4.267  15.669  2.3607  2.8314  0.0618
  113CHL1   H2B14597   0.530   4.250  15.611 -1.2957  2.0377 -0.6672
  113CHL1   C2014598   0.253   3.926  14.725 -0.0431 -0.1770 -0.2851
  113CHL1   H2014599   0.355   3.916  14.682  0.5580  0.5663  0.9416
  113CHL1   C2114600   0.200   4.071  14.719 -0.4520 -0.1605  0.6856
  113CHL1  H21A14601   0.201   4.100  14.611  1.6108  0.6373  0.8892
  113CHL1  H21B14602   0.263   4.139  14.780  0.8695 -0.6569 -0.0797
  113CHL1  H21C14603   0.098   4.085  14.762 -0.9347  2.0062 -0.9302
  113CHL1   C2214604   0.161   3.832  14.646 -0.0265 -0.6150 -0.0727
  113CHL1  H22A14605   0.190   3.728  14.673  0.5367 -0.0233  1.7576
  113CHL1  H22B14606   0.055   3.853  14.674  0.0158  0.4734 -0.6581
  113CHL1   C2314607   0.196   3.832  14.501 -0.1242 -0.4563  0.2342
  113CHL1  H23A14608   0.192   3.938  14.467  1.4852 -1.2414 -2.7942
  113CHL1  H23B14609   0.299   3.791  14.491 -0.1776 -0.9531  1.5767
  113CHL1   C2414610   0.110   3.764  14.393  0.2120  0.7294 -0.4761
  113CHL1  H24A14611   0.121   3.654  14.395  0.9427  0.7904  2.3609
  113CHL1  H24B14612   0.001   3.782  14.407 -0.5740 -3.0591 -0.5852
  113CHL1   C2514613   0.147   3.805  14.253 -0.3369 -0.0896 -0.1198
  113CHL1   H2514614   0.135   3.916  14.254 -2.8799 -0.2700  2.2590
  113CHL1   C2614615   0.289   3.773  14.202  0.1351  0.0355  0.2629
  113CHL1  H26A14616   0.286   3.784  14.091 -0.8166  1.7996  0.4303
  113CHL1  H26B14617   0.361   3.852  14.233  0.5926 -1.2792  2.8237
  113CHL1  H26C14618   0.324   3.673  14.236  0.8804 -0.0971 -0.8045
  113CHL1   C2714619   0.044   3.749  14.157 -0.2035 -0.9998  0.7171
  113CHL1  H27A14620   0.068   3.794  14.059  1.9677  1.0753  2.1127
  113CHL1  H27B14621   0.042   3.638  14.155 -0.8449 -1.0090 -2.3376
  113CHL1  H27C14622  -0.062   3.769  14.185 -0.2739 -1.3290  0.6928
  114CHL1    C314623   3.918   4.742  16.138 -0.0564  0.0241  0.6219
  114CHL1    H314624   3.970   4.840  16.130 -0.3496  0.1358  0.0356
  114CHL1    O314625   3.909   4.697  16.272 -0.3485  0.9063  0.5180
  114CHL1   H3'14626   3.857   4.760  16.322 -2.8472 -1.9201  1.7816
  114CHL1    C414627   3.783   4.756  16.076  0.2009 -0.1043  0.5768
  114CHL1   H4A14628   3.735   4.657  16.091  1.4317 -0.7532  0.3574
  114CHL1   H4B14629   3.718   4.832  16.125 -2.1603 -0.3655 -1.9118
  114CHL1    C514630   3.796   4.805  15.930 -0.2291 -0.5393 -0.3350
  114CHL1    C614631   3.738   4.919  15.884 -0.4427 -0.0044 -0.3531
  114CHL1    H614632   3.693   4.984  15.960 -1.1076 -1.3861  0.4688
  114CHL1    C714633   3.745   4.972  15.746 -0.6837  0.3963 -0.0310
  114CHL1   H7A14634   3.647   5.001  15.702 -1.7304 -2.5058  0.1440
  114CHL1   H7B14635   3.817   5.055  15.737 -1.4322  1.0481 -0.1332
  114CHL1    C814636   3.788   4.858  15.649 -0.3435  0.7550 -0.1259
  114CHL1    H814637   3.706   4.787  15.625  1.9909 -1.8130 -1.1961
  114CHL1   C1414638   3.822   4.913  15.514 -0.2054 -0.7819 -0.1140
  114CHL1   H1414639   3.904   4.985  15.537 -1.4010  0.9779 -1.1245
  114CHL1   C1514640   3.708   5.002  15.442  0.6132  0.1252 -0.2698
  114CHL1  H15A14641   3.612   4.948  15.428 -1.7346  2.9215  3.1845
  114CHL1  H15B14642   3.688   5.101  15.487 -0.9321  0.8670 -2.4632
  114CHL1   C1614643   3.773   5.028  15.299  0.8887  0.7294  0.0330
  114CHL1  H16A14644   3.688   5.020  15.228 -0.5613 -0.9461  1.8421
  114CHL1  H16B14645   3.819   5.129  15.296 -0.2176  1.2346 -2.2844
  114CHL1   C1714646   3.887   4.921  15.285  0.8546  0.7664 -0.6263
  114CHL1   H1714647   3.988   4.965  15.302  0.8079  0.8720 -0.6204
  114CHL1   C1314648   3.872   4.824  15.400 -0.5644  0.0655 -0.2573
  114CHL1   C1814649   3.779   4.708  15.374  0.7365  0.3095 -0.4086
  114CHL1  H18A14650   3.692   4.742  15.313  1.0834 -0.6382 -1.4574
  114CHL1  H18B14651   3.839   4.635  15.316  0.2989 -1.0335  0.7890
  114CHL1  H18C14652   3.757   4.655  15.469  1.3628 -3.1247 -2.0622
  114CHL1   C1214653   4.000   4.765  15.449 -0.3718  0.8511  0.2613
  114CHL1  H12A14654   4.058   4.694  15.386  0.0154  1.7834 -0.4612
  114CHL1  H12B14655   4.074   4.845  15.473 -1.4954  2.1501 -0.4161
  114CHL1   C1114656   3.977   4.700  15.586  0.1457 -0.0784 -0.4499
  114CHL1  H11A14657   3.925   4.604  15.563  2.1658 -1.2285 -0.5087
  114CHL1  H11B14658   4.076   4.667  15.624  0.2131 -0.3108 -0.8130
  114CHL1    C914659   3.909   4.779  15.702 -0.1124  0.7148  0.1039
  114CHL1    H914660   3.977   4.865  15.722  0.5187  0.8242 -2.1859
  114CHL1   C1014661   3.881   4.711  15.840 -0.1023  0.3739 -0.7068
  114CHL1   C1914662   3.790   4.587  15.815 -0.7950  0.5146 -0.1856
  114CHL1  H19A14663   3.684   4.604  15.786 -1.2497 -1.4844  0.1734
  114CHL1  H19B14664   3.839   4.526  15.737  0.3277  1.7081 -0.4526
  114CHL1  H19C14665   3.782   4.530  15.910 -1.8123  2.4937  0.9873
  114CHL1    C114666   4.016   4.675  15.905 -0.6006  0.3563  0.1840
  114CHL1   H1A14667   4.059   4.589  15.848 -0.6283 -0.8082  1.8637
  114CHL1   H1B14668   4.081   4.764  15.896  0.4077 -0.4159 -0.5006
  114CHL1    C214669   4.011   4.645  16.058  0.8475 -0.8086  0.2121
  114CHL1   H2A14670   4.118   4.641  16.088  0.5998  2.2004  1.9415
  114CHL1   H2B14671   3.957   4.548  16.061 -2.1239  0.7142 -0.2869
  114CHL1   C2014672   3.901   4.868  15.143  0.2037  0.3622 -0.3397
  114CHL1   H2014673   3.810   4.809  15.117 -0.7145  1.3738  0.5018
  114CHL1   C2114674   4.017   4.771  15.131 -0.6576 -0.3826  0.0389
  114CHL1  H21A14675   3.990   4.683  15.193 -0.5412 -0.8023 -0.4974
  114CHL1  H21B14676   4.110   4.818  15.170 -0.5190 -0.3388 -0.3392
  114CHL1  H21C14677   4.040   4.739  15.027 -0.8453 -0.3121 -0.0240
  114CHL1   C2214678   3.922   4.974  15.033  0.3919 -0.2543 -0.5548
  114CHL1  H22A14679   3.841   5.049  15.045  0.4667 -0.3618  0.6800
  114CHL1  H22B14680   4.014   5.028  15.065 -0.4854 -1.2399  4.3369
  114CHL1   C2314681   3.936   4.932  14.886 -0.0487  0.7602  0.4030
  114CHL1  H23A14682   3.957   5.022  14.824  0.5746 -0.2573 -0.9027
  114CHL1  H23B14683   4.018   4.864  14.856  1.6410  2.1850  1.5468
  114CHL1   C2414684   3.811   4.862  14.834  0.7209 -0.3406  0.5893
  114CHL1  H24A14685   3.788   4.786  14.913  1.1534  0.2304  1.2800
  114CHL1  H24B14686   3.717   4.921  14.836  0.6985 -0.3847  1.3122
  114CHL1   C2514687   3.817   4.794  14.691 -0.0102  0.4430 -0.6851
  114CHL1   H2514688   3.907   4.729  14.698 -0.7773 -0.4632  1.5817
  114CHL1   C2614689   3.683   4.716  14.677 -0.6060 -0.2745 -0.0801
  114CHL1  H26A14690   3.696   4.661  14.581  2.7670  2.0475 -1.1432
  114CHL1  H26B14691   3.642   4.647  14.754 -0.5481  0.5059  0.6625
  114CHL1  H26C14692   3.607   4.789  14.642 -0.5108 -0.7037 -1.2600
  114CHL1   C2714693   3.837   4.893  14.578  0.4441 -0.4730  0.0123
  114CHL1  H27A14694   3.924   4.958  14.599 -0.2867  0.3317  0.5839
  114CHL1  H27B14695   3.855   4.837  14.483 -1.8213 -0.2258 -0.6222
  114CHL1  H27C14696   3.747   4.957  14.569 -0.4721 -1.9837 -3.8652
  115CHL1    C314697   0.957   0.001  16.634 -0.1269 -0.1238  0.3229
  115CHL1    H314698   1.046   0.062  16.608  1.4952 -2.4183  0.1410
  115CHL1    O314699   0.951  -0.022  16.773 -0.2587 -0.0926  0.2152
  115CHL1   H3'14700   0.912  -0.109  16.784  0.9025 -0.6432  0.1299
  115CHL1    C414701   0.828   0.073  16.593 -0.3339 -0.3866  0.2881
  115CHL1   H4A14702   0.747   0.002  16.624 -1.3734  0.8726  0.5500
  115CHL1   H4B14703   0.816   0.162  16.657 -2.6950 -1.5175  1.5944
  115CHL1    C514704   0.815   0.098  16.440 -0.0180 -0.8934  0.0463
  115CHL1    C614705   0.792   0.219  16.394  0.1688  0.4725 -0.0542
  115CHL1    H614706   0.773   0.302  16.463  0.2537  1.3416 -1.0381
  115CHL1    C714707   0.789   0.245  16.246  0.1573  0.1313 -0.0927
  115CHL1   H7A14708   0.694   0.301  16.230  0.2406 -0.0422 -1.2755
  115CHL1   H7B14709   0.876   0.305  16.214 -1.8176  2.5315 -1.3526
  115CHL1    C814710   0.785   0.121  16.155  0.3537 -0.1072  0.9569
  115CHL1    H814711   0.681   0.082  16.156  0.4735 -0.4962  0.0289
  115CHL1   C1414712   0.826   0.154  16.009 -0.4805  0.1375  0.2234
  115CHL1   H1414713   0.929   0.197  16.005  0.0013 -0.8089  1.6767
  115CHL1   C1514714   0.739   0.254  15.937 -0.0495 -0.3701  0.7670
  115CHL1  H15A14715   0.630   0.243  15.953 -0.4118  0.6740 -0.7052
  115CHL1  H15B14716   0.768   0.351  15.983  0.8566 -1.2523  2.1233
  115CHL1   C1614717   0.777   0.238  15.792 -0.5763  0.4877 -1.5637
  115CHL1  H16A14718   0.685   0.234  15.730 -0.8122 -1.6659 -1.1748
  115CHL1  H16B14719   0.841   0.324  15.762  0.9897 -0.1508 -0.2412
  115CHL1   C1714720   0.853   0.102  15.776 -0.0550 -0.7221 -0.0245
  115CHL1   H1714721   0.962   0.127  15.774 -0.3848  0.7555 -1.8602
  115CHL1   C1314722   0.820   0.036  15.910  0.0311  0.0693 -0.5627
  115CHL1   C1814723   0.681  -0.032  15.908 -0.6193 -0.0576 -0.4153
  115CHL1  H18A14724   0.673  -0.121  15.841 -0.9179 -1.4030  1.3338
  115CHL1  H18B14725   0.651  -0.059  16.011 -0.5603  0.5847 -0.2282
  115CHL1  H18C14726   0.600   0.034  15.870 -0.1805  1.1051  0.6231
  115CHL1   C1214727   0.923  -0.062  15.963  0.4507 -0.1218  0.1468
  115CHL1  H12A14728   0.926  -0.156  15.903  0.6061  0.2877 -0.5002
  115CHL1  H12B14729   1.025  -0.021  15.954 -0.5017  2.0391 -1.9553
  115CHL1   C1114730   0.890  -0.109  16.107  0.0252 -0.4016  0.1891
  115CHL1  H11A14731   0.793  -0.164  16.114 -0.3771  0.2383 -0.2746
  115CHL1  H11B14732   0.963  -0.187  16.137 -0.5825 -0.9572  0.2478
  115CHL1    C914733   0.878   0.012  16.209 -0.4982 -0.5826 -0.4897
  115CHL1    H914734   0.978   0.059  16.201 -0.5486 -0.5989 -1.3251
  115CHL1   C1014735   0.857  -0.022  16.355  0.7822  0.0368 -0.0209
  115CHL1   C1914736   0.728  -0.111  16.358  0.4788  0.7340 -0.3286
  115CHL1  H19A14737   0.753  -0.213  16.320  0.9115  0.5599  0.4069
  115CHL1  H19B14738   0.692  -0.131  16.461  1.7548 -1.1337 -0.1817
  115CHL1  H19C14739   0.652  -0.081  16.283  0.9211 -1.3545 -1.6945
  115CHL1    C114740   0.981  -0.103  16.410  0.0963 -0.7513  0.2442
  115CHL1   H1A14741   0.997  -0.203  16.364  0.7847 -0.2821 -0.5530
  115CHL1   H1B14742   1.072  -0.040  16.398 -0.4583 -0.0133 -0.1721
  115CHL1    C214743   0.977  -0.128  16.559 -0.1182 -0.1025  0.3380
  115CHL1   H2A14744   1.070  -0.182  16.588  0.2090 -1.3995 -2.7605
  115CHL1   H2B14745   0.887  -0.190  16.575 -0.6333  0.2360 -1.1388
  115CHL1   C2014746   0.825   0.032  15.642  0.2373 -0.3875  0.2926
  115CHL1   H2014747   0.715   0.016  15.632  0.0444  1.8421 -2.1459
  115CHL1   C2114748   0.880  -0.110  15.637  0.7942 -0.0003  0.0114
  115CHL1  H21A14749   0.851  -0.177  15.721 -1.1399  0.5980 -0.1159
  115CHL1  H21B14750   0.990  -0.099  15.636  0.7947  0.0095  0.1108
  115CHL1  H21C14751   0.845  -0.161  15.545  1.9113 -0.2799 -0.2733
  115CHL1   C2214752   0.882   0.115  15.524 -0.1860  0.2758 -0.7866
  115CHL1  H22A14753   0.834   0.215  15.523 -3.5049 -1.1606 -1.3487
  115CHL1  H22B14754   0.992   0.115  15.540 -0.5521  0.4636  2.4483
  115CHL1   C2314755   0.849   0.047  15.391  0.0179 -0.7986 -0.1898
  115CHL1  H23A14756   0.904  -0.049  15.384  0.7444 -0.2691 -2.7135
  115CHL1  H23B14757   0.742   0.017  15.388 -0.0886 -0.3770 -0.8567
  115CHL1   C2414758   0.883   0.126  15.272  0.5544  0.0926 -1.1689
  115CHL1  H24A14759   0.827   0.222  15.279 -1.5712 -0.9862 -2.3859
  115CHL1  H24B14760   0.990   0.156  15.266 -0.0646  2.8503 -0.1893
  115CHL1   C2514761   0.838   0.061  15.135 -0.6101 -0.3815 -0.3269
  115CHL1   H2514762   0.727   0.059  15.140 -0.5894 -3.2091  1.0321
  115CHL1   C2614763   0.877   0.134  15.011 -1.0553 -0.7137  0.3300
  115CHL1  H26A14764   0.835   0.234  14.989  1.0125  0.5179  1.6910
  115CHL1  H26B14765   0.988   0.137  15.010 -1.0617 -0.0240  1.1039
  115CHL1  H26C14766   0.856   0.075  14.919  1.2969 -1.0573 -0.0575
  115CHL1   C2714767   0.877  -0.088  15.133  0.3942  0.5403 -0.3619
  115CHL1  H27A14768   0.985  -0.108  15.148 -0.0995 -0.4669  2.3170
  115CHL1  H27B14769   0.817  -0.147  15.206 -0.4508  1.5811 -0.1975
  115CHL1  H27C14770   0.851  -0.128  15.033 -0.2605  1.1304 -0.4335
  116CHL1    C314771   1.705   5.427  16.229 -1.0335 -0.5706 -0.1037
  116CHL1    H314772   1.809   5.457  16.206 -1.4056  1.2035  0.3995
  116CHL1    O314773   1.682   5.408  16.364  0.3959  0.3232  0.2625
  116CHL1   H3'14774   1.739   5.332  16.377 -0.6920 -0.1591  2.6695
  116CHL1    C414775   1.597   5.528  16.176 -0.5537  0.0782  0.1679
  116CHL1   H4A14776   1.496   5.484  16.188 -0.4039 -0.2448  0.2728
  116CHL1   H4B14777   1.605   5.617  16.241 -0.1021  1.4233 -1.6405
  116CHL1    C514778   1.641   5.570  16.030 -0.6184  0.1120 -0.8868
  116CHL1    C614779   1.687   5.695  16.003  0.1434  0.3629  0.2725
  116CHL1    H614780   1.700   5.776  16.076  0.2838  0.6294 -0.0436
  116CHL1    C714781   1.728   5.728  15.863 -0.7325  0.2287 -0.1447
  116CHL1   H7A14782   1.691   5.829  15.834 -0.8401  0.2115 -0.0693
  116CHL1   H7B14783   1.839   5.722  15.854 -0.7559  0.7817 -0.9096
  116CHL1    C814784   1.663   5.630  15.762 -0.7273 -0.5856 -0.3601
  116CHL1    H814785   1.555   5.654  15.769 -0.5625  0.1398 -0.1358
  116CHL1   C1414786   1.718   5.657  15.621  0.3278 -1.2163 -0.1518
  116CHL1   H1414787   1.829   5.652  15.621  0.3350 -1.1168 -1.1697
  116CHL1   C1514788   1.700   5.805  15.568 -1.4002  0.2831  0.5728
  116CHL1  H15A14789   1.599   5.849  15.582 -0.6599  1.8658  1.2008
  116CHL1  H15B14790   1.772   5.871  15.622  0.1836 -1.1347  0.2759
  116CHL1   C1614791   1.732   5.787  15.415 -0.2059  0.5696 -0.0091
  116CHL1  H16A14792   1.664   5.839  15.343  0.2301 -0.2614 -1.0553
  116CHL1  H16B14793   1.833   5.828  15.396  1.1494 -2.0029  1.2384
  116CHL1   C1714794   1.729   5.627  15.389 -0.0693  0.2321 -0.0559
  116CHL1   H1714795   1.836   5.598  15.397 -0.6041 -1.6488  0.8145
  116CHL1   C1314796   1.654   5.568  15.512  0.0652 -0.9094  0.0702
  116CHL1   C1814797   1.505   5.593  15.491  0.4680  0.2782 -0.5139
  116CHL1  H18A14798   1.451   5.519  15.428 -0.7754  1.2318 -0.6057
  116CHL1  H18B14799   1.443   5.593  15.583 -1.8708 -1.6847 -1.9450
  116CHL1  H18C14800   1.488   5.698  15.460 -1.0266  0.5018  0.9173
  116CHL1   C1214801   1.682   5.422  15.542  0.2795  0.5896  0.2997
  116CHL1  H12A14802   1.634   5.365  15.461  0.9814  0.3548  0.0434
  116CHL1  H12B14803   1.792   5.407  15.544  0.3504  0.9100  2.7615
  116CHL1   C1114804   1.633   5.386  15.683 -0.7788  0.4042 -0.1749
  116CHL1  H11A14805   1.526   5.403  15.660 -0.4714  1.8167 -0.6674
  116CHL1  H11B14806   1.657   5.280  15.705 -0.9256  0.7132  1.6270
  116CHL1    C914807   1.689   5.481  15.797 -0.2201 -0.7310 -0.7778
  116CHL1    H914808   1.800   5.469  15.800 -0.1442  0.0876  0.0972
  116CHL1   C1014809   1.631   5.448  15.935 -0.6468 -0.0212  0.7769
  116CHL1   C1914810   1.472   5.422  15.921  0.1947 -0.0991  0.1355
  116CHL1  H19A14811   1.416   5.512  15.890  0.1133  1.4368  4.1042
  116CHL1  H19B14812   1.449   5.336  15.855 -0.5486  1.1238 -1.2425
  116CHL1  H19C14813   1.422   5.380  16.011 -0.7777 -0.2269 -0.4455
  116CHL1    C114814   1.713   5.329  15.996 -0.2199  0.4346 -0.1771
  116CHL1   H1A14815   1.676   5.241  15.940  0.0979  1.7478 -2.6023
  116CHL1   H1B14816   1.820   5.348  15.973  0.1896 -0.3044  1.0364
  116CHL1    C214817   1.694   5.304  16.145  0.3341 -0.7319 -0.3712
  116CHL1   H2A14818   1.767   5.225  16.173 -0.7612 -0.5281  3.5082
  116CHL1   H2B14819   1.593   5.260  16.160  0.6642 -0.8668  1.7073
  116CHL1   C2014820   1.679   5.597  15.249  0.5144  0.6080  0.2298
  116CHL1   H2014821   1.581   5.648  15.246  0.8920  1.3120 -1.5116
  116CHL1   C2114822   1.652   5.449  15.213 -0.0005 -0.7410  0.1825
  116CHL1  H21A14823   1.598   5.445  15.115 -1.1016 -3.0237  0.8220
  116CHL1  H21B14824   1.584   5.394  15.282 -0.0265 -0.4680  0.3753
  116CHL1  H21C14825   1.744   5.388  15.210 -0.0531 -0.7998 -0.4395
  116CHL1   C2214826   1.773   5.656  15.140 -0.0889  0.1906 -0.5336
  116CHL1  H22A14827   1.775   5.766  15.150  0.6526  0.2153 -0.9061
  116CHL1  H22B14828   1.872   5.610  15.162  0.5361  2.3197  1.4656
  116CHL1   C2314829   1.724   5.628  14.997 -0.4641 -0.5673 -0.2349
  116CHL1  H23A14830   1.799   5.669  14.926 -1.2374  0.6567 -0.3715
  116CHL1  H23B14831   1.724   5.521  14.969 -0.4500 -1.1058  1.7015
  116CHL1   C2414832   1.584   5.689  14.965 -0.7203 -0.3063 -0.7697
  116CHL1  H24A14833   1.508   5.639  15.028 -1.4327  1.2724 -0.3341
  116CHL1  H24B14834   1.588   5.795  14.999  0.4365 -0.3213 -0.8114
  116CHL1   C2514835   1.553   5.687  14.815  0.3761 -0.8805 -0.0106
  116CHL1   H2514836   1.553   5.580  14.786 -2.2006 -0.9511  0.0502
  116CHL1   C2614837   1.408   5.736  14.794  0.1241  0.3242 -0.0886
  116CHL1  H26A14838   1.392   5.840  14.831  0.2766  0.1097  0.5916
  116CHL1  H26B14839   1.374   5.730  14.688  2.1134  1.7109 -0.8706
  116CHL1  H26C14840   1.339   5.671  14.852  0.8442 -0.8780 -0.5363
  116CHL1   C2714841   1.641   5.784  14.731  0.1406  0.5590  0.3462
  116CHL1  H27A14842   1.746   5.752  14.717  0.7820  0.9236  3.5478
  116CHL1  H27B14843   1.591   5.793  14.632 -0.8085 -0.0038  0.7501
  116CHL1  H27C14844   1.638   5.883  14.780 -2.4703  0.3637  0.7394
  117CHL1    C314845   3.926   5.944  16.444 -0.0998  0.4015  0.8793
  117CHL1    H314846   3.952   6.051  16.454  0.1038  0.3954  0.4570
  117CHL1    O314847   3.878   5.895  16.567  0.1155  0.4312 -0.3334
  117CHL1   H3'14848   3.822   5.966  16.599 -0.8133 -0.7153  0.6667
  117CHL1    C414849   3.808   5.932  16.346  0.0790 -0.2434 -0.4838
  117CHL1   H4A14850   3.763   5.830  16.352 -0.0388 -0.1089  1.6112
  117CHL1   H4B14851   3.733   6.007  16.380  0.2769  0.0989 -0.7888
  117CHL1    C514852   3.839   5.974  16.206 -0.7380  0.0824 -0.2095
  117CHL1    C614853   3.769   6.072  16.140 -0.3082 -0.3469 -0.8871
  117CHL1    H614854   3.685   6.115  16.196  2.2012  0.0713  2.9328
  117CHL1    C714855   3.783   6.108  15.998 -0.4034 -0.0295  0.4138
  117CHL1   H7A14856   3.690   6.107  15.938  0.4230  0.1162 -0.9136
  117CHL1   H7B14857   3.803   6.217  15.993  0.2014 -0.0925  1.1990
  117CHL1    C814858   3.888   6.011  15.935 -0.0101 -0.3309 -0.2738
  117CHL1    H814859   3.832   5.920  15.905  0.2695  0.0911 -2.1571
  117CHL1   C1414860   3.944   6.077  15.812 -0.1124 -0.1164  0.5187
  117CHL1   H1414861   4.013   6.159  15.840 -1.2944  0.7599  0.9528
  117CHL1   C1514862   3.840   6.142  15.714  0.0992  0.8023  0.1596
  117CHL1  H15A14863   3.745   6.086  15.700 -0.4731  1.7410  0.2424
  117CHL1  H15B14864   3.822   6.244  15.754  0.6064 -0.3712  3.6817
  117CHL1   C1614865   3.910   6.147  15.576  1.0954 -0.3032 -0.5341
  117CHL1  H16A14866   3.865   6.083  15.498  0.2667  0.9883 -1.1487
  117CHL1  H16B14867   3.913   6.247  15.528  2.6444 -0.2413 -0.3579
  117CHL1   C1714868   4.051   6.082  15.598  0.5165  0.0562  0.1476
  117CHL1   H1714869   4.117   6.166  15.626  2.0245 -0.8025 -0.7226
  117CHL1   C1314870   4.045   5.992  15.721 -0.2742  0.8206 -0.3135
  117CHL1   C1814871   3.974   5.857  15.676 -0.3343  0.1720  0.3201
  117CHL1  H18A14872   3.901   5.873  15.594 -1.2981 -0.1506  1.0969
  117CHL1  H18B14873   4.048   5.790  15.629 -0.3288  0.0701  0.4746
  117CHL1  H18C14874   3.931   5.806  15.765 -1.6311 -1.3393 -1.1070
  117CHL1   C1214875   4.170   5.958  15.805  0.1160  0.0664  0.0934
  117CHL1  H12A14876   4.224   5.876  15.754  0.0444 -0.1622  0.3832
  117CHL1  H12B14877   4.236   6.045  15.826 -1.1191  0.5604  2.2214
  117CHL1   C1114878   4.131   5.905  15.941  0.7835  0.3835 -0.2997
  117CHL1  H11A14879   4.121   5.795  15.928  3.9257 -0.0328  0.0150
  117CHL1  H11B14880   4.229   5.910  15.992  0.8883  0.2005 -0.4774
  117CHL1    C914881   4.009   5.973  16.018 -0.6284  0.2214 -0.0311
  117CHL1    H914882   4.052   6.070  16.048 -2.3633  1.0064  0.0380
  117CHL1   C1014883   3.968   5.902  16.149  0.1735  0.1674 -0.0725
  117CHL1   C1914884   3.936   5.748  16.118  0.6252 -0.0770 -0.3086
  117CHL1  H19A14885   3.886   5.711  16.210  3.0506  0.4148  1.2960
  117CHL1  H19B14886   3.876   5.735  16.025 -1.5599 -1.1926  1.1702
  117CHL1  H19C14887   4.031   5.692  16.108  0.6915 -0.1169  0.5164
  117CHL1    C114888   4.090   5.912  16.245  0.6344  0.1413 -0.5314
  117CHL1   H1A14889   4.175   5.857  16.201  0.9449  0.2409 -0.0665
  117CHL1   H1B14890   4.116   6.020  16.247 -2.1583  0.9055  1.6002
  117CHL1    C214891   4.052   5.867  16.394  0.4748 -0.9297  0.6634
  117CHL1   H2A14892   4.127   5.870  16.476  0.6368  0.2475  0.4875
  117CHL1   H2B14893   4.016   5.762  16.395  0.1047 -0.8096  0.2346
  117CHL1   C2014894   4.123   6.029  15.468 -0.5481  0.9114  0.0808
  117CHL1   H2014895   4.066   5.940  15.436  0.1784 -0.2941  1.9227
  117CHL1   C2114896   4.269   5.984  15.494 -0.1261  0.6323 -0.3732
  117CHL1  H21A14897   4.313   5.965  15.393 -0.7274 -0.4107 -0.4520
  117CHL1  H21B14898   4.264   5.884  15.542 -1.4038  0.8180 -0.1046
  117CHL1  H21C14899   4.328   6.054  15.557 -0.6117  0.3468  0.4116
  117CHL1   C2214900   4.111   6.133  15.358 -0.3614  0.5601  0.2595
  117CHL1  H22A14901   4.014   6.186  15.366 -0.7208 -0.2840  2.0726
  117CHL1  H22B14902   4.194   6.207  15.371 -0.0431  0.1974  0.3193
  117CHL1   C2314903   4.111   6.070  15.217  0.2531  0.3501  0.7910
  117CHL1  H23A14904   4.208   6.017  15.210 -0.7908 -1.5479 -0.0123
  117CHL1  H23B14905   4.028   5.996  15.212 -0.7277  1.1337  3.4808
  117CHL1   C2414906   4.102   6.172  15.106  0.4356  0.0552 -0.5101
  117CHL1  H24A14907   4.015   6.241  15.111 -1.1185 -1.9433  1.2112
  117CHL1  H24B14908   4.194   6.235  15.113  0.8129 -0.1662 -2.7545
  117CHL1   C2514909   4.123   6.114  14.962  0.9908  0.6611 -0.1752
  117CHL1   H2514910   4.124   6.200  14.892  1.6556 -1.1093 -2.4864
  117CHL1   C2614911   4.254   6.037  14.945 -0.1072  0.3851 -0.5908
  117CHL1  H26A14912   4.273   6.026  14.836  0.1613  0.6845 -0.5759
  117CHL1  H26B14913   4.334   6.097  14.994  1.2075  1.6944 -4.0239
  117CHL1  H26C14914   4.262   5.937  14.993 -1.3454  0.7446  0.4262
  117CHL1   C2714915   4.012   6.022  14.906 -0.4378  0.0506 -0.3332
  117CHL1  H27A14916   3.991   5.944  14.982 -0.5762  2.3564  2.1476
  117CHL1  H27B14917   3.916   6.075  14.887 -2.2634 -2.1204  2.0587
  117CHL1  H27C14918   4.042   5.980  14.807 -0.8259  0.5229 -0.6599
  118CHL1    C314919   6.214   0.246  16.287 -0.0266  0.2066  0.5185
  118CHL1    H314920   6.313   0.292  16.265  0.2455 -1.1513 -1.2896
  118CHL1    O314921   6.197   0.227  16.424 -0.0927 -0.2573  0.2137
  118CHL1   H3'14922   6.150   0.143  16.428 -1.3927  0.2682 -2.3028
  118CHL1    C414923   6.106   0.344  16.237  0.5015 -0.4251  0.6707
  118CHL1   H4A14924   6.005   0.309  16.267 -0.6077  0.8680 -1.3541
  118CHL1   H4B14925   6.124   0.440  16.290  0.2477  0.3143 -0.5484
  118CHL1    C514926   6.108   0.354  16.082  0.0632  0.8425  0.5691
  118CHL1    C614927   6.115   0.474  16.022 -0.7531  0.0212  0.0268
  118CHL1    H614928   6.117   0.553  16.098  2.0447 -0.5582  0.6654
  118CHL1    C714929   6.123   0.500  15.874  0.0299  1.1144  0.0521
  118CHL1   H7A14930   6.048   0.576  15.843  0.3537  1.8490  0.9964
  118CHL1   H7B14931   6.227   0.528  15.847  1.5430 -1.7200  2.4070
  118CHL1    C814932   6.072   0.374  15.800 -1.1568  0.8747  0.2718
  118CHL1    H814933   5.963   0.356  15.809 -0.6111 -2.6152  1.2714
  118CHL1   C1414934   6.082   0.399  15.641 -0.8662 -0.1323 -0.0466
  118CHL1   H1414935   6.189   0.416  15.618 -0.5293  0.3589  1.7052
  118CHL1   C1514936   6.008   0.515  15.570  0.3005  0.6272  0.4436
  118CHL1  H15A14937   5.906   0.511  15.615 -0.0329 -0.3330 -0.3645
  118CHL1  H15B14938   6.051   0.613  15.599 -1.2477  1.4911 -0.0366
  118CHL1   C1614939   6.011   0.470  15.425  0.4823 -0.4188  0.3919
  118CHL1  H16A14940   5.912   0.468  15.373  0.3448  1.7630  0.4525
  118CHL1  H16B14941   6.084   0.535  15.371  0.7905 -1.0014  0.0989
  118CHL1   C1714942   6.064   0.323  15.416 -0.5506  1.2553  0.5286
  118CHL1   H1714943   6.174   0.324  15.402 -0.3559  0.6187  1.8082
  118CHL1   C1314944   6.049   0.272  15.556  0.7630 -0.1119  0.7096
  118CHL1   C1814945   5.899   0.226  15.571 -0.2852  0.0418  0.3103
  118CHL1  H18A14946   5.882   0.137  15.506  0.2234 -0.2439  0.5585
  118CHL1  H18B14947   5.880   0.209  15.679  0.6670 -0.1171  0.4589
  118CHL1  H18C14948   5.837   0.310  15.533 -1.9157 -0.2883  2.0790
  118CHL1   C1214949   6.150   0.166  15.604  0.5045 -0.4048  1.1856
  118CHL1  H12A14950   6.123   0.076  15.545  2.5876 -0.9497  0.9995
  118CHL1  H12B14951   6.259   0.188  15.599  0.7236 -0.7294  3.4741
  118CHL1   C1114952   6.129   0.132  15.757  0.0328  0.0955 -0.7908
  118CHL1  H11A14953   6.027   0.087  15.761  1.6292 -4.0807 -2.0459
  118CHL1  H11B14954   6.188   0.044  15.788 -0.4423  0.5283  1.5726
  118CHL1    C914955   6.148   0.248  15.854 -0.4154 -0.0695 -0.4489
  118CHL1    H914956   6.257   0.271  15.854 -0.1967 -0.9387  1.0485
  118CHL1   C1014957   6.105   0.219  16.004 -0.0767  0.2461  0.3639
  118CHL1   C1914958   5.960   0.163  16.003 -0.3366  0.6443  0.3198
  118CHL1  H19A14959   5.960   0.059  15.964  1.7359  1.0464 -0.8659
  118CHL1  H19B14960   5.928   0.152  16.109 -0.1426 -3.7044  0.0881
  118CHL1  H19C14961   5.885   0.230  15.957 -1.0995 -0.6037 -0.3155
  118CHL1    C114962   6.211   0.125  16.068  0.3093 -0.5146  0.2045
  118CHL1   H1A14963   6.213   0.025  16.020  1.3990 -0.2242 -0.3925
  118CHL1   H1B14964   6.308   0.173  16.044  0.2040 -0.3058  0.1995
  118CHL1    C214965   6.210   0.113  16.222  0.4533  0.4344  1.1746
  118CHL1   H2A14966   6.304   0.059  16.245  0.5046 -1.5106 -2.7344
  118CHL1   H2B14967   6.118   0.061  16.256  1.0801 -0.9663  0.8099
  118CHL1   C2014968   6.001   0.244  15.289  0.7848 -0.3596 -0.3017
  118CHL1   H2014969   5.890   0.243  15.301  0.8489  1.2772  0.7058
  118CHL1   C2114970   6.060   0.097  15.283 -0.5386 -0.2252  0.4207
  118CHL1  H21A14971   6.008   0.034  15.359  1.7376 -1.2688  1.2092
  118CHL1  H21B14972   6.171   0.097  15.295 -0.2473 -0.2455 -1.9323
  118CHL1  H21C14973   6.038   0.042  15.189 -0.2046 -2.1867  1.4386
  118CHL1   C2214974   6.018   0.326  15.155  0.6520  0.1025 -0.3413
  118CHL1  H22A14975   5.963   0.422  15.167  1.2601  0.2341  1.6987
  118CHL1  H22B14976   6.125   0.345  15.133  0.7943 -1.0171 -0.6407
  118CHL1   C2314977   5.960   0.248  15.035 -0.2907 -0.1949  0.2646
  118CHL1  H23A14978   6.040   0.173  15.018  0.2987 -1.2761  5.8948
  118CHL1  H23B14979   5.866   0.195  15.063 -0.0362 -1.1217 -0.5639
  118CHL1   C2414980   5.936   0.334  14.921 -0.3863 -0.2902  0.4504
  118CHL1  H24A14981   5.867   0.419  14.939  0.3748  1.1755 -2.9083
  118CHL1  H24B14982   6.031   0.386  14.897  0.0111 -0.5402  1.4245
  118CHL1   C2514983   5.891   0.264  14.800  0.4622 -0.2527 -0.3830
  118CHL1   H2514984   5.807   0.196  14.827 -0.0621  0.0716 -1.1445
  118CHL1   C2614985   5.822   0.362  14.700  0.4665  0.1209  0.4126
  118CHL1  H26A14986   5.734   0.422  14.729  1.0464  2.8579 -2.9538
  118CHL1  H26B14987   5.888   0.427  14.640 -1.7376  1.0853 -1.0779
  118CHL1  H26C14988   5.784   0.302  14.614  2.3936  0.6061 -0.8319
  118CHL1   C2714989   6.000   0.176  14.728  0.2252 -0.0341 -0.3727
  118CHL1  H27A14990   5.958   0.085  14.680 -3.3220  1.1334  0.2564
  118CHL1  H27B14991   6.056   0.236  14.653 -0.0047  0.5171 -0.1082
  118CHL1  H27C14992   6.071   0.146  14.807  1.0114  1.5151 -0.4486
  119CHL1    C314993   0.412   6.284  16.430 -0.5650 -0.7831  0.2694
  119CHL1    H314994   0.464   6.381  16.442  1.3518 -1.8955  1.2402
  119CHL1    O314995   0.385   6.225  16.557  0.7324 -0.1843 -0.4871
  119CHL1   H3'14996   0.296   6.190  16.552  1.6256 -2.6253 -0.4964
  119CHL1    C414997   0.271   6.303  16.357  0.3239 -0.6786 -0.1352
  119CHL1   H4A14998   0.220   6.205  16.369 -0.5552 -0.6623 -3.1132
  119CHL1   H4B14999   0.227   6.384  16.418  3.0629  1.9270 -1.3820
  119CHL1    C515000   0.282   6.334  16.208 -0.8339  0.2208 -0.2524
  119CHL1    C615001   0.221   6.443  16.164  0.3356 -0.6505 -0.0660
  119CHL1    H615002   0.184   6.520  16.233  1.0596 -0.4686  0.1295
  119CHL1    C715003   0.212   6.466  16.016  0.7368  0.1740  0.0251
  119CHL1   H7A15004   0.102   6.469  16.001  0.7050 -3.6583 -1.6850
  119CHL1   H7B15005   0.269   6.559  15.997 -0.9710  1.7175  1.9740
  119CHL1    C815006   0.268   6.354  15.925  0.2387  0.6321 -0.1663
  119CHL1    H815007   0.191   6.274  15.922  1.0037 -0.1582  0.6043
  119CHL1   C1415008   0.309   6.417  15.792 -0.0811 -0.3312 -0.3785
  119CHL1   H1415009   0.384   6.495  15.819 -0.7917  0.2977 -0.1803
  119CHL1   C1515010   0.200   6.487  15.715 -0.1381  0.5396 -0.1806
  119CHL1  H15A15011   0.108   6.427  15.726  0.5492 -0.9087 -1.8712
  119CHL1  H15B15012   0.172   6.586  15.758  2.1142  1.5773 -0.9607
  119CHL1   C1615013   0.249   6.496  15.570  0.3612  0.0092 -0.8908
  119CHL1  H16A15014   0.176   6.453  15.497  0.0743  0.7859 -1.0763
  119CHL1  H16B15015   0.272   6.597  15.529  0.8511 -1.1605 -3.6842
  119CHL1   C1715016   0.389   6.413  15.560 -0.5382 -0.2370  0.1235
  119CHL1   H1715017   0.472   6.484  15.580 -0.1575 -0.8266  0.6348
  119CHL1   C1315018   0.381   6.325  15.691  0.6691  0.3194 -0.3784
  119CHL1   C1815019   0.288   6.208  15.650  0.5162  0.0825  0.6536
  119CHL1  H18A15020   0.266   6.145  15.739 -0.0140 -1.0786 -0.2671
  119CHL1  H18B15021   0.194   6.233  15.596  1.6040  0.2805 -1.2332
  119CHL1  H18C15022   0.352   6.151  15.579  0.4313  0.7514  0.0269
  119CHL1   C1215023   0.510   6.275  15.760 -0.5167  0.0695 -0.4074
  119CHL1  H12A15024   0.576   6.210  15.699  1.0999 -0.6536  1.9636
  119CHL1  H12B15025   0.576   6.364  15.772  0.3780 -0.5615 -0.5331
  119CHL1   C1115026   0.472   6.209  15.899 -0.4404  0.1639 -0.0316
  119CHL1  H11A15027   0.412   6.120  15.872  0.7887 -0.4312 -0.9146
  119CHL1  H11B15028   0.566   6.174  15.946 -0.2995 -0.8655 -1.0296
  119CHL1    C915029   0.388   6.300  15.992  0.0519  0.5547  0.7322
  119CHL1    H915030   0.451   6.390  16.008 -0.0321  0.7425  0.0124
  119CHL1   C1015031   0.359   6.237  16.129  0.1728  0.2984 -0.0029
  119CHL1   C1915032   0.294   6.098  16.116  0.0732  0.3162 -0.2517
  119CHL1  H19A15033   0.358   6.031  16.055  0.3010  1.5656 -1.4300
  119CHL1  H19B15034   0.287   6.054  16.218  0.2461 -0.7101 -0.6636
  119CHL1  H19C15035   0.195   6.090  16.064 -0.9271  0.3489  1.5677
  119CHL1    C115036   0.498   6.210  16.196  0.1223 -0.2905 -0.8748
  119CHL1   H1A15037   0.545   6.124  16.142 -2.0072 -3.4847  1.9211
  119CHL1   H1B15038   0.563   6.298  16.181 -0.0546 -0.0308 -0.1173
  119CHL1    C215039   0.493   6.177  16.347  0.1809 -0.5526 -0.1600
  119CHL1   H2A15040   0.596   6.175  16.389 -0.3094  0.0356  1.1219
  119CHL1   H2B15041   0.449   6.078  16.369 -0.7448  0.5465  3.7516
  119CHL1   C2015042   0.409   6.372  15.419  0.2160 -0.3754  0.4494
  119CHL1   H2015043   0.330   6.302  15.387 -1.9093  2.8885 -2.1628
  119CHL1   C2115044   0.542   6.301  15.411  0.2806 -0.1815 -0.5152
  119CHL1  H21A15045   0.618   6.353  15.473  1.6625 -3.3203  0.6250
  119CHL1  H21B15046   0.581   6.292  15.307  0.4458  0.3940 -0.5040
  119CHL1  H21C15047   0.531   6.199  15.453 -2.9841  0.8488  1.5267
  119CHL1   C2215048   0.392   6.486  15.321  0.0306  0.1615 -0.1942
  119CHL1  H22A15049   0.287   6.519  15.312  0.6859  3.0395  1.4313
  119CHL1  H22B15050   0.459   6.568  15.357 -0.9027  0.2902  1.3047
  119CHL1   C2315051   0.437   6.458  15.176 -0.8661 -0.4633  0.1332
  119CHL1  H23A15052   0.548   6.460  15.175 -0.8170  1.6270 -2.4745
  119CHL1  H23B15053   0.402   6.361  15.134  1.3857 -0.9641 -0.7400
  119CHL1   C2415054   0.396   6.556  15.068  0.6792  0.6629 -0.5853
  119CHL1  H24A15055   0.285   6.546  15.065  0.6270  0.8054  0.4307
  119CHL1  H24B15056   0.432   6.656  15.100 -1.7925  1.0669  1.2620
  119CHL1   C2515057   0.456   6.526  14.928 -0.4977  0.1366 -0.2970
  119CHL1   H2515058   0.440   6.421  14.896 -0.7366  0.8785 -2.8575
  119CHL1   C2615059   0.374   6.610  14.826  0.5030  0.2502  0.7481
  119CHL1  H26A15060   0.414   6.600  14.722 -1.2812 -1.4872  0.1848
  119CHL1  H26B15061   0.277   6.559  14.809  0.5402  0.4591 -0.1341
  119CHL1  H26C15062   0.361   6.718  14.849  0.1077  0.8688 -2.0196
  119CHL1   C2715063   0.604   6.568  14.909 -0.1694  0.4705  0.5623
  119CHL1  H27A15064   0.637   6.513  14.818  1.2844  0.7132  0.9167
  119CHL1  H27B15065   0.613   6.679  14.901  2.3207  0.3810  1.2683
  119CHL1  H27C15066   0.672   6.540  14.992 -0.4404  1.1185  1.0202
  120CHL1    C315067   5.604   6.377  16.387 -0.4076  0.0540 -0.7583
  120CHL1    H315068   5.531   6.303  16.349 -1.6291  1.0083 -0.3642
  120CHL1    O315069   5.619   6.365  16.527 -0.3679 -0.0751 -0.1772
  120CHL1   H3'15070   5.702   6.318  16.542 -0.4760 -0.6358 -1.2871
  120CHL1    C415071   5.738   6.341  16.323 -0.0955  0.2233  0.2865
  120CHL1   H4A15072   5.825   6.400  16.358  0.7736 -0.7830 -0.1000
  120CHL1   H4B15073   5.763   6.240  16.363 -2.0348 -0.1586  0.6477
  120CHL1    C515074   5.734   6.352  16.172  0.2848  0.2260 -0.3759
  120CHL1    C615075   5.758   6.243  16.098 -0.1208  0.0220 -0.3450
  120CHL1    H615076   5.791   6.153  16.152 -1.7619  0.8772  2.3399
  120CHL1    C715077   5.754   6.240  15.949  0.8489 -0.2981 -0.0556
  120CHL1   H7A15078   5.840   6.176  15.920  1.2693 -0.5214  1.5914
  120CHL1   H7B15079   5.660   6.197  15.909 -0.8995  2.2659  1.0097
  120CHL1    C815080   5.762   6.385  15.893 -0.8900  0.2900  0.2684
  120CHL1    H815081   5.862   6.431  15.904 -0.7482 -0.1062  0.6639
  120CHL1   C1415082   5.729   6.376  15.745 -0.3713  0.1021  0.0682
  120CHL1   H1415083   5.628   6.336  15.721  0.1832 -1.7823  0.7327
  120CHL1   C1515084   5.804   6.271  15.654 -0.1704 -0.1709 -0.1800
  120CHL1  H15A15085   5.912   6.284  15.680  0.0481 -1.5592 -0.3416
  120CHL1  H15B15086   5.764   6.170  15.674 -0.3319 -0.0615  0.0571
  120CHL1   C1615087   5.785   6.324  15.510  0.3627 -0.0577  0.3566
  120CHL1  H16A15088   5.885   6.336  15.463  0.3028  0.8014  0.4348
  120CHL1  H16B15089   5.716   6.258  15.453 -0.6174  1.2854 -0.0474
  120CHL1   C1715090   5.714   6.463  15.523  0.4833 -0.2549 -0.6151
  120CHL1   H1715091   5.605   6.444  15.508  0.4942 -1.5485  0.7011
  120CHL1   C1315092   5.738   6.515  15.665  0.1717  0.0363 -1.0216
  120CHL1   C1815093   5.878   6.573  15.687 -0.0574  0.3704  0.3436
  120CHL1  H18A15094   5.886   6.629  15.783 -0.6906 -1.1426  1.3116
  120CHL1  H18B15095   5.950   6.490  15.696  0.2927  0.5122 -0.9684
  120CHL1  H18C15096   5.915   6.647  15.613  0.5705  0.7217  0.9967
  120CHL1   C1215097   5.627   6.603  15.736 -0.3718 -0.2167 -0.2782
  120CHL1  H12A15098   5.634   6.703  15.687  0.8502 -0.9881 -1.7817
  120CHL1  H12B15099   5.527   6.554  15.731  0.1519 -1.2717 -0.5737
  120CHL1   C1115100   5.648   6.614  15.892 -0.0667  0.7005  0.2771
  120CHL1  H11A15101   5.745   6.666  15.908 -0.1500  1.0477 -0.3309
  120CHL1  H11B15102   5.567   6.679  15.931 -1.0303 -0.2391 -0.1305
  120CHL1    C915103   5.661   6.472  15.963 -0.5591  0.2062  0.3492
  120CHL1    H915104   5.565   6.421  15.941 -0.0370 -0.0010 -1.7487
  120CHL1   C1015105   5.688   6.486  16.119 -0.1223  0.3300 -0.3123
  120CHL1   C1915106   5.796   6.597  16.141 -0.0241 -0.5400 -0.3819
  120CHL1  H19A15107   5.825   6.610  16.247 -2.2366 -1.3815  0.3800
  120CHL1  H19B15108   5.876   6.571  16.069 -0.7788  0.9813 -1.8500
  120CHL1  H19C15109   5.753   6.697  16.116 -4.6158 -1.9760  0.7317
  120CHL1    C115110   5.562   6.536  16.201 -0.0168  0.3930  0.2279
  120CHL1   H1A15111   5.545   6.636  16.156  0.5860 -0.2533 -1.5181
  120CHL1   H1B15112   5.481   6.471  16.162 -0.0306  0.4558  0.1514
  120CHL1    C215113   5.565   6.525  16.352  0.4180 -0.1743  0.3696
  120CHL1   H2A15114   5.470   6.563  16.395 -0.5583 -1.1181 -0.8747
  120CHL1   H2B15115   5.648   6.587  16.392  0.8085  0.1141 -0.8481
  120CHL1   C2015116   5.751   6.556  15.406  0.0631 -0.0839  0.3208
  120CHL1   H2015117   5.860   6.575  15.414  0.2562  0.2375 -2.2364
  120CHL1   C2115118   5.679   6.691  15.413  0.8334  0.6073 -0.1828
  120CHL1  H21A15119   5.727   6.758  15.487  0.1617  1.6045 -0.6203
  120CHL1  H21B15120   5.570   6.675  15.432  0.8165 -0.8063 -1.2277
  120CHL1  H21C15121   5.688   6.757  15.324  0.1061 -0.4165 -1.0484
  120CHL1   C2215122   5.730   6.495  15.264 -0.1625 -0.1005  0.6016
  120CHL1  H22A15123   5.740   6.385  15.264 -1.5046 -0.2449 -0.3149
  120CHL1  H22B15124   5.621   6.509  15.254 -0.5402 -2.0052  1.6411
  120CHL1   C2315125   5.812   6.564  15.157  0.2350  0.8722  0.3648
  120CHL1  H23A15126   5.827   6.675  15.159  1.9828  0.7638 -1.8363
  120CHL1  H23B15127   5.908   6.511  15.173 -0.4403 -0.4137  0.2774
  120CHL1   C2415128   5.760   6.525  15.014  0.4119  0.2558 -0.5072
  120CHL1  H24A15129   5.752   6.414  15.002 -0.8244  0.3079 -0.2079
  120CHL1  H24B15130   5.660   6.565  14.992 -0.0216  0.0462  0.9667
  120CHL1   C2515131   5.846   6.596  14.903 -0.5035  0.4925  1.1917
  120CHL1   H2515132   5.859   6.705  14.919  1.6084  0.8455 -2.0938
  120CHL1   C2615133   5.989   6.545  14.902  0.5025  0.1037  0.0359
  120CHL1  H26A15134   5.988   6.434  14.897  1.3051  0.1125 -0.4877
  120CHL1  H26B15135   6.045   6.591  14.818  0.3822  2.4242  1.1586
  120CHL1  H26C15136   6.038   6.574  14.997 -0.7965  1.0580  0.4434
  120CHL1   C2715137   5.782   6.563  14.763 -0.3075 -0.8510 -0.1736
  120CHL1  H27A15138   5.827   6.612  14.674  0.0479 -2.7820 -1.1098
  120CHL1  H27B15139   5.789   6.453  14.749 -0.2826 -0.9977  0.9284
  120CHL1  H27C15140   5.677   6.600  14.764 -0.2047 -0.5271 -0.7948
  121CHL1    C315141   4.514   2.746  12.657  1.2411 -0.0433 -0.2917
  121CHL1    H315142   4.508   2.855  12.680 -0.8192 -0.3086  0.6288
  121CHL1    O315143   4.535   2.732  12.521  1.1109  0.2330  0.3115
  121CHL1   H3'15144   4.513   2.642  12.499  1.3676 -0.1639  1.6032
  121CHL1    C415145   4.629   2.687  12.735  0.0385  0.3437 -0.0492
  121CHL1   H4A15146   4.659   2.582  12.712  1.7589  0.9312 -0.6602
  121CHL1   H4B15147   4.721   2.742  12.705  0.4496 -0.2105  0.1623
  121CHL1    C515148   4.601   2.698  12.878 -0.6907  0.5162 -0.3091
  121CHL1    C615149   4.685   2.763  12.961  0.4385 -0.1060  0.2134
  121CHL1    H615150   4.778   2.805  12.918  0.5813  0.6615  1.2497
  121CHL1    C715151   4.656   2.772  13.108  0.3080 -0.0558 -0.4381
  121CHL1   H7A15152   4.752   2.783  13.163 -0.5451 -0.2496  1.1130
  121CHL1   H7B15153   4.614   2.872  13.132 -1.0826 -0.7135 -0.0586
  121CHL1    C815154   4.557   2.660  13.164 -0.1202  0.0236 -0.0710
  121CHL1    H815155   4.602   2.559  13.154  0.3632  0.3683 -1.7570
  121CHL1   C1415156   4.523   2.690  13.313 -0.0007 -0.2876  0.5167
  121CHL1   H1415157   4.465   2.783  13.295  1.1306  0.1247 -1.2141
  121CHL1   C1515158   4.631   2.721  13.415  0.8920 -0.3982  0.5640
  121CHL1  H15A15159   4.705   2.641  13.396 -1.0767 -2.2355  0.1951
  121CHL1  H15B15160   4.684   2.818  13.406  1.4842 -0.4636  2.9242
  121CHL1   C1615161   4.553   2.714  13.540 -0.6278 -0.1049  0.0664
  121CHL1  H16A15162   4.607   2.639  13.602 -1.2093  0.6107  1.4738
  121CHL1  H16B15163   4.558   2.813  13.589  0.2640  0.0165 -0.2565
  121CHL1   C1715164   4.413   2.654  13.516 -0.2154  0.7755 -1.2178
  121CHL1   H1715165   4.343   2.740  13.509 -0.9930  0.3507  0.8086
  121CHL1   C1315166   4.429   2.593  13.372  0.7221 -0.5076 -1.4384
  121CHL1   C1815167   4.491   2.450  13.386 -0.3253  0.0150  0.3507
  121CHL1  H18A15168   4.520   2.404  13.289 -0.1931  1.1045 -0.1374
  121CHL1  H18B15169   4.586   2.457  13.444  0.3372  1.2551 -0.8254
  121CHL1  H18C15170   4.418   2.386  13.441  1.4050 -1.7700  0.7003
  121CHL1   C1215171   4.302   2.587  13.285  0.7202 -0.0330 -0.1978
  121CHL1  H12A15172   4.224   2.518  13.322  2.3184 -0.6474  2.2408
  121CHL1  H12B15173   4.257   2.687  13.306  2.3702  0.9330 -1.0206
  121CHL1   C1115174   4.321   2.556  13.135 -0.1940 -0.2404  0.3186
  121CHL1  H11A15175   4.369   2.457  13.121 -0.1435 -0.1622 -0.0571
  121CHL1  H11B15176   4.226   2.555  13.078  0.3480 -1.8876 -0.6347
  121CHL1    C915177   4.426   2.653  13.076 -0.1112 -0.0546 -0.1702
  121CHL1    H915178   4.390   2.758  13.071  1.3571  0.5016  0.2765
  121CHL1   C1015179   4.467   2.631  12.925  0.0427 -0.7041 -0.8513
  121CHL1   C1915180   4.499   2.482  12.906 -0.2753  0.3749 -0.3544
  121CHL1  H19A15181   4.564   2.454  12.992  1.8946 -0.9565 -2.2978
  121CHL1  H19B15182   4.408   2.419  12.916 -1.0141  1.2524 -1.3234
  121CHL1  H19C15183   4.533   2.447  12.806 -1.3615 -0.2301 -0.5205
  121CHL1    C115184   4.344   2.665  12.832  0.0156  0.5705 -1.0584
  121CHL1   H1A15185   4.268   2.587  12.853  1.2299 -0.5849 -0.7935
  121CHL1   H1B15186   4.301   2.764  12.859 -1.0620  0.1071 -1.0468
  121CHL1    C215187   4.382   2.673  12.687 -0.1217  0.3111 -0.7208
  121CHL1   H2A15188   4.290   2.708  12.635 -0.8962  1.3140  1.2356
  121CHL1   H2B15189   4.388   2.566  12.660  0.6923 -0.0871  0.9300
  121CHL1   C2015190   4.348   2.569  13.629 -0.0103  0.3053 -0.2942
  121CHL1   H2015191   4.401   2.473  13.648 -0.1457  0.2188 -0.3478
  121CHL1   C2115192   4.206   2.526  13.585 -0.6972  0.6302 -0.7266
  121CHL1  H21A15193   4.143   2.612  13.552  0.2280  0.6663 -2.5501
  121CHL1  H21B15194   4.159   2.472  13.670  3.6791  0.6430  2.0077
  121CHL1  H21C15195   4.218   2.449  13.506  0.5416 -0.4391  0.4587
  121CHL1   C2215196   4.339   2.662  13.753 -0.4572  0.3535  0.3493
  121CHL1  H22A15197   4.417   2.739  13.773 -2.1119  1.8229  1.4669
  121CHL1  H22B15198   4.249   2.727  13.745  0.5928  1.7350 -0.8907
  121CHL1   C2315199   4.320   2.588  13.890  0.4310 -0.9056  0.4477
  121CHL1  H23A15200   4.238   2.514  13.890 -1.0357  0.5962 -1.2786
  121CHL1  H23B15201   4.415   2.541  13.923  1.4833  1.2737  0.7235
  121CHL1   C2415202   4.292   2.705  13.985  0.3822  0.0052 -0.4663
  121CHL1  H24A15203   4.367   2.786  13.978  1.7997 -0.5969  4.0976
  121CHL1  H24B15204   4.198   2.761  13.969 -0.7286 -1.7494 -0.4030
  121CHL1   C2515205   4.294   2.653  14.131 -1.0136  0.2693 -0.0013
  121CHL1   H2515206   4.394   2.607  14.144 -0.7572  1.4311  2.8799
  121CHL1   C2615207   4.300   2.777  14.226 -0.2594 -0.2340  0.0931
  121CHL1  H26A15208   4.394   2.835  14.215 -1.0485  1.2120  0.6522
  121CHL1  H26B15209   4.221   2.852  14.205 -0.1873 -0.0246  0.5455
  121CHL1  H26C15210   4.284   2.740  14.330  0.1521 -1.0859 -0.1406
  121CHL1   C2715211   4.185   2.558  14.172  0.0578 -0.4817 -0.1071
  121CHL1  H27A15212   4.087   2.608  14.173 -0.1595 -0.8091 -2.1249
  121CHL1  H27B15213   4.181   2.464  14.112  1.3131 -0.8075  0.2792
  121CHL1  H27C15214   4.193   2.520  14.277  0.8335  2.1494  0.8639
  122CHL1    C315215   3.055   2.918  12.204  0.2447 -0.0741 -0.1613
  122CHL1    H315216   3.133   2.984  12.248  1.4893 -1.3786 -0.3400
  122CHL1    O315217   3.050   2.931  12.063 -0.3439 -0.4194  1.0899
  122CHL1   H3'15218   2.974   2.893  12.018  1.1843  0.3559 -2.4892
  122CHL1    C415219   3.091   2.776  12.248 -0.3818 -0.1581 -0.0447
  122CHL1   H4A15220   3.020   2.705  12.201  0.9798 -0.6153 -1.4927
  122CHL1   H4B15221   3.195   2.760  12.213  0.9611  2.0218  2.4879
  122CHL1    C515222   3.102   2.768  12.402 -0.0501  0.8498  0.4547
  122CHL1    C615223   3.210   2.728  12.462  0.0780  0.0228 -0.2230
  122CHL1    H615224   3.297   2.714  12.396 -1.0551  1.5348 -2.1526
  122CHL1    C715225   3.236   2.714  12.609 -0.5455 -0.6042  0.0246
  122CHL1   H7A15226   3.278   2.615  12.637 -0.2046 -0.3668  0.3692
  122CHL1   H7B15227   3.310   2.789  12.643 -0.3774  0.0355 -1.6559
  122CHL1    C815228   3.104   2.733  12.693  0.4301 -0.3719 -0.0130
  122CHL1    H815229   3.044   2.640  12.684 -1.9679  0.7389  2.9284
  122CHL1   C1415230   3.131   2.760  12.839 -0.3171 -0.0144  0.1534
  122CHL1   H1415231   3.185   2.856  12.826  0.7272 -0.7167 -0.8515
  122CHL1   C1515232   3.235   2.676  12.922  0.2004 -0.1118  0.3304
  122CHL1  H15A15233   3.211   2.570  12.895 -1.0056  0.6406 -1.8394
  122CHL1  H15B15234   3.334   2.704  12.881 -0.2800  0.9533 -0.1425
  122CHL1   C1615235   3.202   2.695  13.069  0.1890 -0.0651 -0.3887
  122CHL1  H16A15236   3.170   2.598  13.113  0.0428  0.1515 -0.0142
  122CHL1  H16B15237   3.294   2.735  13.115 -0.6108  2.8064 -1.1083
  122CHL1   C1715238   3.086   2.804  13.072  0.2979  0.0116  0.9125
  122CHL1   H1715239   3.142   2.900  13.072  1.2983 -0.5471 -0.1721
  122CHL1   C1315240   3.018   2.795  12.931 -0.4554 -0.2643 -0.1588
  122CHL1   C1815241   2.930   2.663  12.947 -0.4544 -0.1153  0.1670
  122CHL1  H18A15242   2.837   2.696  12.999 -0.1951  0.9219 -0.0210
  122CHL1  H18B15243   2.899   2.620  12.849 -0.2034 -1.3323  0.6112
  122CHL1  H18C15244   2.978   2.577  12.998 -1.1434 -1.5854 -1.5488
  122CHL1   C1215245   2.952   2.923  12.868 -0.6991  0.2559 -0.7257
  122CHL1  H12A15246   2.857   2.943  12.923  0.0008 -0.0481  0.6303
  122CHL1  H12B15247   3.017   3.013  12.868 -1.5570  0.8871 -0.2622
  122CHL1   C1115248   2.909   2.898  12.723 -0.1134 -0.1014 -0.7764
  122CHL1  H11A15249   2.828   2.822  12.727  0.9671 -1.2652  1.9206
  122CHL1  H11B15250   2.866   2.997  12.698 -0.9207 -0.4530 -0.7899
  122CHL1    C915251   3.023   2.848  12.629  0.1949  0.3182  0.7399
  122CHL1    H915252   3.094   2.934  12.629 -1.1526  1.4853 -0.3263
  122CHL1   C1015253   2.976   2.821  12.484 -0.4073 -0.4864 -0.2853
  122CHL1   C1915254   2.862   2.718  12.470  0.0453 -0.1549  0.1062
  122CHL1  H19A15255   2.898   2.616  12.492 -0.4581 -0.8321 -2.0136
  122CHL1  H19B15256   2.770   2.736  12.531  0.2362 -1.3787  0.7959
  122CHL1  H19C15257   2.829   2.720  12.365 -2.7282  0.6397  0.9044
  122CHL1    C115258   2.927   2.958  12.425 -0.4438  0.2858  0.1993
  122CHL1   H1A15259   2.828   2.983  12.469 -0.1928  0.1359  0.8727
  122CHL1   H1B15260   3.003   3.028  12.466 -0.0895  1.5442 -2.4427
  122CHL1    C215261   2.932   2.971  12.272 -0.0485 -1.0266 -0.1933
  122CHL1   H2A15262   2.923   3.074  12.230  1.9143 -0.7877 -0.1257
  122CHL1   H2B15263   2.846   2.909  12.239  0.4834 -1.4384 -0.8386
  122CHL1   C2015264   3.002   2.801  13.207  0.5222 -0.0979  0.4769
  122CHL1   H2015265   2.942   2.707  13.201 -1.2220  1.0312 -0.5648
  122CHL1   C2115266   2.886   2.908  13.196  0.2473  0.1286  0.0125
  122CHL1  H21A15267   2.911   3.003  13.145 -0.2632  1.2925  1.8338
  122CHL1  H21B15268   2.846   2.932  13.297  1.4821  0.4447  0.4557
  122CHL1  H21C15269   2.805   2.865  13.134 -1.7453  0.9584  1.9391
  122CHL1   C2215270   3.082   2.819  13.336 -0.4757 -0.3580 -0.3526
  122CHL1  H22A15271   3.169   2.751  13.354  0.0136  0.6969  1.6794
  122CHL1  H22B15272   3.139   2.914  13.343  1.0029 -1.2987  1.5435
  122CHL1   C2315273   3.001   2.790  13.464 -0.5942  0.4932 -0.5379
  122CHL1  H23A15274   2.940   2.883  13.470  1.1550  1.8667 -2.4920
  122CHL1  H23B15275   2.936   2.702  13.445  0.8089 -0.3602 -1.5716
  122CHL1   C2415276   3.090   2.763  13.587  0.4434 -1.3873  0.5153
  122CHL1  H24A15277   3.165   2.684  13.565  3.2621  0.7937  1.7582
  122CHL1  H24B15278   3.155   2.846  13.621 -1.2835 -0.4014  1.5617
  122CHL1   C2515279   3.014   2.729  13.713 -0.4606  0.2037 -0.1358
  122CHL1   H2515280   2.942   2.648  13.688 -0.1018  0.2636 -1.4097
  122CHL1   C2615281   3.118   2.694  13.819  0.2052  0.4243 -0.1335
  122CHL1  H26A15282   3.063   2.679  13.915  0.1856 -0.9173 -0.3402
  122CHL1  H26B15283   3.186   2.608  13.803 -0.1421 -1.0485  4.7048
  122CHL1  H26C15284   3.179   2.784  13.840  1.4012 -0.7777  1.9721
  122CHL1   C2715285   2.924   2.845  13.764 -0.1176 -0.1663  0.0665
  122CHL1  H27A15286   2.853   2.816  13.844 -0.1842  3.1210  1.3529
  122CHL1  H27B15287   2.991   2.922  13.809 -1.1532  0.7271  0.1105
  122CHL1  H27C15288   2.870   2.886  13.676  1.5407 -0.9810 -1.4019
  123CHL1    C315289   5.624   2.451  12.199  0.0718 -0.6402  0.1812
  123CHL1    H315290   5.680   2.356  12.195 -0.7520 -1.1149 -0.2131
  123CHL1    O315291   5.582   2.485  12.069 -0.6014  0.1653  0.0163
  123CHL1   H3'15292   5.507   2.543  12.087  0.2443  0.8302  1.5090
  123CHL1    C415293   5.498   2.430  12.293 -0.2733  0.7041 -0.4290
  123CHL1   H4A15294   5.434   2.521  12.285 -1.5294  0.0688  1.5423
  123CHL1   H4B15295   5.443   2.345  12.247  1.0977  0.5321 -1.8276
  123CHL1    C515296   5.530   2.413  12.437  0.2775  0.3352  0.3115
  123CHL1    C615297   5.474   2.316  12.508  0.0120  0.0979  0.0833
  123CHL1    H615298   5.397   2.255  12.458  0.4327  0.6332 -1.2518
  123CHL1    C715299   5.482   2.295  12.655  0.1143 -0.5739 -0.0756
  123CHL1   H7A15300   5.383   2.285  12.706  1.3445 -1.0338  2.4023
  123CHL1   H7B15301   5.525   2.195  12.678  0.1857 -0.5146  0.0502
  123CHL1    C815302   5.551   2.417  12.723  0.2666  0.3333  0.5711
  123CHL1    H815303   5.467   2.491  12.718  0.5156  0.6676  1.2480
  123CHL1   C1415304   5.610   2.378  12.856  0.3128  0.0371 -0.0035
  123CHL1   H1415305   5.697   2.313  12.832  0.7012  0.0001  1.4197
  123CHL1   C1515306   5.525   2.295  12.948 -0.0898  0.1385 -0.6982
  123CHL1  H15A15307   5.424   2.342  12.951 -0.1406  0.0388 -0.8168
  123CHL1  H15B15308   5.505   2.192  12.911 -1.9120  0.0375  0.3991
  123CHL1   C1615309   5.581   2.312  13.087  0.2839  0.1534  0.3460
  123CHL1  H16A15310   5.507   2.349  13.160 -1.8498  0.0711 -1.6467
  123CHL1  H16B15311   5.620   2.224  13.142 -1.0925 -0.0104  1.0944
  123CHL1   C1715312   5.693   2.416  13.075 -0.1090 -0.3747 -1.1987
  123CHL1   H1715313   5.783   2.355  13.053  0.7935  0.2444  0.6379
  123CHL1   C1315314   5.664   2.491  12.946  0.3748  0.4078  0.3405
  123CHL1   C1815315   5.545   2.596  12.957  0.5630  0.4994 -0.4231
  123CHL1  H18A15316   5.514   2.630  12.855 -2.2749 -0.6631 -0.0694
  123CHL1  H18B15317   5.454   2.556  13.008 -0.9904  0.8503 -2.7476
  123CHL1  H18C15318   5.572   2.682  13.020  0.3455  0.0952  0.2361
  123CHL1   C1215319   5.772   2.558  12.864 -0.2404  0.0961 -0.5148
  123CHL1  H12A15320   5.807   2.651  12.915 -0.5733 -0.2664  0.3894
  123CHL1  H12B15321   5.863   2.494  12.858 -0.9800 -1.0843  0.4486
  123CHL1   C1115322   5.732   2.593  12.722 -0.7052 -0.6933  0.8925
  123CHL1  H11A15323   5.681   2.691  12.728  0.9640  0.5745 -2.6076
  123CHL1  H11B15324   5.829   2.622  12.677 -0.4735 -0.7584  1.3554
  123CHL1    C915325   5.667   2.478  12.636  0.1942  0.0803 -0.3959
  123CHL1    H915326   5.744   2.399  12.624 -0.6799 -0.5418 -2.3194
  123CHL1   C1015327   5.627   2.512  12.491 -0.6771  0.0434  0.1294
  123CHL1   C1915328   5.552   2.644  12.499 -0.1144 -0.6168 -0.2373
  123CHL1  H19A15329   5.525   2.689  12.401  0.7658  0.6103  0.0641
  123CHL1  H19B15330   5.472   2.651  12.575  0.6110 -0.8747  0.5680
  123CHL1  H19C15331   5.623   2.719  12.540 -0.3222 -0.4214 -0.2359
  123CHL1    C115332   5.758   2.521  12.397  0.3027  0.3007 -0.7338
  123CHL1   H1A15333   5.811   2.603  12.449  0.2672  0.3765 -0.8187
  123CHL1   H1B15334   5.808   2.422  12.394  0.5991  0.2608  2.2286
  123CHL1    C215335   5.719   2.558  12.255 -0.6689 -0.1770 -0.0157
  123CHL1   H2A15336   5.809   2.574  12.192 -0.1035 -0.0125  0.8162
  123CHL1   H2B15337   5.672   2.658  12.265  2.5868  1.5551 -0.6070
  123CHL1   C2015338   5.715   2.498  13.200 -0.4694  0.6222 -0.1552
  123CHL1   H2015339   5.625   2.549  13.242 -1.9210  0.7719 -3.1744
  123CHL1   C2115340   5.828   2.599  13.179 -0.1818  0.4736 -0.6485
  123CHL1  H21A15341   5.909   2.562  13.113  0.9880  1.4467  0.2058
  123CHL1  H21B15342   5.869   2.625  13.278 -2.5781  0.9507  0.3012
  123CHL1  H21C15343   5.792   2.691  13.127  1.3255  0.7191 -1.3120
  123CHL1   C2215344   5.760   2.395  13.312 -0.1669 -1.2639  0.3262
  123CHL1  H22A15345   5.720   2.291  13.314 -1.5500 -0.7434  1.6117
  123CHL1  H22B15346   5.870   2.381  13.313 -0.3633 -3.0393  0.9295
  123CHL1   C2315347   5.731   2.455  13.449 -0.0845  0.2343 -0.2885
  123CHL1  H23A15348   5.785   2.552  13.456  1.1115 -0.3186 -1.3021
  123CHL1  H23B15349   5.622   2.477  13.449 -0.1246  0.1721 -1.6691
  123CHL1   C2415350   5.766   2.352  13.566  0.0827 -0.7125  0.2690
  123CHL1  H24A15351   5.676   2.287  13.577 -1.3986  1.0642 -0.7630
  123CHL1  H24B15352   5.858   2.295  13.541  0.2575 -0.3052 -0.0379
  123CHL1   C2515353   5.788   2.434  13.689  0.0823  0.1732  0.2512
  123CHL1   H2515354   5.866   2.512  13.679  0.6738 -0.5910 -1.5257
  123CHL1   C2615355   5.660   2.500  13.744 -0.6059  0.1032 -0.5235
  123CHL1  H26A15356   5.679   2.557  13.837 -1.6932 -2.7600  1.6072
  123CHL1  H26B15357   5.602   2.566  13.676 -0.1401  0.5377 -0.5037
  123CHL1  H26C15358   5.583   2.425  13.773 -1.7502  1.1027 -0.9184
  123CHL1   C2715359   5.840   2.335  13.801  0.2525  0.0955  0.3052
  123CHL1  H27A15360   5.919   2.281  13.746 -1.6144 -1.9299 -0.5664
  123CHL1  H27B15361   5.883   2.383  13.892  0.9656  1.5865 -0.7911
  123CHL1  H27C15362   5.772   2.250  13.826  2.0582 -1.8861 -1.1701
  124CHL1    C315363   3.538   3.697  12.574  0.5856  0.2370  0.4902
  124CHL1    H315364   3.505   3.803  12.578 -3.3608 -0.8014 -0.1243
  124CHL1    O315365   3.575   3.683  12.438 -0.0257  0.0513 -0.7949
  124CHL1   H3'15366   3.494   3.658  12.393 -0.0972  0.9903 -1.2073
  124CHL1    C415367   3.657   3.672  12.667 -0.0886 -0.2875 -0.0271
  124CHL1   H4A15368   3.686   3.565  12.660  2.7502  0.4415 -0.4881
  124CHL1   H4B15369   3.745   3.734  12.640 -0.5292  0.0028 -0.8440
  124CHL1    C515370   3.608   3.697  12.801  0.8050 -0.3108 -0.3954
  124CHL1    C615371   3.672   3.784  12.879 -0.3177 -0.4823  0.2525
  124CHL1    H615372   3.754   3.849  12.844  0.9182 -0.5440  2.8104
  124CHL1    C715373   3.656   3.801  13.024  0.1914 -0.4425 -0.0718
  124CHL1   H7A15374   3.760   3.800  13.063 -0.0223 -0.1871  0.5176
  124CHL1   H7B15375   3.602   3.895  13.048 -0.8465 -1.3567  1.3327
  124CHL1    C815376   3.580   3.684  13.085 -0.2117  0.3001  0.9076
  124CHL1    H815377   3.645   3.594  13.078  2.4014  1.7785  3.7597
  124CHL1   C1415378   3.551   3.718  13.226  0.2608  0.7069 -0.4114
  124CHL1   H1415379   3.489   3.810  13.217 -0.1406  1.0677  4.0859
  124CHL1   C1515380   3.671   3.746  13.320  0.6220 -0.4307 -0.1123
  124CHL1  H15A15381   3.755   3.679  13.294  0.7266 -0.5766  0.5963
  124CHL1  H15B15382   3.695   3.854  13.310 -1.7429 -0.0191 -2.4212
  124CHL1   C1615383   3.614   3.711  13.458 -0.0174 -0.6782 -0.6678
  124CHL1  H16A15384   3.671   3.623  13.495  0.1366  0.6264  2.5470
  124CHL1  H16B15385   3.616   3.792  13.534  0.8815 -1.9212  0.6882
  124CHL1   C1715386   3.459   3.669  13.442 -0.1030 -0.5968 -0.8145
  124CHL1   H1715387   3.400   3.762  13.425 -2.1657 -1.9121 -1.2695
  124CHL1   C1315388   3.456   3.616  13.301 -0.1849  0.7816 -0.6919
  124CHL1   C1815389   3.529   3.483  13.301  1.0174  0.5147 -0.2338
  124CHL1  H18A15390   3.461   3.400  13.331 -0.0517  1.4819  0.0839
  124CHL1  H18B15391   3.565   3.463  13.197  2.4645  0.4633  0.2520
  124CHL1  H18C15392   3.615   3.461  13.368  1.1980 -2.1908 -1.2033
  124CHL1   C1215393   3.320   3.612  13.213 -0.4786  0.8491 -0.0516
  124CHL1  H12A15394   3.253   3.536  13.258 -1.2182  1.5766  0.1094
  124CHL1  H12B15395   3.265   3.708  13.228 -1.6725  0.5177 -2.0247
  124CHL1   C1115396   3.344   3.578  13.065 -0.0608  0.6651 -0.4931
  124CHL1  H11A15397   3.372   3.471  13.068 -1.5013  0.0902 -3.4929
  124CHL1  H11B15398   3.245   3.589  13.016 -0.8047 -1.9037  0.2914
  124CHL1    C915399   3.455   3.658  12.991  0.0340  0.3866  0.0797
  124CHL1    H915400   3.402   3.752  12.966  0.3122  1.0083  1.7342
  124CHL1   C1015401   3.492   3.605  12.850  0.2553  0.1927  0.1912
  124CHL1   C1915402   3.537   3.459  12.866  0.0853  0.4330  0.3596
  124CHL1  H19A15403   3.476   3.387  12.924  1.8333 -1.5509 -0.1370
  124CHL1  H19B15404   3.558   3.416  12.766 -0.7236 -0.6986  0.6586
  124CHL1  H19C15405   3.635   3.450  12.917  0.4825 -0.5174 -0.5273
  124CHL1    C115406   3.378   3.623  12.748 -0.2353 -0.2822 -0.3628
  124CHL1   H1A15407   3.300   3.558  12.793 -0.9632  0.8694  0.0989
  124CHL1   H1B15408   3.348   3.730  12.748  1.4154  0.2281 -1.8529
  124CHL1    C215409   3.420   3.604  12.603  0.4537  0.2590  0.4685
  124CHL1   H2A15410   3.333   3.623  12.537  1.4660 -1.1355 -1.3593
  124CHL1   H2B15411   3.438   3.498  12.576 -0.2181  0.5154 -1.1587
  124CHL1   C2015412   3.393   3.588  13.554 -0.1942 -0.0931 -0.2686
  124CHL1   H2015413   3.414   3.479  13.548  0.1549 -0.0618  0.3727
  124CHL1   C2115414   3.241   3.599  13.539 -0.2453 -0.4401  0.0471
  124CHL1  H21A15415   3.211   3.706  13.531 -0.2302 -0.2574  1.9485
  124CHL1  H21B15416   3.184   3.552  13.622  1.9547 -1.9025  0.8393
  124CHL1  H21C15417   3.210   3.552  13.444  1.0295 -2.0294  0.3730
  124CHL1   C2215418   3.441   3.634  13.692 -0.0171 -0.2168 -0.2274
  124CHL1  H22A15419   3.548   3.608  13.712  0.5777  1.7668 -0.6309
  124CHL1  H22B15420   3.425   3.741  13.715 -1.5240 -0.1439 -1.4530
  124CHL1   C2315421   3.376   3.559  13.810  0.6297  0.1795 -1.1821
  124CHL1  H23A15422   3.277   3.607  13.825  1.2881  1.1316  0.4056
  124CHL1  H23B15423   3.367   3.450  13.791 -1.0942  0.6690 -3.5258
  124CHL1   C2415424   3.444   3.585  13.947  0.5559 -0.0427  0.6476
  124CHL1  H24A15425   3.545   3.537  13.944  0.8678  0.5089  1.7288
  124CHL1  H24B15426   3.457   3.695  13.954 -1.1158  0.2043  0.0918
  124CHL1   C2515427   3.377   3.526  14.068  0.4551 -0.1208  0.0072
  124CHL1   H2515428   3.425   3.563  14.160  1.3349  1.5621 -1.0783
  124CHL1   C2615429   3.229   3.557  14.079 -0.0978  0.0151  0.2309
  124CHL1  H26A15430   3.193   3.528  14.180  0.3104 -2.0325 -0.1648
  124CHL1  H26B15431   3.219   3.668  14.074 -0.1762 -0.0352 -0.9809
  124CHL1  H26C15432   3.160   3.508  14.007 -0.5742  2.6735 -1.2735
  124CHL1   C2715433   3.398   3.376  14.068  0.8475 -0.0385  0.9551
  124CHL1  H27A15434   3.358   3.331  13.974  2.2746  2.3367 -0.8877
  124CHL1  H27B15435   3.503   3.341  14.064  0.4604 -1.1259 -1.2510
  124CHL1  H27C15436   3.359   3.327  14.160  1.9263 -1.2900  0.7861
  125CHL1    C315437   4.065   3.768  12.809  0.4187  0.3692  0.1046
  125CHL1    H315438   3.962   3.751  12.848 -0.4780 -0.2682 -2.3591
  125CHL1    O315439   4.054   3.775  12.666 -0.0993 -0.3794  0.1681
  125CHL1   H3'15440   4.132   3.821  12.635 -0.7264  0.5312 -0.1169
  125CHL1    C415441   4.117   3.897  12.867  0.5024 -0.3951 -0.2830
  125CHL1   H4A15442   4.225   3.893  12.840  1.1317 -1.4412  2.0905
  125CHL1   H4B15443   4.062   3.986  12.830 -0.6793 -0.2827  1.5809
  125CHL1    C515444   4.109   3.892  13.021 -0.1113 -0.4300 -0.9559
  125CHL1    C615445   4.031   3.982  13.091 -0.6676 -0.1305 -0.1914
  125CHL1    H615446   3.974   4.052  13.029 -0.7227  0.5398  0.6066
  125CHL1    C715447   4.010   3.981  13.238  0.2853 -0.0343 -0.2072
  125CHL1   H7A15448   4.020   4.079  13.288  1.2226  0.2146 -0.8585
  125CHL1   H7B15449   3.904   3.946  13.245  0.2935  0.1919  1.2878
  125CHL1    C815450   4.105   3.872  13.310 -0.3276 -0.0829  0.4038
  125CHL1    H815451   4.205   3.919  13.320 -0.7980  0.6380  2.2130
  125CHL1   C1415452   4.059   3.833  13.449 -0.2163 -0.4849 -0.2827
  125CHL1   H1415453   3.968   3.770  13.438 -1.0945  0.5167  0.8868
  125CHL1   C1515454   4.004   3.945  13.543 -0.6411 -1.0536  0.6563
  125CHL1  H15A15455   4.077   4.029  13.545  0.2721 -1.8332  1.2600
  125CHL1  H15B15456   3.906   3.977  13.501 -0.0869  0.7408  0.6036
  125CHL1   C1615457   3.998   3.869  13.683  0.3911  0.7072 -0.2249
  125CHL1  H16A15458   4.021   3.932  13.772 -0.7589  0.7773  0.0495
  125CHL1  H16B15459   3.891   3.840  13.698  0.6395 -1.0473 -1.5835
  125CHL1   C1715460   4.083   3.738  13.673  0.1585  0.2602 -0.4346
  125CHL1   H1715461   4.002   3.662  13.663  0.6399 -0.3698  0.3651
  125CHL1   C1315462   4.149   3.740  13.528  0.7218 -0.7621 -0.0555
  125CHL1   C1815463   4.286   3.806  13.548  0.0057 -0.9409 -0.3130
  125CHL1  H18A15464   4.339   3.819  13.451 -0.0623  0.7937 -0.1567
  125CHL1  H18B15465   4.270   3.911  13.580 -0.6106 -0.4404 -2.0995
  125CHL1  H18C15466   4.355   3.738  13.603  0.5881 -0.4944 -0.4730
  125CHL1   C1215467   4.151   3.609  13.449  0.0760 -0.2569  0.1367
  125CHL1  H12A15468   4.215   3.531  13.497  1.3446 -1.7794 -3.6692
  125CHL1  H12B15469   4.046   3.573  13.458  0.3949 -0.7805  2.7024
  125CHL1   C1115470   4.200   3.635  13.301 -0.4849 -0.1209  0.2045
  125CHL1  H11A15471   4.309   3.652  13.310 -0.5383  0.0429  0.5489
  125CHL1  H11B15472   4.173   3.540  13.249 -1.8919  1.3438 -1.9152
  125CHL1    C915473   4.128   3.745  13.227  0.7376  0.0487  0.3253
  125CHL1    H915474   4.022   3.713  13.217 -0.2846  2.7421  1.5524
  125CHL1   C1015475   4.174   3.771  13.083 -0.3268 -0.0628  0.5072
  125CHL1   C1915476   4.331   3.813  13.072  0.4796  0.5551  0.5638
  125CHL1  H19A15477   4.385   3.722  13.108  1.0833  0.4586 -0.5560
  125CHL1  H19B15478   4.370   3.832  12.970  1.0797  2.3001  1.0989
  125CHL1  H19C15479   4.353   3.894  13.144  3.0069  0.2074  0.2539
  125CHL1    C115480   4.159   3.644  13.000  0.5770  0.2882 -0.1703
  125CHL1   H1A15481   4.238   3.570  13.026  0.1697 -0.4921 -1.0853
  125CHL1   H1B15482   4.062   3.605  13.038 -0.8609  2.3383 -1.5398
  125CHL1    C215483   4.159   3.650  12.847  0.5795 -0.0708  0.1515
  125CHL1   H2A15484   4.124   3.554  12.805  0.6961  0.1122 -0.3657
  125CHL1   H2B15485   4.255   3.677  12.797  1.1725  3.2981  2.6999
  125CHL1   C2015486   4.166   3.702  13.805  0.2998 -0.2017  0.2347
  125CHL1   H2015487   4.250   3.771  13.823 -0.4273  1.7376 -3.0606
  125CHL1   C2115488   4.219   3.554  13.784 -0.7419  0.3652  0.0874
  125CHL1  H21A15489   4.302   3.548  13.710  1.4681  0.1986  2.4376
  125CHL1  H21B15490   4.140   3.478  13.770  1.2119 -1.3764 -2.2940
  125CHL1  H21C15491   4.266   3.534  13.883  1.5665  1.6445 -0.6718
  125CHL1   C2215492   4.076   3.696  13.926 -0.3900 -0.7312  0.3665
  125CHL1  H22A15493   4.025   3.794  13.936  1.6725  0.4332  0.1239
  125CHL1  H22B15494   3.995   3.626  13.896 -2.3861  2.7332 -3.4323
  125CHL1   C2315495   4.136   3.663  14.059  0.2938 -0.1847 -0.4293
  125CHL1  H23A15496   4.185   3.563  14.052  0.3439 -0.0755 -2.1689
  125CHL1  H23B15497   4.215   3.739  14.078 -0.3740  0.1925  1.0148
  125CHL1   C2415498   4.025   3.662  14.170 -0.3324 -0.5581 -0.0861
  125CHL1  H24A15499   3.976   3.762  14.174 -0.8455 -0.7437 -1.1386
  125CHL1  H24B15500   3.944   3.602  14.123 -1.3584  0.2536  0.5815
  125CHL1   C2515501   4.075   3.601  14.301  0.5946 -0.1532 -0.1060
  125CHL1   H2515502   4.111   3.497  14.285  0.4434 -0.2110 -0.0683
  125CHL1   C2615503   4.183   3.689  14.369  0.1485  0.1253  0.1582
  125CHL1  H26A15504   4.150   3.791  14.398 -1.0921 -0.4613  0.8925
  125CHL1  H26B15505   4.228   3.637  14.457  2.1186  0.3596 -0.6526
  125CHL1  H26C15506   4.263   3.698  14.292  0.7895 -2.2361  0.4590
  125CHL1   C2715507   3.953   3.590  14.394 -0.0483  0.0396  0.3670
  125CHL1  H27A15508   3.881   3.675  14.390 -0.4691  0.0496  4.3181
  125CHL1  H27B15509   3.885   3.510  14.359  0.3888  0.3389 -1.2478
  125CHL1  H27C15510   3.993   3.563  14.494 -1.9621 -1.0153  0.8919
  126CHL1    C315511   1.707   3.778  12.403 -0.0269  0.5311  0.2417
  126CHL1    H315512   1.741   3.883  12.396 -0.3549  0.6731  0.7314
  126CHL1    O315513   1.712   3.733  12.273 -0.0384 -0.7687  0.2937
  126CHL1   H3'15514   1.655   3.786  12.217  0.1318  0.1614  0.9789
  126CHL1    C415515   1.813   3.695  12.479 -0.4128 -0.0617  0.3422
  126CHL1   H4A15516   1.775   3.592  12.463 -0.9722  0.4793 -2.2317
  126CHL1   H4B15517   1.906   3.713  12.420 -0.6929 -2.1102 -0.8356
  126CHL1    C515518   1.818   3.737  12.625  0.2885  0.9603  0.1583
  126CHL1    C615519   1.938   3.761  12.683  0.0696 -0.3457 -0.2147
  126CHL1    H615520   2.032   3.755  12.627 -0.1522  0.0174 -0.6372
  126CHL1    C715521   1.956   3.793  12.831  0.1136 -0.9108 -0.3196
  126CHL1   H7A15522   2.053   3.756  12.871  0.2387  0.9699  1.2482
  126CHL1   H7B15523   1.970   3.903  12.832  0.8354 -0.9353 -2.7220
  126CHL1    C815524   1.828   3.753  12.912 -0.0958 -0.3407  0.3326
  126CHL1    H815525   1.814   3.643  12.918 -1.2094 -0.1903  0.7504
  126CHL1   C1415526   1.845   3.817  13.050 -0.9138  0.1427 -0.3016
  126CHL1   H1415527   1.870   3.924  13.033  1.9818 -0.0840  1.6539
  126CHL1   C1515528   1.960   3.765  13.137 -0.1136  0.8896  0.3086
  126CHL1  H15A15529   1.959   3.655  13.154  2.8018  1.1950  3.7158
  126CHL1  H15B15530   2.063   3.796  13.106  0.3102 -0.3898  0.3936
  126CHL1   C1615531   1.920   3.826  13.270  0.3278 -0.1440  0.4462
  126CHL1  H16A15532   1.920   3.741  13.341  0.3796 -1.9381 -1.5884
  126CHL1  H16B15533   1.990   3.903  13.311 -0.4625  1.2946 -0.7819
  126CHL1   C1715534   1.768   3.873  13.267 -0.4071 -0.3396  0.0571
  126CHL1   H1715535   1.793   3.981  13.258  4.2102 -1.2069 -0.2651
  126CHL1   C1315536   1.720   3.809  13.135 -0.5193 -0.0553 -0.1731
  126CHL1   C1815537   1.687   3.657  13.158  0.7685 -0.3478 -0.0580
  126CHL1  H18A15538   1.766   3.604  13.216 -0.3870 -1.0825  0.8890
  126CHL1  H18B15539   1.598   3.650  13.224  0.3809  1.8302 -0.2795
  126CHL1  H18C15540   1.669   3.601  13.064 -0.3102 -0.1997  0.0419
  126CHL1   C1215541   1.596   3.871  13.061  0.4681  0.0073 -0.5446
  126CHL1  H12A15542   1.497   3.868  13.112 -0.2982  0.6209 -1.9567
  126CHL1  H12B15543   1.622   3.978  13.045  1.7671  0.1236  1.7577
  126CHL1   C1115544   1.570   3.791  12.929 -0.3989  0.3679 -0.0756
  126CHL1  H11A15545   1.537   3.689  12.957 -0.6808  0.1400 -1.1843
  126CHL1  H11B15546   1.486   3.838  12.873 -2.3125 -1.8364  0.7672
  126CHL1    C915547   1.699   3.801  12.840  0.9666  0.1431 -0.1579
  126CHL1    H915548   1.717   3.910  12.827 -1.3064  0.6833  0.7881
  126CHL1   C1015549   1.682   3.736  12.698  0.4871 -0.4326  0.0804
  126CHL1   C1915550   1.628   3.589  12.702 -0.2183 -0.8244  0.2763
  126CHL1  H19A15551   1.619   3.542  12.602  1.5980 -0.2965 -0.1861
  126CHL1  H19B15552   1.711   3.538  12.755  0.8483  0.6626  0.0967
  126CHL1  H19C15553   1.535   3.570  12.759 -1.1594  3.1638  0.3315
  126CHL1    C115554   1.584   3.825  12.613 -0.1539  0.9353 -1.0725
  126CHL1   H1A15555   1.490   3.806  12.669  0.3183 -0.3030 -0.6567
  126CHL1   H1B15556   1.608   3.933  12.626 -0.1664  0.8056  0.0928
  126CHL1    C215557   1.570   3.779  12.469  0.7145  0.3360 -0.3041
  126CHL1   H2A15558   1.524   3.857  12.404  3.5900  1.1143 -1.5682
  126CHL1   H2B15559   1.521   3.682  12.447  0.7028  0.2011  0.3136
  126CHL1   C2015560   1.691   3.856  13.395 -0.2752  0.5186 -0.6049
  126CHL1   H2015561   1.683   3.752  13.433  1.1212  1.2489  1.9126
  126CHL1   C2115562   1.547   3.911  13.375  0.0773  0.4476 -0.1482
  126CHL1  H21A15563   1.503   3.925  13.476 -1.3147  1.9563 -0.9147
  126CHL1  H21B15564   1.489   3.829  13.328  1.2415 -0.0204 -0.8028
  126CHL1  H21C15565   1.552   4.000  13.309  0.8179  1.2138  0.9090
  126CHL1   C2215566   1.760   3.921  13.517  0.5218 -0.1743  0.0899
  126CHL1  H22A15567   1.867   3.942  13.500  0.8338 -1.6453  0.0638
  126CHL1  H22B15568   1.707   4.017  13.538  0.6000 -0.2120  0.4760
  126CHL1   C2315569   1.762   3.827  13.637  0.7220  0.3804 -0.0568
  126CHL1  H23A15570   1.659   3.790  13.659  0.1816  2.4028  1.0747
  126CHL1  H23B15571   1.820   3.739  13.602  0.3790  0.7632 -1.6859
  126CHL1   C2415572   1.795   3.880  13.777 -0.2642 -0.1470 -0.4234
  126CHL1  H24A15573   1.896   3.926  13.776 -0.4208  0.1973 -1.2057
  126CHL1  H24B15574   1.726   3.961  13.810 -1.5022 -1.7723  1.1895
  126CHL1   C2515575   1.796   3.779  13.905  0.2036  0.2932  0.2513
  126CHL1   H2515576   1.695   3.735  13.914  0.5272 -0.2524  1.3322
  126CHL1   C2615577   1.892   3.665  13.891  0.7637 -0.0032 -0.4631
  126CHL1  H26A15578   1.995   3.705  13.878  1.2166 -1.3361 -1.2241
  126CHL1  H26B15579   1.898   3.598  13.979  0.0683  2.5297  1.6462
  126CHL1  H26C15580   1.868   3.610  13.798  2.4871 -1.4640 -0.1092
  126CHL1   C2715581   1.832   3.860  14.028 -0.2309  0.0270 -0.3897
  126CHL1  H27A15582   1.755   3.933  14.062  0.1566  1.1410 -1.8140
  126CHL1  H27B15583   1.837   3.790  14.115  0.4297  0.2756 -0.2221
  126CHL1  H27C15584   1.928   3.914  14.025 -0.8311  1.0615 -1.4414
  127CHL1    C315585   2.483   4.620  12.474 -0.4294  0.4373 -0.5170
  127CHL1    H315586   2.451   4.515  12.487  0.3232  0.1314 -1.0846
  127CHL1    O315587   2.440   4.660  12.343 -0.1490 -0.3704  0.0253
  127CHL1   H3'15588   2.486   4.743  12.332 -1.6583  0.9145  2.6307
  127CHL1    C415589   2.416   4.711  12.581  0.2102 -0.1317  0.2493
  127CHL1   H4A15590   2.443   4.816  12.555  2.4661 -0.5204  0.7496
  127CHL1   H4B15591   2.308   4.689  12.571  0.3951 -0.5622 -0.9685
  127CHL1    C515592   2.471   4.677  12.716 -0.6810  0.0030 -0.2118
  127CHL1    C615593   2.391   4.652  12.819  0.4289  0.6894 -0.1011
  127CHL1    H615594   2.284   4.656  12.794  0.0207  0.2675  1.4860
  127CHL1    C715595   2.431   4.612  12.953 -0.7976 -0.1057  0.2025
  127CHL1   H7A15596   2.369   4.664  13.030 -0.4694  1.1247 -0.3411
  127CHL1   H7B15597   2.420   4.504  12.978 -0.4715 -0.1335  0.2289
  127CHL1    C815598   2.581   4.655  12.986 -0.6726  0.3703  0.2422
  127CHL1    H815599   2.575   4.764  13.004 -0.8010  0.5546 -0.8804
  127CHL1   C1415600   2.641   4.583  13.114 -0.4271 -0.3056  0.3027
  127CHL1   H1415601   2.661   4.477  13.084 -0.8736  0.2213 -2.0116
  127CHL1   C1515602   2.564   4.580  13.248  0.2721 -0.5840  0.4561
  127CHL1  H15A15603   2.529   4.682  13.274 -0.1451 -1.0341  1.7168
  127CHL1  H15B15604   2.470   4.521  13.258  0.6066 -1.0189  1.0924
  127CHL1   C1615605   2.671   4.548  13.356  0.4240  0.1482  0.1104
  127CHL1  H16A15606   2.676   4.626  13.435  2.3180  1.5083 -1.2673
  127CHL1  H16B15607   2.648   4.453  13.409  1.9093 -0.9638 -1.1527
  127CHL1   C1715608   2.807   4.547  13.279 -1.5719  0.3785  0.2700
  127CHL1   H1715609   2.822   4.446  13.235  1.8178  0.8955 -0.0970
  127CHL1   C1315610   2.785   4.634  13.147 -0.3222  0.2748 -0.2980
  127CHL1   C1815611   2.793   4.789  13.188  0.0032  0.0743 -0.5717
  127CHL1  H18A15612   2.735   4.805  13.282  1.3722  0.7727  0.1826
  127CHL1  H18B15613   2.898   4.820  13.207 -0.3876  0.3523  1.3644
  127CHL1  H18C15614   2.762   4.857  13.107 -1.4817 -0.5812 -0.5958
  127CHL1   C1215615   2.878   4.614  13.029 -0.2668  0.0779 -0.0677
  127CHL1  H12A15616   2.978   4.653  13.058  0.1911 -1.1671  0.0550
  127CHL1  H12B15617   2.888   4.505  13.009 -0.9151  0.2497 -1.4506
  127CHL1   C1115618   2.815   4.677  12.902 -0.1198 -0.5878 -0.1125
  127CHL1  H11A15619   2.820   4.787  12.907  0.0155 -0.5474 -0.9299
  127CHL1  H11B15620   2.878   4.660  12.812 -1.2687  0.7629 -1.2074
  127CHL1    C915621   2.672   4.634  12.867  0.3844 -0.9837 -0.3377
  127CHL1    H915622   2.672   4.523  12.864 -0.7210 -1.1378  2.5834
  127CHL1   C1015623   2.625   4.690  12.731 -0.1862  0.5746  0.0335
  127CHL1   C1915624   2.673   4.833  12.711  0.1701  0.0093  0.5277
  127CHL1  H19A15625   2.605   4.882  12.638 -1.1678 -1.0338  1.0218
  127CHL1  H19B15626   2.655   4.894  12.802 -0.5298 -0.5513  0.7741
  127CHL1  H19C15627   2.780   4.828  12.680 -0.2190  0.3223 -0.9735
  127CHL1    C115628   2.695   4.604  12.623  0.5403 -0.0614  0.2531
  127CHL1   H1A15629   2.805   4.621  12.624  0.6333  0.5183 -3.7815
  127CHL1   H1B15630   2.676   4.496  12.642  0.8138 -0.0645  0.5201
  127CHL1    C215631   2.637   4.624  12.483  0.4056 -0.2401  0.4709
  127CHL1   H2A15632   2.683   4.553  12.411  2.4544  0.9463  0.5374
  127CHL1   H2B15633   2.666   4.723  12.442  0.6763 -0.9757 -1.2109
  127CHL1   C2015634   2.939   4.563  13.359 -0.9396 -0.9494 -0.2102
  127CHL1   H2015635   3.017   4.603  13.290  0.0566 -2.8579 -0.2491
  127CHL1   C2115636   2.987   4.420  13.402  0.3201 -0.4820 -0.1455
  127CHL1  H21A15637   2.911   4.373  13.468  0.2801  1.5299  1.3336
  127CHL1  H21B15638   3.087   4.421  13.451  2.0384 -1.2302 -3.3339
  127CHL1  H21C15639   3.003   4.360  13.309  0.0629  0.9081 -1.1157
  127CHL1   C2215640   2.939   4.660  13.473  0.3363 -0.0501 -0.0194
  127CHL1  H22A15641   2.877   4.747  13.441 -0.5388 -0.2314  1.1257
  127CHL1  H22B15642   2.878   4.619  13.556  0.2073 -0.2611 -0.2179
  127CHL1   C2315643   3.067   4.706  13.534 -0.1010 -0.1157 -0.3062
  127CHL1  H23A15644   3.114   4.619  13.584  2.3080  0.8681 -0.7415
  127CHL1  H23B15645   3.140   4.740  13.457  0.0380 -2.3979 -1.2598
  127CHL1   C2415646   3.052   4.827  13.635  0.0345  0.7194 -0.7736
  127CHL1  H24A15647   2.992   4.785  13.718  0.8927  1.7158  0.3937
  127CHL1  H24B15648   3.153   4.838  13.680  0.8211 -1.0473 -2.0227
  127CHL1   C2515649   2.990   4.962  13.578 -1.3012  0.2763  0.1588
  127CHL1   H2515650   2.892   4.937  13.531 -0.7247 -1.9349  0.0322
  127CHL1   C2615651   2.958   5.060  13.696  0.2801  0.9781  0.5465
  127CHL1  H26A15652   2.893   5.008  13.769  0.4484  0.1650  0.1314
  127CHL1  H26B15653   3.052   5.093  13.743  2.3471 -2.2892 -0.9534
  127CHL1  H26C15654   2.918   5.148  13.640 -0.0562  1.7911  2.0241
  127CHL1   C2715655   3.070   5.037  13.471 -0.2906 -0.4677 -0.4678
  127CHL1  H27A15656   3.014   5.131  13.451 -0.8427 -0.5043  0.7709
  127CHL1  H27B15657   3.169   5.064  13.514 -0.9174  0.5881  0.3686
  127CHL1  H27C15658   3.094   4.975  13.382 -1.2207 -2.0946  0.3837
  128CHL1    C315659   3.390   0.587  12.738  0.3619 -0.0961 -0.9284
  128CHL1    H315660   3.410   0.695  12.756 -0.6098  0.2802 -2.0048
  128CHL1    O315661   3.382   0.555  12.600 -0.2453  0.2141  0.1213
  128CHL1   H3'15662   3.326   0.620  12.557  0.2128 -0.2999 -1.3085
  128CHL1    C415663   3.499   0.511  12.818 -0.5907  0.2525 -0.5390
  128CHL1   H4A15664   3.477   0.404  12.794 -0.4697  0.0795  0.1080
  128CHL1   H4B15665   3.600   0.533  12.778  0.4028 -0.9370  1.1452
  128CHL1    C515666   3.509   0.551  12.967 -0.3376  0.4930 -0.0858
  128CHL1    C615667   3.618   0.603  13.029  0.7353  0.1253  0.4054
  128CHL1    H615668   3.706   0.608  12.963  0.1980 -2.0283 -0.5486
  128CHL1    C715669   3.625   0.637  13.178 -0.3749 -0.4108 -0.4463
  128CHL1   H7A15670   3.726   0.615  13.219 -0.2902 -1.9023 -1.3724
  128CHL1   H7B15671   3.622   0.748  13.176 -1.9371 -0.3943  1.0485
  128CHL1    C815672   3.514   0.571  13.263  0.1714  0.3403  0.5895
  128CHL1    H815673   3.534   0.461  13.263 -1.8329 -0.0625  1.4101
  128CHL1   C1415674   3.508   0.628  13.405  0.3952  0.2924 -0.0112
  128CHL1   H1415675   3.495   0.738  13.396  0.7164  0.5723  2.2159
  128CHL1   C1515676   3.634   0.615  13.489 -0.0639  0.8110  0.2280
  128CHL1  H15A15677   3.675   0.512  13.481  1.4939  1.5279 -1.7680
  128CHL1  H15B15678   3.708   0.686  13.447 -1.0316  0.7615 -1.6968
  128CHL1   C1615679   3.586   0.645  13.622  0.0776 -0.1899  0.2063
  128CHL1  H16A15680   3.618   0.557  13.682 -1.4073 -0.2433  0.9688
  128CHL1  H16B15681   3.627   0.738  13.667 -0.3826 -0.4362  1.1692
  128CHL1   C1715682   3.430   0.637  13.625  0.0863 -0.2943  0.2177
  128CHL1   H1715683   3.400   0.744  13.616  1.1362 -0.0573 -0.8110
  128CHL1   C1315684   3.397   0.573  13.493  0.1424 -0.2201  0.1571
  128CHL1   C1815685   3.401   0.420  13.512  0.0296  0.0377  0.3226
  128CHL1  H18A15686   3.500   0.387  13.549  0.1513  0.0702  0.0298
  128CHL1  H18B15687   3.323   0.377  13.578 -1.2342  1.0937 -0.4307
  128CHL1  H18C15688   3.390   0.380  13.409 -1.7711  2.1826 -0.4282
  128CHL1   C1215689   3.267   0.612  13.414  0.4019 -0.3075  0.8280
  128CHL1  H12A15690   3.171   0.589  13.466 -0.6284 -2.7009 -1.8828
  128CHL1  H12B15691   3.266   0.723  13.412 -2.8469 -0.1778 -3.4264
  128CHL1   C1115692   3.251   0.556  13.272  0.1239 -0.4906 -0.0095
  128CHL1  H11A15693   3.239   0.448  13.292  0.2958 -0.5701 -0.3281
  128CHL1  H11B15694   3.163   0.600  13.221  0.7179  1.0721  0.2373
  128CHL1    C915695   3.376   0.584  13.189 -0.2799  0.2011 -0.3024
  128CHL1    H915696   3.373   0.691  13.160  0.6342 -0.0216 -1.3041
  128CHL1   C1015697   3.379   0.528  13.047  0.4450 -0.2023  0.6784
  128CHL1   C1915698   3.365   0.375  13.050  0.2902  0.2323  0.3053
  128CHL1  H19A15699   3.447   0.335  13.113  0.4267  1.7180  1.0917
  128CHL1  H19B15700   3.273   0.340  13.102 -0.2886 -1.1113 -1.5011
  128CHL1  H19C15701   3.359   0.324  12.951 -0.7391  0.7603  0.0803
  128CHL1    C115702   3.256   0.579  12.967  0.1450  0.6225  0.3283
  128CHL1   H1A15703   3.165   0.532  13.011  0.0175  0.9420  0.4093
  128CHL1   H1B15704   3.244   0.690  12.974 -1.0786  0.4690  1.0638
  128CHL1    C215705   3.255   0.548  12.809 -0.2610  0.3762  0.4404
  128CHL1   H2A15706   3.171   0.605  12.765  0.3720  0.9411 -0.0526
  128CHL1   H2B15707   3.234   0.439  12.796  0.2515  0.3607 -0.3197
  128CHL1   C2015708   3.366   0.580  13.758 -0.3002  0.3772  0.3658
  128CHL1   H2015709   3.391   0.472  13.765  0.9103  0.3148 -3.0841
  128CHL1   C2115710   3.217   0.603  13.756  0.0475 -0.0275 -0.1311
  128CHL1  H21A15711   3.159   0.552  13.677 -2.2511 -1.1925  2.1481
  128CHL1  H21B15712   3.185   0.708  13.741 -1.0478 -0.3197  0.0716
  128CHL1  H21C15713   3.158   0.574  13.845 -0.8223 -0.9699 -0.9971
  128CHL1   C2215714   3.421   0.650  13.892  0.4350 -1.2589  0.7259
  128CHL1  H22A15715   3.531   0.668  13.885  0.2268 -0.2370 -0.4426
  128CHL1  H22B15716   3.376   0.751  13.880  0.7486 -1.0406  1.3533
  128CHL1   C2315717   3.382   0.593  14.023  0.0785  0.0645 -0.2897
  128CHL1  H23A15718   3.274   0.601  14.050 -0.6727 -2.6972 -2.0411
  128CHL1  H23B15719   3.386   0.482  14.016  1.3411  0.1614 -1.2681
  128CHL1   C2415720   3.471   0.627  14.143 -0.0494  0.0631  0.0159
  128CHL1  H24A15721   3.574   0.595  14.118 -1.0476 -1.7035 -2.2026
  128CHL1  H24B15722   3.476   0.738  14.149  1.4520 -0.0439  1.0248
  128CHL1   C2515723   3.434   0.581  14.278  0.4362  0.3949 -0.5983
  128CHL1   H2515724   3.407   0.473  14.279 -2.1242  0.8565  3.7251
  128CHL1   C2615725   3.551   0.615  14.373  0.5663 -0.4018  0.1046
  128CHL1  H26A15726   3.569   0.723  14.393  1.0471 -0.1237 -1.6929
  128CHL1  H26B15727   3.540   0.565  14.471 -0.8120  1.2842  0.8657
  128CHL1  H26C15728   3.644   0.578  14.324  2.3708  1.3665  1.9494
  128CHL1   C2715729   3.310   0.654  14.334 -0.7783  0.1122  0.1951
  128CHL1  H27A15730   3.214   0.620  14.289 -0.8128 -0.0421  0.3850
  128CHL1  H27B15731   3.297   0.626  14.441 -0.0744  1.2553  0.5927
  128CHL1  H27C15732   3.316   0.764  14.333 -3.1551  0.3267 -1.9347
  129CHL1    C315733   3.953   4.632  12.942 -0.2372  0.3328  0.4906
  129CHL1    H315734   3.866   4.563  12.943  0.8236 -1.0761 -0.0921
  129CHL1    O315735   3.953   4.700  12.822 -0.2046  0.4374 -0.5731
  129CHL1   H3'15736   4.030   4.757  12.830  1.6579 -1.8569 -1.0979
  129CHL1    C415737   3.956   4.726  13.060 -0.4245 -0.0851  0.5284
  129CHL1   H4A15738   4.048   4.784  13.041 -0.6631 -0.1207 -0.8461
  129CHL1   H4B15739   3.869   4.795  13.062  1.6189  2.7562 -1.0868
  129CHL1    C515740   3.979   4.675  13.200  0.1458  0.2630  0.1855
  129CHL1    C615741   3.890   4.694  13.300 -0.8137 -0.0155 -0.4575
  129CHL1    H615742   3.803   4.759  13.281  1.0178  2.4597 -0.7236
  129CHL1    C715743   3.897   4.635  13.440  0.7478 -0.3267  0.3823
  129CHL1   H7A15744   3.883   4.718  13.512 -1.3492 -1.3460  1.2191
  129CHL1   H7B15745   3.815   4.561  13.442  0.4365 -0.0060 -0.1702
  129CHL1    C815746   4.037   4.576  13.472  0.2152 -1.1937 -0.0943
  129CHL1    H815747   4.108   4.658  13.493  0.8048 -0.5296 -3.9616
  129CHL1   C1415748   4.032   4.482  13.598  0.4941 -0.4325 -0.1540
  129CHL1   H1415749   3.947   4.414  13.575 -0.5478  0.6337  0.4086
  129CHL1   C1515750   3.969   4.537  13.725 -0.1279 -0.6542 -0.4044
  129CHL1  H15A15751   4.014   4.636  13.745 -1.0730 -0.5147  1.1675
  129CHL1  H15B15752   3.861   4.557  13.709  0.0493  0.4434 -0.2965
  129CHL1   C1615753   4.019   4.436  13.836  0.3188 -0.7391  0.0164
  129CHL1  H16A15754   4.074   4.497  13.911 -0.2406 -0.9184  0.5754
  129CHL1  H16B15755   3.931   4.381  13.875 -1.8815  1.7377 -1.1486
  129CHL1   C1715756   4.109   4.332  13.763 -1.2754  0.4004 -0.0449
  129CHL1   H1715757   4.032   4.265  13.720 -0.3433  0.1274 -1.3267
  129CHL1   C1315758   4.161   4.409  13.637 -0.0863 -0.0209  0.5511
  129CHL1   C1815759   4.273   4.503  13.681  0.0375 -0.2952 -1.1597
  129CHL1  H18A15760   4.245   4.567  13.767  2.2681  1.3320 -1.5616
  129CHL1  H18B15761   4.363   4.446  13.714  1.0046  0.8587 -1.7022
  129CHL1  H18C15762   4.316   4.573  13.606  0.1281  0.9329 -0.0066
  129CHL1   C1215763   4.197   4.326  13.520 -0.4038  0.5828 -0.5268
  129CHL1  H12A15764   4.292   4.272  13.542 -1.3487  0.2079  3.3005
  129CHL1  H12B15765   4.120   4.248  13.500  1.0875 -0.9303 -0.6293
  129CHL1   C1115766   4.211   4.408  13.396 -0.0715 -0.6134  0.0818
  129CHL1  H11A15767   4.294   4.480  13.414  0.6524 -1.2684 -0.5484
  129CHL1  H11B15768   4.228   4.338  13.312  2.9597 -0.8341  0.7462
  129CHL1    C915769   4.088   4.492  13.361 -0.3371 -0.2554  0.4009
  129CHL1    H915770   4.007   4.417  13.344 -0.5329  0.3634 -1.7807
  129CHL1   C1015771   4.094   4.574  13.221 -0.5358  0.0597 -0.6182
  129CHL1   C1915772   4.226   4.654  13.226 -0.6892 -0.3974  0.0540
  129CHL1  H19A15773   4.310   4.583  13.209 -1.3945 -0.9826 -1.1832
  129CHL1  H19B15774   4.235   4.730  13.145 -0.1489 -0.9158 -0.3801
  129CHL1  H19C15775   4.248   4.700  13.324  2.1220 -0.4000 -0.4902
  129CHL1    C115776   4.084   4.483  13.105 -0.2325 -0.4300 -0.0408
  129CHL1   H1A15777   4.169   4.412  13.091 -0.9618 -1.6101  1.1878
  129CHL1   H1B15778   3.994   4.421  13.126  0.3034 -0.2124  3.5882
  129CHL1    C215779   4.081   4.544  12.965  0.3298  0.4902 -0.3241
  129CHL1   H2A15780   4.068   4.464  12.889  1.3260 -0.7247  0.7325
  129CHL1   H2B15781   4.178   4.595  12.945  0.5169  0.4430  0.4219
  129CHL1   C2015782   4.193   4.260  13.866  0.8221  0.0531 -0.1940
  129CHL1   H2015783   4.259   4.336  13.914 -0.7925  1.2535  0.2223
  129CHL1   C2115784   4.293   4.161  13.800 -0.2138 -0.4360 -0.3843
  129CHL1  H21A15785   4.223   4.092  13.748 -0.9683  1.0996 -1.4553
  129CHL1  H21B15786   4.362   4.120  13.878  0.5633  0.1257 -0.7660
  129CHL1  H21C15787   4.351   4.213  13.721  0.1729 -0.1541  0.0755
  129CHL1   C2215788   4.119   4.189  13.983  0.8001 -0.6620  0.0528
  129CHL1  H22A15789   4.030   4.248  14.012  0.8995  0.1585 -1.2288
  129CHL1  H22B15790   4.087   4.089  13.946  0.0572 -0.9573  1.4190
  129CHL1   C2315791   4.206   4.187  14.106 -0.0292 -0.3932  0.0721
  129CHL1  H23A15792   4.306   4.149  14.075  0.3636  0.0676  0.7411
  129CHL1  H23B15793   4.219   4.291  14.144  0.5739 -0.5087  0.1954
  129CHL1   C2415794   4.157   4.088  14.214 -0.1042  0.6637  0.4596
  129CHL1  H24A15795   4.051   4.101  14.243 -0.1729  0.0676  0.4914
  129CHL1  H24B15796   4.165   3.990  14.162 -0.8155  0.8249  0.0420
  129CHL1   C2515797   4.242   4.093  14.346 -0.4682  0.4504  0.3228
  129CHL1   H2515798   4.200   4.008  14.404 -0.5561 -0.9080 -1.6301
  129CHL1   C2615799   4.389   4.062  14.323 -0.1561 -0.4407 -0.4423
  129CHL1  H26A15800   4.437   4.136  14.256  0.6878 -0.5468  0.0331
  129CHL1  H26B15801   4.441   4.047  14.420 -4.0529 -3.0034  1.5385
  129CHL1  H26C15802   4.401   3.964  14.271  0.5227 -0.0094 -1.1199
  129CHL1   C2715803   4.229   4.220  14.417  0.1581 -0.6291  0.9720
  129CHL1  H27A15804   4.291   4.295  14.364 -0.1637 -0.4713  0.8187
  129CHL1  H27B15805   4.123   4.252  14.419 -0.0579 -1.3232  1.6094
  129CHL1  H27C15806   4.270   4.197  14.518  0.2403 -2.1588  0.6175
  130CHL1    C315807   2.369   5.137  12.754  0.3365  0.3855 -0.1047
  130CHL1    H315808   2.270   5.186  12.751 -0.8847 -1.7128  2.0144
  130CHL1    O315809   2.404   5.092  12.620 -0.0410  0.1574 -0.5358
  130CHL1   H3'15810   2.463   5.160  12.587  0.4209 -0.2675 -0.5929
  130CHL1    C415811   2.470   5.241  12.804 -0.7405 -0.1997  0.0494
  130CHL1   H4A15812   2.576   5.206  12.799 -0.8246 -0.3002 -1.4656
  130CHL1   H4B15813   2.455   5.327  12.735  2.4312 -0.0879 -0.6739
  130CHL1    C515814   2.449   5.280  12.953 -0.0308  0.5823  0.2908
  130CHL1    C615815   2.434   5.409  12.998  0.0615 -0.4990 -0.3577
  130CHL1    H615816   2.431   5.489  12.922 -0.8661  0.3581  0.5455
  130CHL1    C715817   2.432   5.447  13.141  0.2674  0.0132  0.5476
  130CHL1   H7A15818   2.514   5.520  13.164  0.2583  0.9644 -2.1070
  130CHL1   H7B15819   2.336   5.498  13.165  1.3136  1.7799  1.2124
  130CHL1    C815820   2.449   5.324  13.235  0.1951  0.5658 -0.4872
  130CHL1    H815821   2.559   5.313  13.251  0.1994  0.1408 -0.8082
  130CHL1   C1415822   2.388   5.358  13.378 -0.1275  0.3464 -0.5390
  130CHL1   H1415823   2.277   5.370  13.373 -0.3076 -0.0568  1.7120
  130CHL1   C1515824   2.436   5.487  13.450 -0.1280  0.2681  0.0642
  130CHL1  H15A15825   2.546   5.489  13.466 -0.1161 -0.2044  0.0311
  130CHL1  H15B15826   2.408   5.575  13.387  0.0598  0.1047 -0.2542
  130CHL1   C1615827   2.364   5.474  13.581  0.4136 -0.6668 -0.4834
  130CHL1  H16A15828   2.434   5.497  13.663 -1.5518 -2.6255  1.9242
  130CHL1  H16B15829   2.269   5.531  13.594  0.6654  0.3649 -2.7111
  130CHL1   C1715830   2.337   5.322  13.606  0.7574  0.4467  0.2207
  130CHL1   H1715831   2.230   5.308  13.579  0.8824  2.0439 -1.3103
  130CHL1   C1315832   2.395   5.250  13.488 -0.3291 -0.0149 -0.3455
  130CHL1   C1815833   2.541   5.225  13.527  0.0168 -0.0536  0.5793
  130CHL1  H18A15834   2.596   5.183  13.440  0.2455 -1.2753  1.2872
  130CHL1  H18B15835   2.585   5.318  13.569 -2.1373  0.3155  2.1688
  130CHL1  H18C15836   2.545   5.155  13.613  0.6104 -0.5989  0.1157
  130CHL1   C1215837   2.319   5.131  13.434  0.4685 -0.2089  0.2453
  130CHL1  H12A15838   2.319   5.042  13.502  1.8342 -0.0493  0.4936
  130CHL1  H12B15839   2.214   5.152  13.407  0.7223 -2.9806 -3.8370
  130CHL1   C1115840   2.379   5.081  13.296 -0.3876  0.2900  0.0799
  130CHL1  H11A15841   2.475   5.029  13.315 -0.0869 -0.0263 -2.0409
  130CHL1  H11B15842   2.312   4.997  13.266  0.3251 -0.7107  1.2138
  130CHL1    C915843   2.383   5.195  13.193  0.3173  0.2154  1.3321
  130CHL1    H915844   2.276   5.217  13.170  0.1349 -2.2947 -0.6041
  130CHL1   C1015845   2.434   5.155  13.053 -1.1583 -0.2412 -0.1688
  130CHL1   C1915846   2.575   5.088  13.071  0.1998 -0.5234  0.3671
  130CHL1  H19A15847   2.624   5.047  12.980 -0.7148  0.8861 -0.7996
  130CHL1  H19B15848   2.643   5.146  13.138 -0.3927  1.6830 -0.8357
  130CHL1  H19C15849   2.554   4.996  13.129  0.2272 -0.2492  0.8226
  130CHL1    C115850   2.332   5.053  12.989 -0.3984  0.1076 -0.5131
  130CHL1   H1A15851   2.332   4.968  13.061 -2.4082  0.6875  0.2372
  130CHL1   H1B15852   2.231   5.099  12.991 -0.5858 -0.2773  2.4997
  130CHL1    C215853   2.363   5.014  12.842  0.6718 -0.0468 -0.2744
  130CHL1   H2A15854   2.285   4.946  12.800 -0.2375  0.4583  0.5785
  130CHL1   H2B15855   2.463   4.966  12.841  1.9439  2.4393 -0.2398
  130CHL1   C2015856   2.345   5.279  13.751 -0.3621  0.3976 -0.2070
  130CHL1   H2015857   2.450   5.300  13.779  0.0853 -0.9028 -0.8275
  130CHL1   C2115858   2.311   5.127  13.768  0.8441  0.6192  1.0851
  130CHL1  H21A15859   2.384   5.067  13.710  0.2585  0.0155  0.9510
  130CHL1  H21B15860   2.205   5.106  13.742  1.5081  0.6976 -2.0042
  130CHL1  H21C15861   2.321   5.091  13.873 -1.9567 -1.1422  0.8726
  130CHL1   C2215862   2.255   5.360  13.843  1.4962 -0.7759  0.3665
  130CHL1  H22A15863   2.276   5.469  13.834 -0.0144 -0.4726  0.3630
  130CHL1  H22B15864   2.152   5.347  13.804  1.3498  1.8108 -0.3284
  130CHL1   C2315865   2.236   5.309  13.986  0.0317  0.3477 -0.6198
  130CHL1  H23A15866   2.167   5.372  14.046  1.4613  0.2660  1.2032
  130CHL1  H23B15867   2.192   5.207  13.985 -0.3730  0.4415  1.5266
  130CHL1   C2415868   2.354   5.315  14.072 -0.5076  0.3258 -0.1239
  130CHL1  H24A15869   2.439   5.257  14.030 -0.9712 -1.2214  0.9885
  130CHL1  H24B15870   2.382   5.423  14.072 -2.8362  0.9939 -1.0529
  130CHL1   C2515871   2.342   5.298  14.223 -0.6482  0.9572  0.4515
  130CHL1   H2515872   2.276   5.374  14.270 -0.9877  0.2893  1.0755
  130CHL1   C2615873   2.295   5.154  14.260 -0.2819 -0.3314 -0.1944
  130CHL1  H26A15874   2.197   5.129  14.214 -0.2132 -3.1319  1.0168
  130CHL1  H26B15875   2.366   5.073  14.231 -0.8737 -0.0885 -2.5288
  130CHL1  H26C15876   2.287   5.147  14.371  0.3522 -1.8041 -0.2289
  130CHL1   C2715877   2.481   5.305  14.290 -0.1463 -0.0083 -0.7539
  130CHL1  H27A15878   2.479   5.269  14.396  0.2690  2.5106  0.1863
  130CHL1  H27B15879   2.546   5.236  14.232  2.1625  0.9470  0.5466
  130CHL1  H27C15880   2.524   5.407  14.293  2.2249 -0.9663  1.1232
  131CHL1    C315881   0.677   4.386  12.328  0.9799 -0.0782 -0.6147
  131CHL1    H315882   0.584   4.446  12.346  0.4531 -0.5046 -1.7790
  131CHL1    O315883   0.711   4.392  12.190 -0.4058 -0.3349  0.4054
  131CHL1   H3'15884   0.794   4.343  12.187  0.8363  1.7031 -0.5722
  131CHL1    C415885   0.793   4.442  12.412 -0.2400 -0.6324 -0.2312
  131CHL1   H4A15886   0.883   4.382  12.389 -0.5217 -0.1894 -2.7947
  131CHL1   H4B15887   0.809   4.548  12.381  0.8264  0.1862  2.7958
  131CHL1    C515888   0.755   4.442  12.560  0.1392  0.3968  0.2718
  131CHL1    C615889   0.754   4.546  12.641  0.0528 -0.0502 -0.0065
  131CHL1    H615890   0.783   4.643  12.597  2.2123 -0.1159  1.1385
  131CHL1    C715891   0.710   4.541  12.785 -0.1923  0.6605 -0.1313
  131CHL1   H7A15892   0.758   4.614  12.852 -1.3568  1.8687 -0.5683
  131CHL1   H7B15893   0.603   4.569  12.790 -0.7009 -0.7509 -1.8627
  131CHL1    C815894   0.715   4.396  12.854 -0.2722  0.0214 -0.1616
  131CHL1    H815895   0.824   4.378  12.869 -0.4064 -0.8462 -0.1918
  131CHL1   C1415896   0.647   4.393  12.989  0.0733  0.0183 -0.3348
  131CHL1   H1415897   0.538   4.413  12.978 -0.3119 -0.8637  1.4467
  131CHL1   C1515898   0.693   4.490  13.099 -0.5717 -0.1837  0.4371
  131CHL1  H15A15899   0.803   4.500  13.084 -0.1967 -0.2941  2.7970
  131CHL1  H15B15900   0.648   4.591  13.085 -0.6525  0.0693  2.2811
  131CHL1   C1615901   0.642   4.435  13.225  0.5722 -0.3169 -0.2008
  131CHL1  H16A15902   0.730   4.412  13.290 -0.5715  1.0894  1.9839
  131CHL1  H16B15903   0.583   4.506  13.287  0.3405 -1.7656  1.3448
  131CHL1   C1715904   0.573   4.298  13.190 -0.2123 -0.0373 -0.3211
  131CHL1   H1715905   0.466   4.316  13.170 -1.2638 -4.3785  0.3841
  131CHL1   C1315906   0.645   4.253  13.056  0.8686  0.2118  0.0997
  131CHL1   C1815907   0.790   4.206  13.101  0.6947  0.7347  0.0026
  131CHL1  H18A15908   0.859   4.197  13.013 -0.0439 -0.8318 -0.4494
  131CHL1  H18B15909   0.834   4.279  13.172  1.0624  0.0518  0.4889
  131CHL1  H18C15910   0.778   4.110  13.154 -1.4187  1.7544  1.4915
  131CHL1   C1215911   0.572   4.157  12.955 -0.6711 -0.7440 -0.2635
  131CHL1  H12A15912   0.571   4.061  13.012 -1.3319 -0.4079  0.2929
  131CHL1  H12B15913   0.475   4.205  12.932 -0.3198  0.2303  0.2251
  131CHL1   C1115914   0.642   4.158  12.817  0.4025  0.4050  0.3162
  131CHL1  H11A15915   0.744   4.114  12.825 -0.0993 -1.0749 -0.8812
  131CHL1  H11B15916   0.584   4.091  12.749  1.5218 -0.8312  0.5249
  131CHL1    C915917   0.654   4.295  12.754 -0.2200  0.4323 -0.0681
  131CHL1    H915918   0.552   4.338  12.750 -0.4630 -0.1891 -1.1344
  131CHL1   C1015919   0.719   4.297  12.607 -0.6461 -0.7628  0.3524
  131CHL1   C1915920   0.847   4.217  12.618  0.3050  0.7367 -1.1192
  131CHL1  H19A15921   0.899   4.216  12.519 -1.2923  2.9489 -2.0685
  131CHL1  H19B15922   0.919   4.261  12.691 -0.5645  0.9794 -0.3936
  131CHL1  H19C15923   0.830   4.110  12.641 -0.4799  0.8352 -1.2277
  131CHL1    C115924   0.617   4.232  12.513 -0.5758  0.4523 -0.0366
  131CHL1   H1A15925   0.597   4.127  12.544 -1.2471  0.8877  1.0881
  131CHL1   H1B15926   0.521   4.288  12.519 -2.3367 -2.0044 -2.6586
  131CHL1    C215927   0.648   4.241  12.370 -0.2058  0.6318  0.0191
  131CHL1   H2A15928   0.570   4.200  12.302  0.2055  2.1043 -1.4310
  131CHL1   H2B15929   0.744   4.186  12.359 -0.3832 -0.0949  1.8523
  131CHL1   C2015930   0.570   4.193  13.303 -0.2901  0.2645  0.1682
  131CHL1   H2015931   0.667   4.139  13.306  0.3791  1.4370  2.5077
  131CHL1   C2115932   0.464   4.081  13.275  0.0288  0.5330  0.4456
  131CHL1  H21A15933   0.506   4.001  13.211 -0.4153 -0.1611  1.0102
  131CHL1  H21B15934   0.369   4.108  13.224 -0.5445 -1.6658  0.2469
  131CHL1  H21C15935   0.440   4.035  13.373 -1.0357 -0.6469 -0.3540
  131CHL1   C2215936   0.547   4.266  13.436  0.2971 -0.4505 -0.0087
  131CHL1  H22A15937   0.637   4.328  13.459 -0.2887  0.5941 -0.4453
  131CHL1  H22B15938   0.459   4.334  13.433  1.0354  0.5003 -1.5231
  131CHL1   C2315939   0.526   4.179  13.568 -0.2860 -0.4248  0.5598
  131CHL1  H23A15940   0.434   4.119  13.556  0.3685 -1.5510  0.9622
  131CHL1  H23B15941   0.614   4.110  13.572  1.1198  1.3460  2.2957
  131CHL1   C2415942   0.516   4.262  13.695  0.0949  0.6191  0.0843
  131CHL1  H24A15943   0.612   4.315  13.710 -0.2258  1.2870 -0.1537
  131CHL1  H24B15944   0.433   4.335  13.684 -0.0347  1.0067  3.0361
  131CHL1   C2515945   0.486   4.182  13.824  0.2610  0.3727 -0.6285
  131CHL1   H2515946   0.392   4.125  13.808  0.2957  0.6069 -1.7188
  131CHL1   C2615947   0.592   4.083  13.863 -0.8737  0.4461 -0.8632
  131CHL1  H26A15948   0.617   4.006  13.787 -1.6755 -1.3310  0.5845
  131CHL1  H26B15949   0.680   4.126  13.914  0.6427 -1.9316 -1.2989
  131CHL1  H26C15950   0.551   4.023  13.947 -0.8311  1.9754  0.2891
  131CHL1   C2715951   0.472   4.267  13.951 -0.2949  0.2287 -0.6034
  131CHL1  H27A15952   0.434   4.202  14.033  3.5394 -0.6578  0.6611
  131CHL1  H27B15953   0.563   4.316  13.989 -0.7093  1.6373 -1.3479
  131CHL1  H27C15954   0.394   4.345  13.944  2.5492  3.4615  1.0216
  132CHL1    C315955   4.542   6.236  13.170 -0.3218 -0.3431 -1.0197
  132CHL1    H315956   4.457   6.166  13.156 -0.4391 -0.4908  0.3127
  132CHL1    O315957   4.592   6.271  13.048 -0.4551 -0.7448  0.0124
  132CHL1   H3'15958   4.547   6.345  13.006  0.3950  0.2852  0.8572
  132CHL1    C415959   4.486   6.366  13.242 -0.1156  0.0089  0.2524
  132CHL1   H4A15960   4.561   6.447  13.244  0.5362 -0.5162  3.7029
  132CHL1   H4B15961   4.394   6.395  13.188  0.9223 -1.5279 -2.5636
  132CHL1    C515962   4.440   6.350  13.386 -1.1265  0.2978  0.4518
  132CHL1    C615963   4.317   6.391  13.435 -0.5457 -0.7860 -0.0006
  132CHL1    H615964   4.250   6.440  13.363  0.6808  0.0769 -0.5848
  132CHL1    C715965   4.270   6.381  13.574 -0.7413  0.9304 -0.0714
  132CHL1   H7A15966   4.222   6.474  13.613  0.2034  1.5071 -0.2636
  132CHL1   H7B15967   4.185   6.310  13.582 -0.3021  0.4735  0.7380
  132CHL1    C815968   4.383   6.336  13.675 -0.6251 -0.0457 -1.0942
  132CHL1    H815969   4.450   6.421  13.697  1.7830 -2.0192 -0.4052
  132CHL1   C1415970   4.325   6.293  13.811 -0.8209  0.3682  0.0669
  132CHL1   H1415971   4.264   6.202  13.791 -2.1065  1.2052  0.0735
  132CHL1   C1515972   4.235   6.392  13.888 -0.5790  0.1701  0.0786
  132CHL1  H15A15973   4.277   6.494  13.873  3.2995 -1.4627 -1.5621
  132CHL1  H15B15974   4.131   6.405  13.849  0.3727  1.5776 -2.2182
  132CHL1   C1615975   4.247   6.344  14.035 -0.1135  0.0920 -0.2502
  132CHL1  H16A15976   4.285   6.427  14.098  0.6144 -0.9158  0.6742
  132CHL1  H16B15977   4.148   6.312  14.075 -0.2490  0.9923  0.1719
  132CHL1   C1715978   4.352   6.228  14.040  0.2332  1.1820 -0.6082
  132CHL1   H1715979   4.286   6.138  14.031  0.6387  0.9127 -0.9400
  132CHL1   C1315980   4.432   6.244  13.912 -0.0134  0.0474 -0.0991
  132CHL1   C1815981   4.533   6.367  13.947 -0.3763  0.0339 -0.4495
  132CHL1  H18A15982   4.473   6.452  13.985  1.1459  0.7632  0.4629
  132CHL1  H18B15983   4.603   6.335  14.027 -2.8159 -3.0058  0.6798
  132CHL1  H18C15984   4.591   6.404  13.860 -0.2097  1.0930  0.0903
  132CHL1   C1215985   4.503   6.126  13.842 -0.2053 -0.0071  0.2321
  132CHL1  H12A15986   4.574   6.084  13.917 -0.3569  2.0498  1.6080
  132CHL1  H12B15987   4.418   6.058  13.819 -2.3591  1.7928  2.4047
  132CHL1   C1115988   4.578   6.170  13.716  0.7729  0.4361 -0.2802
  132CHL1  H11A15989   4.663   6.237  13.738  1.5221 -0.5727  0.0063
  132CHL1  H11B15990   4.624   6.080  13.669  1.3292 -0.9172  2.6592
  132CHL1    C915991   4.475   6.230  13.617 -1.1214  0.1804 -0.2405
  132CHL1    H915992   4.410   6.143  13.592  0.3876 -1.2379  0.5870
  132CHL1   C1015993   4.536   6.265  13.480 -0.4008 -0.4291  0.4997
  132CHL1   C1915994   4.646   6.363  13.504 -0.4320  0.8119 -0.3518
  132CHL1  H19A15995   4.681   6.403  13.406 -3.7200  0.9325 -1.5761
  132CHL1  H19B15996   4.634   6.452  13.568  3.7067  1.0762  0.3689
  132CHL1  H19C15997   4.731   6.300  13.539  0.1578  0.0165 -2.9717
  132CHL1    C115998   4.585   6.141  13.400  0.0658  0.3761  0.9898
  132CHL1   H1A15999   4.670   6.099  13.459  0.4877 -0.4644 -0.1866
  132CHL1   H1B16000   4.507   6.063  13.409  1.1490 -0.8541  0.1297
  132CHL1    C216001   4.643   6.168  13.258  0.3961 -0.1631 -0.9262
  132CHL1   H2A16002   4.679   6.074  13.212 -1.3399 -0.7309 -1.2073
  132CHL1   H2B16003   4.730   6.234  13.277 -0.7444  0.8526  1.1871
  132CHL1   C2016004   4.422   6.216  14.177 -0.4300  0.2593  0.1208
  132CHL1   H2016005   4.470   6.315  14.192 -1.3225  0.3932  2.4532
  132CHL1   C2116006   4.531   6.108  14.178 -0.1067 -0.1437 -0.1947
  132CHL1  H21A16007   4.499   6.007  14.145  1.2685 -0.3430 -1.0167
  132CHL1  H21B16008   4.566   6.086  14.281 -1.4173 -1.3514  0.0309
  132CHL1  H21C16009   4.614   6.129  14.107  0.1946  0.0776  0.2173
  132CHL1   C2216010   4.328   6.189  14.296 -0.4181 -0.1027  0.6858
  132CHL1  H22A16011   4.233   6.242  14.274 -0.6667 -0.9716 -0.3914
  132CHL1  H22B16012   4.319   6.079  14.309  0.2933 -0.3586 -0.7545
  132CHL1   C2316013   4.374   6.256  14.431  0.6343  0.2738  0.2432
  132CHL1  H23A16014   4.450   6.190  14.479  0.0433 -1.4560 -1.0606
  132CHL1  H23B16015   4.415   6.351  14.392 -0.2676  1.2710  1.6503
  132CHL1   C2416016   4.257   6.288  14.531  0.1310 -0.1245 -0.0095
  132CHL1  H24A16017   4.166   6.331  14.484  1.5330  1.1013 -1.7281
  132CHL1  H24B16018   4.226   6.185  14.561  1.6540 -0.5378  0.2202
  132CHL1   C2516019   4.294   6.380  14.648 -0.9852  1.1923 -0.3266
  132CHL1   H2516020   4.215   6.367  14.725  0.0362 -1.0373  0.4253
  132CHL1   C2616021   4.426   6.324  14.703  0.3373  0.3872  0.6282
  132CHL1  H26A16022   4.421   6.214  14.715  2.5537  0.3438  1.6375
  132CHL1  H26B16023   4.512   6.354  14.639 -0.6844  0.7812 -0.5921
  132CHL1  H26C16024   4.432   6.361  14.808  1.0176 -1.2320  1.1955
  132CHL1   C2716025   4.312   6.528  14.613  0.4581  0.3849 -0.3211
  132CHL1  H27A16026   4.316   6.586  14.708 -0.1162  0.2176 -0.1919
  132CHL1  H27B16027   4.398   6.544  14.545  0.9444 -2.2541 -0.4114
  132CHL1  H27C16028   4.219   6.567  14.565  1.1181  2.8711  0.2876
  133CHL1    C316029   1.516   1.472  13.255 -0.3070 -0.0070 -0.2474
  133CHL1    H316030   1.600   1.543  13.241 -0.5829  0.5270  0.7041
  133CHL1    O316031   1.470   1.453  13.126 -0.4075 -0.2563 -0.4934
  133CHL1   H3'16032   1.501   1.371  13.087 -1.9966  0.0213 -2.5518
  133CHL1    C416033   1.554   1.335  13.311  0.7105  0.1969 -0.5462
  133CHL1   H4A16034   1.462   1.274  13.304 -0.7677  2.1295  0.8685
  133CHL1   H4B16035   1.642   1.308  13.249  1.1310  1.6188 -0.6055
  133CHL1    C516036   1.590   1.347  13.463 -0.2963 -0.5104  0.4449
  133CHL1    C616037   1.708   1.311  13.510 -0.2866 -0.1517  0.1439
  133CHL1    H616038   1.783   1.260  13.448 -1.0582 -0.4289 -0.5753
  133CHL1    C716039   1.741   1.324  13.653 -0.7671 -0.2152  0.1062
  133CHL1   H7A16040   1.806   1.241  13.689 -0.1705 -0.2720 -1.0718
  133CHL1   H7B16041   1.796   1.420  13.655  0.2267 -0.6856 -2.0352
  133CHL1    C816042   1.610   1.336  13.741 -0.5590 -0.0742  0.2262
  133CHL1    H816043   1.549   1.243  13.732  0.1451 -0.7147  1.6385
  133CHL1   C1416044   1.653   1.361  13.886  0.1263  0.2050 -0.8702
  133CHL1   H1416045   1.698   1.462  13.894 -2.1721  1.2566 -0.4638
  133CHL1   C1516046   1.751   1.257  13.941  0.1578  0.1819  0.5325
  133CHL1  H15A16047   1.726   1.154  13.906  1.4698  0.3061 -0.8409
  133CHL1  H15B16048   1.848   1.284  13.895 -0.0272 -1.0087 -0.6228
  133CHL1   C1616049   1.738   1.286  14.088  0.0656  0.4933 -0.2298
  133CHL1  H16A16050   1.719   1.191  14.143 -1.3243 -0.5277 -2.3408
  133CHL1  H16B16051   1.834   1.326  14.129  0.3064 -0.2471 -0.0435
  133CHL1   C1716052   1.626   1.383  14.115  0.0421  0.1220 -0.1855
  133CHL1   H1716053   1.671   1.485  14.116 -0.6286  0.4261 -0.4508
  133CHL1   C1316054   1.542   1.373  13.988  0.2078 -0.7535 -0.1436
  133CHL1   C1816055   1.456   1.245  13.990  0.0860 -0.3259 -0.0172
  133CHL1  H18A16056   1.391   1.221  13.903  0.2714 -1.5530  0.1627
  133CHL1  H18B16057   1.519   1.154  13.995  0.5485 -0.3074 -3.0833
  133CHL1  H18C16058   1.393   1.251  14.081 -0.8531  1.9370 -0.7560
  133CHL1   C1216059   1.461   1.495  13.946 -0.0180  0.6351  0.5567
  133CHL1  H12A16060   1.368   1.503  14.006 -0.8788 -0.2876 -0.6001
  133CHL1  H12B16061   1.522   1.586  13.963  0.2743  0.6868 -0.6563
  133CHL1   C1116062   1.408   1.486  13.796  0.0615 -0.4735  0.2467
  133CHL1  H11A16063   1.319   1.419  13.795  0.6928 -1.3500 -1.4643
  133CHL1  H11B16064   1.378   1.591  13.777  1.1512  0.0684  1.3513
  133CHL1    C916065   1.520   1.449  13.696 -0.0995  0.0342  0.4856
  133CHL1    H916066   1.589   1.536  13.704  0.8128 -0.7101  0.8286
  133CHL1   C1016067   1.478   1.422  13.548 -0.0394  0.3158  0.0827
  133CHL1   C1916068   1.352   1.330  13.546  0.0572  0.6501  0.3847
  133CHL1  H19A16069   1.317   1.295  13.446  0.5535 -0.3791  0.5558
  133CHL1  H19B16070   1.368   1.238  13.605  1.0492 -0.9491 -2.1957
  133CHL1  H19C16071   1.270   1.390  13.591 -0.1554  1.0134 -0.4664
  133CHL1    C116072   1.450   1.558  13.483 -0.1826  0.6239  0.3376
  133CHL1   H1A16073   1.363   1.592  13.544  0.3784  1.2899  0.7901
  133CHL1   H1B16074   1.536   1.627  13.492  0.7865 -0.1817 -2.0628
  133CHL1    C216075   1.404   1.550  13.336 -0.5707 -0.2957 -0.5197
  133CHL1   H2A16076   1.396   1.657  13.307 -0.5624 -0.9103 -3.0000
  133CHL1   H2B16077   1.305   1.498  13.334 -0.9523  0.3387  0.7597
  133CHL1   C2016078   1.571   1.364  14.259 -1.1010 -0.1790  0.2116
  133CHL1   H2016079   1.512   1.270  14.263  0.5630 -1.2455  0.8129
  133CHL1   C2116080   1.474   1.484  14.301 -0.3681  0.1899  0.8325
  133CHL1  H21A16081   1.410   1.507  14.213  1.5836 -0.0329 -0.7093
  133CHL1  H21B16082   1.524   1.578  14.332  1.1370 -0.2292 -0.2311
  133CHL1  H21C16083   1.407   1.449  14.383 -0.3870 -1.5678  0.1214
  133CHL1   C2216084   1.689   1.346  14.357 -0.5531  0.3516 -0.5233
  133CHL1  H22A16085   1.753   1.256  14.343 -1.3868 -0.9796  3.1993
  133CHL1  H22B16086   1.753   1.437  14.354  2.1038 -1.3960 -0.3297
  133CHL1   C2316087   1.636   1.320  14.501  0.1772 -0.3976  0.0980
  133CHL1  H23A16088   1.582   1.407  14.545 -1.8524 -2.2923  1.6547
  133CHL1  H23B16089   1.571   1.230  14.505  1.2534 -1.1465  1.5834
  133CHL1   C2416090   1.751   1.275  14.592  0.6753  0.0139  0.3271
  133CHL1  H24A16091   1.763   1.171  14.556  0.6421 -0.6853  2.2306
  133CHL1  H24B16092   1.837   1.339  14.562 -1.0374  1.4991 -1.7606
  133CHL1   C2516093   1.721   1.268  14.742  0.3252 -0.2052 -0.7932
  133CHL1   H2516094   1.670   1.364  14.765 -1.4149 -0.9755 -1.2544
  133CHL1   C2616095   1.618   1.157  14.784  0.8968 -0.0501  0.8034
  133CHL1  H26A16096   1.572   1.185  14.881  0.2944  0.7618  0.2939
  133CHL1  H26B16097   1.549   1.152  14.697  2.0338 -1.7564 -0.0786
  133CHL1  H26C16098   1.671   1.059  14.792  1.2954  0.1863  1.1047
  133CHL1   C2716099   1.851   1.243  14.815 -0.6462 -0.0374  0.0191
  133CHL1  H27A16100   1.826   1.227  14.922  0.1353  2.1446  0.5888
  133CHL1  H27B16101   1.903   1.154  14.774 -1.3227 -0.7986  0.7592
  133CHL1  H27C16102   1.914   1.334  14.822  0.4770 -0.6775 -1.3433
  134CHL1    C316103   5.537   2.014  12.162 -0.9790  0.4188 -0.4792
  134CHL1    H316104   5.522   2.116  12.204  0.5894 -0.3966  2.3765
  134CHL1    O316105   5.520   1.996  12.027 -0.0930  0.4314 -0.6184
  134CHL1   H3'16106   5.555   1.909  12.008 -0.6122 -0.0493  0.5198
  134CHL1    C416107   5.689   1.983  12.178  1.1861 -0.7531  0.0033
  134CHL1   H4A16108   5.706   1.879  12.143  0.9492 -0.3988 -1.1931
  134CHL1   H4B16109   5.744   2.052  12.110  3.2960 -0.9898  1.3782
  134CHL1    C516110   5.736   2.008  12.321  0.5715  0.3595 -0.1317
  134CHL1    C616111   5.830   2.100  12.354 -0.7218  0.4646 -0.1892
  134CHL1    H616112   5.876   2.159  12.274  0.4661  4.6862  3.2321
  134CHL1    C716113   5.891   2.120  12.496  0.7199  0.4768 -0.1568
  134CHL1   H7A16114   6.002   2.122  12.494  0.8278 -0.7491  2.0669
  134CHL1   H7B16115   5.856   2.218  12.536  0.6828  0.1462  0.6371
  134CHL1    C816116   5.836   2.005  12.587  0.6993  0.1739 -0.4726
  134CHL1    H816117   5.911   1.927  12.564  3.0990  2.2753 -0.1962
  134CHL1   C1416118   5.847   2.042  12.731 -0.0989  0.0172 -0.0088
  134CHL1   H1416119   5.779   2.130  12.740  2.3309  1.8831  1.6478
  134CHL1   C1516120   5.978   2.092  12.780 -0.6807 -0.3638  0.0189
  134CHL1  H15A16121   6.051   2.019  12.740 -0.1271  1.3469 -2.2933
  134CHL1  H15B16122   6.001   2.199  12.760 -0.8709 -0.2383  0.4521
  134CHL1   C1616123   5.968   2.072  12.937  0.3567  0.3361  0.0828
  134CHL1  H16A16124   6.053   2.003  12.954  0.5944  0.8208  0.9292
  134CHL1  H16B16125   5.981   2.166  12.994  0.1181  1.6124 -1.8911
  134CHL1   C1716126   5.830   1.998  12.969  0.2981 -0.2545 -0.5235
  134CHL1   H1716127   5.750   2.072  12.986  1.1214  0.1055  2.3557
  134CHL1   C1316128   5.804   1.928  12.834  0.2378 -0.0449 -0.7295
  134CHL1   C1816129   5.900   1.802  12.817  0.0864 -0.8805 -0.5651
  134CHL1  H18A16130   5.846   1.719  12.867  1.2204 -0.1285  2.0814
  134CHL1  H18B16131   5.911   1.782  12.708  0.5916 -3.1177 -0.1558
  134CHL1  H18C16132   5.999   1.811  12.866 -0.2303  2.5416 -0.3127
  134CHL1   C1216133   5.658   1.894  12.805 -0.6728 -0.3091 -0.0570
  134CHL1  H12A16134   5.621   1.805  12.859 -1.6723  0.8922  1.3124
  134CHL1  H12B16135   5.596   1.982  12.833  1.0807  0.7293  0.7421
  134CHL1   C1116136   5.645   1.857  12.653  0.3409  0.2648  0.2758
  134CHL1  H11A16137   5.692   1.758  12.633  2.2199  1.0455  0.6543
  134CHL1  H11B16138   5.534   1.849  12.651  0.3371 -0.9856  2.3083
  134CHL1    C916139   5.692   1.958  12.554  0.3396 -0.1839 -0.5584
  134CHL1    H916140   5.645   2.057  12.575  1.8734  0.2799  0.9499
  134CHL1   C1016141   5.662   1.910  12.416  0.4411 -0.1060 -0.5650
  134CHL1   C1916142   5.726   1.765  12.394  0.5955  0.1560  0.5381
  134CHL1  H19A16143   5.657   1.693  12.444  0.2770 -0.5164 -0.8257
  134CHL1  H19B16144   5.729   1.726  12.290  0.7640 -1.5503  1.1554
  134CHL1  H19C16145   5.829   1.755  12.433  0.2656 -0.0259  1.3934
  134CHL1    C116146   5.506   1.915  12.389  0.2882 -0.3647 -0.7153
  134CHL1   H1A16147   5.451   1.834  12.443 -0.6919  2.4366  2.8601
  134CHL1   H1B16148   5.469   2.011  12.432 -0.6762 -2.2135  3.0082
  134CHL1    C216149   5.458   1.904  12.238 -1.0765  0.5651  0.3339
  134CHL1   H2A16150   5.348   1.922  12.241 -1.1110  0.3006  0.9259
  134CHL1   H2B16151   5.479   1.799  12.210  1.8664 -0.0628  4.0714
  134CHL1   C2016152   5.836   1.919  13.106 -0.7438  0.4081 -0.1643
  134CHL1   H2016153   5.895   1.824  13.107 -0.0842  0.8070 -0.7326
  134CHL1   C2116154   5.690   1.874  13.133 -0.1595  0.2691  0.9286
  134CHL1  H21A16155   5.684   1.831  13.236  0.1295  0.3357  0.9751
  134CHL1  H21B16156   5.668   1.792  13.062  1.3003  2.7236 -2.6482
  134CHL1  H21C16157   5.624   1.962  13.118 -0.1309  0.3814  1.4284
  134CHL1   C2216158   5.888   2.001  13.227  0.0897 -0.4496  0.2298
  134CHL1  H22A16159   5.980   2.057  13.198 -0.5292  1.1614  1.1882
  134CHL1  H22B16160   5.816   2.085  13.238  0.9344  0.1544  1.5042
  134CHL1   C2316161   5.910   1.925  13.359  0.2885  0.1592 -0.0293
  134CHL1  H23A16162   5.812   1.894  13.400 -0.3611  0.3769 -1.3718
  134CHL1  H23B16163   5.975   1.835  13.354  0.3269  0.0442  1.8538
  134CHL1   C2416164   5.970   2.021  13.466 -0.3008 -0.2317 -0.2198
  134CHL1  H24A16165   6.070   2.046  13.425 -0.1592 -1.5922 -0.7546
  134CHL1  H24B16166   5.902   2.109  13.475 -0.9789 -0.8257  0.7469
  134CHL1   C2516167   5.992   1.966  13.613 -0.4569 -0.1156  0.4084
  134CHL1   H2516168   6.026   1.861  13.599  0.7542  0.1628  1.1104
  134CHL1   C2616169   6.102   2.042  13.685  0.5317 -0.0481  0.2665
  134CHL1  H26A16170   6.175   2.078  13.610  0.1388 -0.9390 -0.5760
  134CHL1  H26B16171   6.062   2.121  13.752  2.1713 -1.2408  2.7981
  134CHL1  H26C16172   6.150   1.982  13.765  0.1586 -1.0067 -0.2066
  134CHL1   C2716173   5.862   1.960  13.697 -0.7474 -0.0049  0.2714
  134CHL1  H27A16174   5.813   2.060  13.707  1.8500  1.2763  1.2748
  134CHL1  H27B16175   5.788   1.896  13.645  0.9277  0.3502 -2.7475
  134CHL1  H27C16176   5.877   1.929  13.803  1.4331 -0.0439 -0.0050
  135CHL1    C316177   5.878   0.869  12.905 -0.3415  0.0833 -0.5694
  135CHL1    H316178   5.963   0.936  12.932 -1.0180  0.7101  0.0353
  135CHL1    O316179   5.897   0.824  12.774  0.1411 -0.1589  0.5275
  135CHL1   H3'16180   5.822   0.768  12.753  0.8806 -0.2278 -2.4333
  135CHL1    C416181   5.880   0.746  13.000  0.1112  0.5313 -0.1450
  135CHL1   H4A16182   5.806   0.672  12.964  1.8428 -1.0821 -0.5363
  135CHL1   H4B16183   5.977   0.693  12.983 -0.2453  0.3106 -1.6161
  135CHL1    C516184   5.864   0.783  13.150 -0.1680 -0.3099  0.4458
  135CHL1    C616185   5.959   0.759  13.245 -0.7208  0.3024  0.2098
  135CHL1    H616186   6.060   0.722  13.220 -1.3301 -1.0065 -0.4162
  135CHL1    C716187   5.949   0.797  13.386 -0.2308  0.4038 -0.0416
  135CHL1   H7A16188   5.982   0.714  13.452  0.3828  0.8952  0.2831
  135CHL1   H7B16189   6.019   0.880  13.410 -1.6118  0.9222  2.5523
  135CHL1    C816190   5.805   0.837  13.421 -0.1526 -0.7389  0.7365
  135CHL1    H816191   5.746   0.743  13.414 -0.6687 -0.3685 -0.0512
  135CHL1   C1416192   5.812   0.901  13.551  0.1107  0.2568  0.4548
  135CHL1   H1416193   5.879   0.990  13.543 -0.6390  0.7083 -1.2400
  135CHL1   C1516194   5.868   0.809  13.666  0.0786 -0.5838 -0.4314
  135CHL1  H15A16195   5.815   0.712  13.677  1.3277 -1.2581 -0.1911
  135CHL1  H15B16196   5.974   0.779  13.658  0.2068  0.2825 -3.4275
  135CHL1   C1616197   5.840   0.900  13.791  0.3511 -0.0474  0.1459
  135CHL1  H16A16198   5.800   0.836  13.871 -2.9104  1.8210  0.1757
  135CHL1  H16B16199   5.928   0.961  13.822  1.6389 -1.4965 -0.5159
  135CHL1   C1716200   5.728   1.000  13.749  0.5586  1.0993  0.4331
  135CHL1   H1716201   5.778   1.098  13.732  1.5387  0.4145 -0.6981
  135CHL1   C1316202   5.681   0.952  13.611  0.5397 -0.1154 -0.2783
  135CHL1   C1816203   5.581   0.834  13.635  0.1906 -0.6655 -0.8270
  135CHL1  H18A16204   5.487   0.861  13.686  1.2546  1.4223  0.1134
  135CHL1  H18B16205   5.555   0.794  13.534 -2.0664 -3.0120  0.5684
  135CHL1  H18C16206   5.620   0.753  13.701  0.2852 -0.6044 -0.8073
  135CHL1   C1216207   5.631   1.058  13.508 -0.5406  0.1050  0.0166
  135CHL1  H12A16208   5.528   1.092  13.532 -1.1665 -1.3529 -0.5115
  135CHL1  H12B16209   5.703   1.143  13.510  0.1124 -0.4191 -0.8688
  135CHL1   C1116210   5.613   0.993  13.372 -0.2063 -0.0047  0.5128
  135CHL1  H11A16211   5.533   0.916  13.373  0.9046 -1.2072  0.3033
  135CHL1  H11B16212   5.562   1.066  13.305 -1.0347 -1.2540 -0.2651
  135CHL1    C916213   5.745   0.934  13.315 -0.7273 -0.3265 -0.6295
  135CHL1    H916214   5.823   1.013  13.305 -2.7363  1.7915 -0.3666
  135CHL1   C1016215   5.741   0.869  13.174 -0.0921  0.2587  0.7891
  135CHL1   C1916216   5.616   0.778  13.163  0.5698  0.4618  0.3202
  135CHL1  H19A16217   5.615   0.705  13.247 -2.6402 -1.9419 -1.5845
  135CHL1  H19B16218   5.525   0.842  13.172  1.8084  2.5325 -1.0360
  135CHL1  H19C16219   5.611   0.721  13.068 -1.0386  1.1242 -0.0284
  135CHL1    C116220   5.743   0.977  13.067 -0.3819 -0.0686 -0.3141
  135CHL1   H1A16221   5.648   1.034  13.072 -0.2528  0.2271 -1.1146
  135CHL1   H1B16222   5.825   1.051  13.068 -2.7042  2.6571  1.0083
  135CHL1    C216223   5.750   0.944  12.916  0.2659  0.3456 -0.4854
  135CHL1   H2A16224   5.752   1.035  12.852  0.2388  1.0315  0.4627
  135CHL1   H2B16225   5.664   0.883  12.880  1.0531  0.4838 -2.7335
  135CHL1   C2016226   5.623   1.018  13.859  0.1410  0.8496  0.8596
  135CHL1   H2016227   5.574   0.920  13.881 -0.8112  1.1476  0.1260
  135CHL1   C2116228   5.514   1.110  13.816 -0.1727 -0.3864 -0.1934
  135CHL1  H21A16229   5.566   1.206  13.793 -0.3716  0.8416  3.7824
  135CHL1  H21B16230   5.439   1.132  13.895 -0.4300  0.6448 -0.6970
  135CHL1  H21C16231   5.452   1.082  13.728 -0.0448 -2.1677  0.2584
  135CHL1   C2216232   5.688   1.059  13.995  0.9496  0.7010 -0.5921
  135CHL1  H22A16233   5.789   1.014  14.004  0.1174 -1.0812  0.3346
  135CHL1  H22B16234   5.706   1.168  13.992 -1.2866  1.2733  2.3881
  135CHL1   C2316235   5.605   1.049  14.128  0.2647 -0.0029  0.3359
  135CHL1  H23A16236   5.509   1.105  14.114 -0.2748 -0.2681  2.6069
  135CHL1  H23B16237   5.570   0.946  14.147  0.9300 -0.8499 -2.5624
  135CHL1   C2416238   5.664   1.118  14.253 -0.2377  0.6707  0.3153
  135CHL1  H24A16239   5.754   1.061  14.283  0.0562  1.3480  0.7381
  135CHL1  H24B16240   5.700   1.217  14.221  0.2851 -0.1511 -1.7878
  135CHL1   C2516241   5.573   1.142  14.376 -0.0565  0.2191 -0.2763
  135CHL1   H2516242   5.641   1.178  14.457 -0.1144 -0.6180  0.1501
  135CHL1   C2616243   5.468   1.253  14.342 -0.4522  0.3443 -0.5054
  135CHL1  H26A16244   5.520   1.351  14.331  0.3622  0.2495  1.9849
  135CHL1  H26B16245   5.430   1.212  14.246  0.0457 -1.7554  0.1467
  135CHL1  H26C16246   5.385   1.269  14.414  1.9147  1.4956  2.1604
  135CHL1   C2716247   5.503   1.012  14.428 -0.3433 -0.9715 -0.1153
  135CHL1  H27A16248   5.406   1.039  14.475 -0.1566  0.0147 -0.2696
  135CHL1  H27B16249   5.461   0.964  14.338  0.8398  0.4681 -1.5002
  135CHL1  H27C16250   5.558   0.936  14.488  0.5156  0.1097  0.5017
  136CHL1    C316251   4.408   0.632  13.136  0.5849  0.2424 -0.0011
  136CHL1    H316252   4.354   0.727  13.155 -0.8150 -0.4652 -0.3043
  136CHL1    O316253   4.428   0.635  13.000 -0.2945  0.0201  0.5769
  136CHL1   H3'16254   4.405   0.547  12.969  1.3514 -0.3593  0.3104
  136CHL1    C416255   4.546   0.630  13.209  0.2826  0.5392  0.0989
  136CHL1   H4A16256   4.608   0.543  13.180 -1.9700 -0.8693 -0.6728
  136CHL1   H4B16257   4.598   0.721  13.171 -0.1045  0.9160  0.4601
  136CHL1    C516258   4.526   0.627  13.357  0.1462  0.6750 -0.2043
  136CHL1    C616259   4.584   0.720  13.433 -0.7329  0.4507 -0.2077
  136CHL1    H616260   4.668   0.771  13.384 -0.7856  1.6316  0.8766
  136CHL1    C716261   4.576   0.730  13.581  0.5263  0.3979 -0.5437
  136CHL1   H7A16262   4.676   0.735  13.630  1.2735 -0.8134 -1.8909
  136CHL1   H7B16263   4.513   0.820  13.598  0.6326  0.8257 -2.1975
  136CHL1    C816264   4.503   0.611  13.638  0.2556  0.1286 -0.3943
  136CHL1    H816265   4.578   0.529  13.645  0.9694  0.8160  0.2649
  136CHL1   C1416266   4.456   0.653  13.779  0.3336 -0.0883 -0.0215
  136CHL1   H1416267   4.393   0.743  13.762 -0.8942 -0.7479  0.8718
  136CHL1   C1516268   4.557   0.706  13.879 -0.0159 -0.1194  0.0601
  136CHL1  H15A16269   4.648   0.644  13.865  0.0483  0.1618 -0.8004
  136CHL1  H15B16270   4.580   0.814  13.869  0.7430 -0.3951 -1.4267
  136CHL1   C1616271   4.488   0.686  14.014  0.0276  0.3371 -0.0540
  136CHL1  H16A16272   4.544   0.629  14.091 -0.4952  0.5317  0.4800
  136CHL1  H16B16273   4.454   0.779  14.065 -0.9647 -0.9894  1.8418
  136CHL1   C1716274   4.352   0.616  13.990  0.2523 -0.1745 -0.1047
  136CHL1   H1716275   4.285   0.703  13.971  2.1328  1.0442 -1.5848
  136CHL1   C1316276   4.369   0.546  13.856  0.0879 -0.0984  0.5489
  136CHL1   C1816277   4.442   0.414  13.877 -0.7344 -0.6409  0.6354
  136CHL1  H18A16278   4.379   0.340  13.931 -1.2297  0.5025  1.6956
  136CHL1  H18B16279   4.466   0.364  13.781 -1.3369 -0.8829  0.6079
  136CHL1  H18C16280   4.540   0.427  13.928 -0.0520 -1.4232 -0.4607
  136CHL1   C1216281   4.244   0.518  13.767  0.5870  0.5503  0.0720
  136CHL1  H12A16282   4.172   0.448  13.814  0.1802  1.6647  1.1611
  136CHL1  H12B16283   4.185   0.607  13.738  2.0454  1.2285 -0.9643
  136CHL1   C1116284   4.296   0.467  13.626  0.1803 -0.4502 -0.2465
  136CHL1  H11A16285   4.335   0.364  13.639 -1.4853 -1.2144 -1.0302
  136CHL1  H11B16286   4.202   0.460  13.567 -1.6520 -1.1815  2.5645
  136CHL1    C916287   4.382   0.568  13.555  0.6737 -0.4952  0.5454
  136CHL1    H916288   4.323   0.661  13.539  1.2611 -0.4934 -2.1833
  136CHL1   C1016289   4.423   0.528  13.412  0.2692 -0.3469  0.6504
  136CHL1   C1916290   4.490   0.385  13.415  0.2372  0.1025 -0.1349
  136CHL1  H19A16291   4.423   0.303  13.449  1.2788 -0.7060 -0.0019
  136CHL1  H19B16292   4.534   0.363  13.316  1.9952 -2.0279  1.0423
  136CHL1  H19C16293   4.568   0.379  13.494 -0.1028 -1.1761  0.1343
  136CHL1    C116294   4.298   0.517  13.321 -0.9587  0.0342 -0.4111
  136CHL1   H1A16295   4.239   0.429  13.354 -0.9993 -0.3194 -1.3905
  136CHL1   H1B16296   4.233   0.606  13.333  1.0059  1.6754 -1.3890
  136CHL1    C216297   4.330   0.510  13.170  0.0288 -0.4609 -0.6690
  136CHL1   H2A16298   4.240   0.494  13.107 -0.1776 -1.2477 -0.1876
  136CHL1   H2B16299   4.397   0.423  13.157 -0.3423 -0.8234 -0.1948
  136CHL1   C2016300   4.299   0.535  14.109 -0.3663  0.4764 -0.6655
  136CHL1   H2016301   4.365   0.446  14.114 -1.8689 -0.9363 -3.7623
  136CHL1   C2116302   4.162   0.470  14.084  0.6151 -0.1713 -0.1019
  136CHL1  H21A16303   4.165   0.387  14.011 -0.3898  0.6579 -1.1237
  136CHL1  H21B16304   4.099   0.554  14.048  1.9534  0.8019 -0.2700
  136CHL1  H21C16305   4.115   0.429  14.176 -0.7867 -0.5531 -0.9733
  136CHL1   C2216306   4.289   0.613  14.237 -0.1508 -0.6021 -0.5895
  136CHL1  H22A16307   4.382   0.669  14.261 -2.5320  2.6096  1.9716
  136CHL1  H22B16308   4.215   0.695  14.236  1.1389  0.6108  0.1444
  136CHL1   C2316309   4.271   0.532  14.373  0.3067  0.3076  0.1098
  136CHL1  H23A16310   4.281   0.603  14.457 -0.1607 -1.1257  1.4269
  136CHL1  H23B16311   4.163   0.506  14.370  0.5801 -1.0211  0.7900
  136CHL1   C2416312   4.354   0.403  14.398  0.1300  0.0888 -0.2592
  136CHL1  H24A16313   4.362   0.342  14.305  1.4897  0.2945 -0.2982
  136CHL1  H24B16314   4.457   0.430  14.428 -0.6332  1.0272  1.6486
  136CHL1   C2516315   4.295   0.328  14.516 -0.1357  0.1875  0.0239
  136CHL1   H2516316   4.281   0.397  14.602  0.2362  0.3231 -0.0233
  136CHL1   C2616317   4.156   0.270  14.486 -0.2076 -0.2066  0.7546
  136CHL1  H26A16318   4.123   0.219  14.579 -1.4812 -1.6866 -0.4520
  136CHL1  H26B16319   4.073   0.341  14.466 -0.5730 -1.1577 -1.3579
  136CHL1  H26C16320   4.170   0.195  14.405  3.1150 -0.7204  1.6557
  136CHL1   C2716321   4.398   0.214  14.548 -0.7332 -0.5884 -1.0861
  136CHL1  H27A16322   4.445   0.181  14.453 -1.0069 -0.5451 -1.2349
  136CHL1  H27B16323   4.477   0.250  14.617 -0.7838 -0.7063 -0.9656
  136CHL1  H27C16324   4.337   0.140  14.605  2.7323 -0.7780  2.9360
  137CHL1    C316325   1.047   0.767  13.393 -0.1097 -0.4274 -0.7544
  137CHL1    H316326   1.151   0.770  13.432 -0.2607 -1.0879 -0.2821
  137CHL1    O316327   1.019   0.656  13.311 -0.3321 -0.1907  0.1295
  137CHL1   H3'16328   0.932   0.678  13.276  0.5180  2.1662 -0.6949
  137CHL1    C416329   0.966   0.744  13.528  0.0589  0.5452 -0.0618
  137CHL1   H4A16330   0.859   0.743  13.497  0.4534  1.2804 -1.4994
  137CHL1   H4B16331   0.982   0.641  13.566 -0.7430  1.2963  2.6213
  137CHL1    C516332   1.002   0.852  13.634 -0.3913 -0.1049  0.2667
  137CHL1    C616333   1.064   0.824  13.745  0.3369  0.2753  0.5768
  137CHL1    H616334   1.091   0.721  13.773  0.8693  0.2675  0.0505
  137CHL1    C716335   1.096   0.931  13.850 -0.0613  0.6338 -0.0984
  137CHL1   H7A16336   1.088   0.897  13.956  1.4039  4.0447  1.2643
  137CHL1   H7B16337   1.201   0.967  13.841  1.3105 -3.0232 -0.6591
  137CHL1    C816338   1.011   1.052  13.827  0.0163  0.2704  0.3029
  137CHL1    H816339   0.907   1.033  13.861  0.4448  1.7686  2.7347
  137CHL1   C1416340   1.073   1.165  13.910 -0.1798 -0.2501  0.6398
  137CHL1   H1416341   1.178   1.176  13.875 -0.4316 -1.6471 -0.6738
  137CHL1   C1516342   1.086   1.133  14.057 -0.4685 -0.0881 -0.4091
  137CHL1  H15A16343   1.003   1.075  14.103 -0.5761 -0.9784 -1.6746
  137CHL1  H15B16344   1.183   1.095  14.095 -0.2739  0.3320 -0.4793
  137CHL1   C1616345   1.088   1.274  14.126 -0.5362  0.5025  0.4610
  137CHL1  H16A16346   1.000   1.277  14.195 -2.1858  0.8943 -1.5459
  137CHL1  H16B16347   1.182   1.285  14.183 -0.2752  2.0251 -0.2246
  137CHL1   C1716348   1.060   1.379  14.013 -0.5621  0.2521 -0.5238
  137CHL1   H1716349   1.161   1.412  13.982  0.0154 -0.0800  0.9037
  137CHL1   C1316350   1.000   1.302  13.897  0.2429  0.1410  0.4453
  137CHL1   C1816351   0.848   1.295  13.918  0.2052 -0.6554  0.7547
  137CHL1  H18A16352   0.805   1.217  13.851  0.4073 -0.2230  0.1144
  137CHL1  H18B16353   0.814   1.276  14.022  1.7819 -1.8588  1.0806
  137CHL1  H18C16354   0.799   1.392  13.893 -0.2315 -1.3731 -1.4273
  137CHL1   C1216355   1.021   1.348  13.744 -0.4433  0.6051 -0.7740
  137CHL1  H12A16356   0.959   1.439  13.727  0.3920  1.6012  1.0747
  137CHL1  H12B16357   1.129   1.372  13.731 -0.1137 -1.3536 -2.0019
  137CHL1   C1116358   0.967   1.235  13.649 -0.2668 -0.0660 -0.4803
  137CHL1  H11A16359   0.856   1.227  13.656 -0.2443  0.4814  0.9923
  137CHL1  H11B16360   0.998   1.258  13.545 -1.7477  0.2333 -0.8796
  137CHL1    C916361   1.030   1.095  13.679 -0.5349  0.2777  0.6619
  137CHL1    H916362   1.140   1.098  13.670 -0.5256  0.1680  0.7273
  137CHL1   C1016363   0.969   0.990  13.579 -0.4135  0.0131  0.2251
  137CHL1   C1916364   0.811   1.008  13.573 -0.0989 -0.6847  0.0778
  137CHL1  H19A16365   0.774   1.090  13.507 -3.1764 -0.8244  1.4392
  137CHL1  H19B16366   0.758   0.926  13.519  1.2093 -1.4876 -0.0341
  137CHL1  H19C16367   0.768   1.027  13.673 -0.8893 -2.8394  0.2066
  137CHL1    C116368   1.033   1.008  13.436  0.0303 -0.4028  0.4042
  137CHL1   H1A16369   0.983   1.103  13.409  0.7705 -0.0052  0.4091
  137CHL1   H1B16370   1.140   1.036  13.448 -0.1571  1.2029 -1.2247
  137CHL1    C216371   1.010   0.901  13.330  0.5013 -0.7570 -0.2830
  137CHL1   H2A16372   1.061   0.925  13.234 -0.5551  1.0213 -0.4361
  137CHL1   H2B16373   0.901   0.889  13.314  0.3680 -0.8318  0.6226
  137CHL1   C2016374   0.981   1.507  14.064 -0.4869 -0.3088  0.0398
  137CHL1   H2016375   0.874   1.493  14.087 -1.4295  2.8873 -1.7831
  137CHL1   C2116376   1.002   1.615  13.956  0.8100  0.5887 -0.2533
  137CHL1  H21A16377   0.996   1.720  13.991  2.0445  0.6663 -0.2412
  137CHL1  H21B16378   0.932   1.605  13.870 -0.9352 -0.3269  1.1905
  137CHL1  H21C16379   1.101   1.607  13.906  0.7779  1.2138 -0.4211
  137CHL1   C2216380   1.050   1.565  14.192  0.8261  0.4734 -0.9282
  137CHL1  H22A16381   1.153   1.525  14.202 -0.4763 -2.5755  3.2037
  137CHL1  H22B16382   1.044   1.676  14.199  2.2220  0.4602  2.8867
  137CHL1   C2316383   0.973   1.518  14.316  0.2234 -0.1479 -0.1125
  137CHL1  H23A16384   0.913   1.597  14.367  2.0336  0.4558  1.1861
  137CHL1  H23B16385   0.903   1.437  14.285  1.8591 -1.0317 -1.6908
  137CHL1   C2416386   1.051   1.464  14.433 -0.0803  0.1277 -0.4236
  137CHL1  H24A16387   0.977   1.409  14.495 -2.3383  0.0571 -2.9837
  137CHL1  H24B16388   1.129   1.394  14.399 -2.1969 -2.6055  0.0187
  137CHL1   C2516389   1.118   1.578  14.519 -0.5232  0.6300  0.2678
  137CHL1   H2516390   1.039   1.637  14.570  0.5549  1.1791  1.3650
  137CHL1   C2616391   1.204   1.517  14.631 -0.1627 -0.0138 -0.1472
  137CHL1  H26A16392   1.291   1.459  14.592 -0.1799  0.2141 -0.5319
  137CHL1  H26B16393   1.256   1.602  14.678 -0.8211 -0.1567  0.8724
  137CHL1  H26C16394   1.142   1.443  14.686 -0.8711 -0.6185 -1.6859
  137CHL1   C2716395   1.194   1.686  14.444  0.6863 -0.1435 -0.3535
  137CHL1  H27A16396   1.130   1.738  14.369  0.3459  1.0730  0.7290
  137CHL1  H27B16397   1.232   1.766  14.511 -2.6089 -0.6475  2.3609
  137CHL1  H27C16398   1.271   1.643  14.377 -1.0002 -0.7345 -2.0181
  138CHL1    C316399   6.110   5.396  12.571 -0.0654  0.2198 -0.7656
  138CHL1    H316400   6.140   5.501  12.591 -0.2276  0.0411  0.4419
  138CHL1    O316401   6.078   5.390  12.432 -0.1947  0.1742  0.4289
  138CHL1   H3'16402   6.027   5.309  12.422  0.0403  0.1607 -0.6912
  138CHL1    C416403   6.212   5.285  12.602 -0.9861  0.4753  0.2363
  138CHL1   H4A16404   6.163   5.194  12.563 -3.7568  1.5059  1.0574
  138CHL1   H4B16405   6.293   5.305  12.528 -2.0386  0.4390 -0.9577
  138CHL1    C516406   6.254   5.272  12.750  0.3689 -0.4257  0.3359
  138CHL1    C616407   6.387   5.270  12.784  0.0211  0.4357 -0.1348
  138CHL1    H616408   6.465   5.272  12.707  0.7281 -0.3530  0.5398
  138CHL1    C716409   6.433   5.269  12.925  0.5668  0.7572 -0.4872
  138CHL1   H7A16410   6.520   5.201  12.934  0.6875  0.7403 -1.6518
  138CHL1   H7B16411   6.468   5.374  12.938  1.3597  0.4717 -0.2864
  138CHL1    C816412   6.313   5.237  13.028 -0.6709 -0.1795  0.1524
  138CHL1    H816413   6.306   5.128  13.011 -0.3441 -0.1715 -0.0524
  138CHL1   C1416414   6.349   5.261  13.167  1.0658 -0.5238 -0.0310
  138CHL1   H1416415   6.366   5.370  13.177  1.0882 -0.3014 -2.0507
  138CHL1   C1516416   6.480   5.211  13.236 -0.1950 -0.0618 -0.2762
  138CHL1  H15A16417   6.497   5.104  13.211 -0.9049 -0.1080 -0.5681
  138CHL1  H15B16418   6.574   5.266  13.215  1.3772 -2.9991 -1.5137
  138CHL1   C1616419   6.456   5.230  13.382  0.1325  0.0463 -0.8334
  138CHL1  H16A16420   6.488   5.144  13.445  1.4650  1.5182  0.5625
  138CHL1  H16B16421   6.511   5.316  13.425 -1.1688  1.3073 -1.5802
  138CHL1   C1716422   6.304   5.255  13.410 -0.3877 -0.0684 -0.7339
  138CHL1   H1716423   6.277   5.362  13.419 -1.2643 -0.2407 -1.2137
  138CHL1   C1316424   6.236   5.222  13.268 -0.5270  0.3153 -0.3300
  138CHL1   C1816425   6.208   5.076  13.260  0.4543 -0.1641  0.4799
  138CHL1  H18A16426   6.264   5.026  13.342  1.8963  2.8322  1.4519
  138CHL1  H18B16427   6.106   5.037  13.279 -0.4021  1.3096 -0.8333
  138CHL1  H18C16428   6.241   5.027  13.165  1.5611  1.0848  0.1865
  138CHL1   C1216429   6.122   5.322  13.235  0.6702 -0.3745 -0.3159
  138CHL1  H12A16430   6.040   5.318  13.309 -0.2240 -1.2152 -1.3130
  138CHL1  H12B16431   6.170   5.422  13.239 -0.9245  0.3601  1.0732
  138CHL1   C1116432   6.072   5.304  13.099  0.2817  0.2999 -0.2655
  138CHL1  H11A16433   6.028   5.202  13.091  0.4526  0.2778 -0.9795
  138CHL1  H11B16434   5.996   5.382  13.079  0.3179  0.5356  0.5039
  138CHL1    C916435   6.185   5.318  12.989 -0.0527  0.5450  0.9545
  138CHL1    H916436   6.212   5.426  12.985  0.0636  0.5154 -2.6215
  138CHL1   C1016437   6.133   5.278  12.848 -1.0999  0.2382 -0.5053
  138CHL1   C1916438   6.085   5.125  12.849  0.1347 -0.3179  0.4315
  138CHL1  H19A16439   6.164   5.048  12.865 -0.5646 -1.1537 -0.0701
  138CHL1  H19B16440   6.000   5.100  12.916 -0.7316  0.2261 -0.4355
  138CHL1  H19C16441   6.045   5.099  12.749 -1.4161  1.1938  0.6118
  138CHL1    C116442   6.024   5.376  12.803 -0.0974  0.0978 -0.5522
  138CHL1   H1A16443   5.938   5.334  12.858  1.2521 -0.7108  1.0193
  138CHL1   H1B16444   6.031   5.482  12.837  1.6210 -0.8844  2.5011
  138CHL1    C216445   5.988   5.370  12.657  0.0992 -0.3181  0.1474
  138CHL1   H2A16446   5.905   5.443  12.642  0.7022  1.2430  3.4674
  138CHL1   H2B16447   5.948   5.269  12.634  1.9945 -1.4703  1.5474
  138CHL1   C2016448   6.255   5.193  13.539  0.0425 -0.2533  0.0076
  138CHL1   H2016449   6.272   5.084  13.531  1.0683 -0.1186  0.1672
  138CHL1   C2116450   6.101   5.210  13.564  0.3923  0.0416  0.6119
  138CHL1  H21A16451   6.070   5.316  13.579  2.9413  0.9488 -0.0537
  138CHL1  H21B16452   6.063   5.143  13.644  0.3636 -1.2088 -0.4133
  138CHL1  H21C16453   6.045   5.186  13.471 -0.1293  0.0714  0.9147
  138CHL1   C2216454   6.327   5.243  13.667 -0.0957 -0.0550  0.3531
  138CHL1  H22A16455   6.437   5.235  13.659 -0.1186  1.1163 -1.8745
  138CHL1  H22B16456   6.304   5.350  13.688  1.7138  0.3876  0.2588
  138CHL1   C2316457   6.298   5.150  13.787 -0.1959  0.1818 -0.2246
  138CHL1  H23A16458   6.193   5.136  13.820  0.1439 -0.7107  0.5289
  138CHL1  H23B16459   6.338   5.049  13.764 -0.8026  0.4168 -2.5191
  138CHL1   C2416460   6.378   5.192  13.911  0.8351  0.0503 -0.0639
  138CHL1  H24A16461   6.488   5.183  13.896  1.0395  0.4031  1.1110
  138CHL1  H24B16462   6.365   5.299  13.938 -1.8731 -0.8476  2.8461
  138CHL1   C2516463   6.341   5.120  14.042 -0.6349 -0.5666 -0.4294
  138CHL1   H2516464   6.232   5.136  14.053 -0.6262  0.0111 -1.1269
  138CHL1   C2616465   6.368   4.974  14.030  0.1667 -0.1979  0.1360
  138CHL1  H26A16466   6.470   4.952  13.990 -1.3885 -1.3792 -3.5994
  138CHL1  H26B16467   6.350   4.922  14.126  0.3914 -3.3680 -1.4117
  138CHL1  H26C16468   6.297   4.933  13.956  1.0075 -0.0756 -0.7752
  138CHL1   C2716469   6.415   5.181  14.161 -0.9182 -0.0229 -0.0877
  138CHL1  H27A16470   6.523   5.189  14.136 -0.4872 -0.3495  1.5331
  138CHL1  H27B16471   6.367   5.279  14.181 -1.0607 -0.0103 -0.4746
  138CHL1  H27C16472   6.405   5.115  14.249  3.6345  1.6644  1.9822
  139CHL1    C316473   1.048   5.427  12.583 -0.1042  0.2265 -0.0976
  139CHL1    H316474   1.123   5.346  12.596  0.5184  0.4641 -1.9023
  139CHL1    O316475   1.042   5.449  12.440 -0.2075 -0.0537 -0.7835
  139CHL1   H3'16476   0.990   5.528  12.423 -0.3383  0.3898  1.3295
  139CHL1    C416477   0.906   5.395  12.630 -0.2000 -0.3272 -0.0914
  139CHL1   H4A16478   0.828   5.466  12.594 -1.2373 -0.9121  0.9318
  139CHL1   H4B16479   0.872   5.304  12.575  0.4896  0.4218 -1.8542
  139CHL1    C516480   0.900   5.382  12.785  0.9565  0.5545 -0.0828
  139CHL1    C616481   0.853   5.261  12.842 -0.2916 -0.5439  0.0839
  139CHL1    H616482   0.816   5.175  12.783  1.7116 -0.1607 -1.8879
  139CHL1    C716483   0.850   5.236  12.987 -0.0508 -0.5863  0.9226
  139CHL1   H7A16484   0.761   5.173  13.007 -0.7359 -0.3060 -1.0049
  139CHL1   H7B16485   0.940   5.177  13.013  1.4416  1.9263  1.8131
  139CHL1    C816486   0.854   5.374  13.067  0.1445  0.0531  0.0629
  139CHL1    H816487   0.756   5.424  13.050  0.2628  0.6643  1.0472
  139CHL1   C1416488   0.863   5.347  13.218 -0.5197 -0.0895 -0.1865
  139CHL1   H1416489   0.958   5.289  13.224  0.2122  0.9376 -1.2950
  139CHL1   C1516490   0.756   5.255  13.286 -0.3879 -0.4114 -0.5149
  139CHL1  H15A16491   0.658   5.299  13.257 -0.1709 -0.1791 -0.9025
  139CHL1  H15B16492   0.764   5.149  13.252 -4.2074 -1.6084  1.6286
  139CHL1   C1616493   0.793   5.272  13.434  1.1967 -0.3018 -0.0300
  139CHL1  H16A16494   0.704   5.284  13.499  1.3920 -0.3461  0.2489
  139CHL1  H16B16495   0.857   5.188  13.469  0.9421  0.0293  1.2874
  139CHL1   C1716496   0.892   5.394  13.449  1.0044 -0.1611 -0.2559
  139CHL1   H1716497   0.995   5.352  13.454  0.0244 -2.8577 -0.8079
  139CHL1   C1316498   0.885   5.465  13.312 -0.4265 -0.6309  0.2727
  139CHL1   C1816499   0.766   5.563  13.302  0.1412  0.1414  0.2168
  139CHL1  H18A16500   0.787   5.654  13.362  2.1290  0.2787 -0.6291
  139CHL1  H18B16501   0.743   5.585  13.196  1.5165  0.1490 -0.1024
  139CHL1  H18C16502   0.685   5.505  13.352 -0.3308 -0.1635 -0.8596
  139CHL1   C1216503   1.011   5.538  13.263 -0.5717 -0.4396 -0.0336
  139CHL1  H12A16504   1.031   5.629  13.323 -0.7521 -0.2754 -0.2210
  139CHL1  H12B16505   1.101   5.473  13.267 -0.4554 -0.2938 -0.2802
  139CHL1   C1116506   1.001   5.580  13.111 -0.2188 -0.4907  0.1356
  139CHL1  H11A16507   0.927   5.660  13.092  0.0929 -0.2054  0.1043
  139CHL1  H11B16508   1.093   5.631  13.076 -1.4692  1.5540 -0.3172
  139CHL1    C916509   0.967   5.459  13.014  0.5642  0.3727  0.3808
  139CHL1    H916510   1.054   5.390  13.024  0.3536 -0.0295 -0.4798
  139CHL1   C1016511   0.950   5.498  12.864 -0.1120 -0.8485  0.0358
  139CHL1   C1916512   0.843   5.608  12.855 -0.1255 -0.2502  0.6519
  139CHL1  H19A16513   0.892   5.699  12.894 -1.1138  0.1800  0.9149
  139CHL1  H19B16514   0.808   5.623  12.750  1.7196  0.1669  0.0496
  139CHL1  H19C16515   0.755   5.600  12.922 -0.0759  2.0177  1.0674
  139CHL1    C116516   1.087   5.538  12.805 -0.2686 -0.2394 -0.0387
  139CHL1   H1A16517   1.118   5.635  12.850 -1.3664  0.8252 -1.4388
  139CHL1   H1B16518   1.167   5.468  12.837 -1.0848 -0.7779  0.8908
  139CHL1    C216519   1.091   5.556  12.654 -0.4465 -0.0962  0.0974
  139CHL1   H2A16520   1.185   5.592  12.607 -0.0090  0.0913  1.0962
  139CHL1   H2B16521   1.013   5.631  12.628 -1.0176 -0.2369  1.3538
  139CHL1   C2016522   0.874   5.479  13.579 -0.0618  0.2761 -0.3829
  139CHL1   H2016523   0.781   5.541  13.577 -0.2748  0.0451  1.4535
  139CHL1   C2116524   0.991   5.581  13.581  0.3053 -0.7396  0.2157
  139CHL1  H21A16525   1.090   5.538  13.556  0.1913 -0.3065 -1.0546
  139CHL1  H21B16526   0.996   5.618  13.685 -1.7067  0.9243 -0.1974
  139CHL1  H21C16527   0.965   5.664  13.511 -0.9358 -1.3896 -0.1307
  139CHL1   C2216528   0.876   5.394  13.707  0.3115 -0.0193 -0.3390
  139CHL1  H22A16529   0.878   5.455  13.800 -0.6437 -0.1399 -0.2389
  139CHL1  H22B16530   0.792   5.322  13.709 -0.3709  0.7679  0.1993
  139CHL1   C2316531   1.004   5.310  13.721  0.6111  0.3027  0.2442
  139CHL1  H23A16532   1.011   5.230  13.644 -2.0006  0.5591 -0.3774
  139CHL1  H23B16533   1.097   5.371  13.717  0.6291  0.2303 -1.4728
  139CHL1   C2416534   1.015   5.248  13.863  0.4182 -0.9411 -0.1380
  139CHL1  H24A16535   1.121   5.226  13.887  1.2123  1.2029 -1.4025
  139CHL1  H24B16536   0.982   5.325  13.936  0.5945  0.3591 -1.3861
  139CHL1   C2516537   0.916   5.135  13.874  0.4804  1.1864 -0.7455
  139CHL1   H2516538   0.816   5.177  13.853 -1.1785 -0.9047  2.2704
  139CHL1   C2616539   0.926   5.021  13.777 -0.0746 -0.5869  0.2918
  139CHL1  H26A16540   0.904   5.051  13.672 -1.1508 -1.4432  0.2450
  139CHL1  H26B16541   1.026   4.976  13.791  0.1334  0.1848  1.2920
  139CHL1  H26C16542   0.849   4.943  13.798  1.2255 -1.7077  1.0660
  139CHL1   C2716543   0.920   5.067  14.019  0.1986 -0.1349  0.0226
  139CHL1  H27A16544   0.873   4.966  14.015  1.3262 -0.6542 -0.4893
  139CHL1  H27B16545   1.025   5.059  14.052 -0.0034  2.9658  1.7548
  139CHL1  H27C16546   0.869   5.128  14.097 -0.2643 -1.1293  0.5213
  140CHL1    C316547   0.397   5.804  12.692 -0.5615 -0.1282  0.1959
  140CHL1    H316548   0.326   5.720  12.710 -2.0706  1.0738  0.1267
  140CHL1    O316549   0.426   5.805  12.552  0.4969  0.3584  0.7515
  140CHL1   H3'16550   0.480   5.885  12.546 -0.4674  0.9992  0.1414
  140CHL1    C416551   0.348   5.937  12.749  0.4012 -0.0041  0.1144
  140CHL1   H4A16552   0.418   6.023  12.735  0.3913  0.9090  4.2349
  140CHL1   H4B16553   0.261   5.964  12.685  1.2185 -0.2906 -1.1641
  140CHL1    C516554   0.322   5.934  12.895  0.4039 -0.0433 -0.1505
  140CHL1    C616555   0.198   5.948  12.944 -0.5317 -0.0933  0.0020
  140CHL1    H616556   0.112   5.976  12.881  0.3201  1.2871 -0.5872
  140CHL1    C716557   0.179   5.939  13.094  0.3029 -0.2940 -0.2762
  140CHL1   H7A16558   0.099   6.010  13.125 -0.6035 -1.1631 -0.5375
  140CHL1   H7B16559   0.142   5.836  13.113 -1.4734  0.7661  2.7481
  140CHL1    C816560   0.309   5.965  13.179  0.7053  0.6109 -0.8829
  140CHL1    H816561   0.332   6.072  13.156 -4.1458  1.8651 -1.2172
  140CHL1   C1416562   0.284   5.947  13.327  0.3390  0.0389 -0.2868
  140CHL1   H1416563   0.243   5.844  13.333  0.2505 -0.0820 -2.4369
  140CHL1   C1516564   0.173   6.028  13.404  0.1091 -0.3630  0.5252
  140CHL1  H15A16565   0.181   6.136  13.380 -1.9881  0.2004  2.0284
  140CHL1  H15B16566   0.075   5.988  13.369  0.8655 -1.5185 -0.3435
  140CHL1   C1616567   0.204   6.015  13.546 -1.3072 -0.2863 -0.0642
  140CHL1  H16A16568   0.212   6.112  13.599  2.9577 -0.3279 -0.3402
  140CHL1  H16B16569   0.124   5.958  13.600 -0.3165  1.1711  3.2015
  140CHL1   C1716570   0.337   5.942  13.549 -0.7678  0.3595  0.4839
  140CHL1   H1716571   0.303   5.836  13.550 -0.0730  0.1062 -0.6806
  140CHL1   C1316572   0.410   5.956  13.408 -0.2644  0.0626  0.0421
  140CHL1   C1816573   0.478   6.093  13.401 -0.7478  0.0516 -0.1869
  140CHL1  H18A16574   0.563   6.101  13.473 -0.6694 -1.0871 -0.1236
  140CHL1  H18B16575   0.521   6.117  13.302 -3.1940 -1.8812 -1.8276
  140CHL1  H18C16576   0.405   6.173  13.425 -0.6356  0.1685 -0.2357
  140CHL1   C1216577   0.504   5.846  13.372 -1.0665 -0.3926  0.0363
  140CHL1  H12A16578   0.602   5.852  13.424 -2.1793 -1.0168  2.3646
  140CHL1  H12B16579   0.461   5.745  13.391 -1.4744 -0.5131 -1.4563
  140CHL1   C1116580   0.537   5.866  13.222  0.2753 -0.0721 -0.7154
  140CHL1  H11A16581   0.602   5.956  13.216 -0.9462  1.1043  1.9059
  140CHL1  H11B16582   0.599   5.778  13.196 -1.2864 -1.9098  1.3615
  140CHL1    C916583   0.415   5.869  13.130 -0.0219 -0.7083 -0.4278
  140CHL1    H916584   0.363   5.771  13.132 -0.5593 -0.4273 -0.3223
  140CHL1   C1016585   0.448   5.891  12.976 -0.0775  0.8043 -0.1446
  140CHL1   C1916586   0.544   6.005  12.974  0.7133  0.4057 -0.0490
  140CHL1  H19A16587   0.561   6.051  12.874  0.6770 -2.5385 -1.5209
  140CHL1  H19B16588   0.521   6.089  13.043  1.1239  1.5822 -1.3042
  140CHL1  H19C16589   0.646   5.969  12.998  0.8104 -0.6460 -1.8294
  140CHL1    C116590   0.514   5.764  12.911 -0.3402  0.3221 -0.2636
  140CHL1   H1A16591   0.609   5.740  12.964 -1.0438 -0.7349  0.5749
  140CHL1   H1B16592   0.439   5.684  12.922 -2.0613  2.0667  1.3923
  140CHL1    C216593   0.534   5.773  12.758 -0.1425  0.5489  0.0762
  140CHL1   H2A16594   0.571   5.678  12.714 -2.1620  0.0335 -0.6145
  140CHL1   H2B16595   0.598   5.859  12.730 -1.2580  1.2220 -0.4584
  140CHL1   C2016596   0.415   5.964  13.684 -0.1804 -0.2310 -0.1163
  140CHL1   H2016597   0.361   5.913  13.767  0.1056 -2.9766 -1.5369
  140CHL1   C2116598   0.431   6.116  13.737 -0.1945  0.2141  0.6559
  140CHL1  H21A16599   0.328   6.158  13.748 -1.2157 -1.9642  0.0246
  140CHL1  H21B16600   0.494   6.181  13.672  0.5770 -0.8900  0.2818
  140CHL1  H21C16601   0.492   6.110  13.829 -0.7271 -1.2158  0.9333
  140CHL1   C2216602   0.548   5.889  13.695 -0.3386  0.4673  0.4215
  140CHL1  H22A16603   0.528   5.791  13.646  0.5924  2.1092 -3.6431
  140CHL1  H22B16604   0.623   5.932  13.625  0.7385  0.1241  1.3359
  140CHL1   C2316605   0.609   5.866  13.838  0.4173  0.6680 -0.4730
  140CHL1  H23A16606   0.643   5.957  13.892  2.2925  1.2481 -2.4477
  140CHL1  H23B16607   0.523   5.822  13.892  0.6533 -0.3824 -0.9231
  140CHL1   C2416608   0.725   5.775  13.843  0.8670  0.3459 -0.0820
  140CHL1  H24A16609   0.731   5.702  13.760 -0.7511 -3.7623  3.0752
  140CHL1  H24B16610   0.812   5.840  13.820  1.2511 -0.6381 -1.5629
  140CHL1   C2516611   0.749   5.709  13.977 -0.1972 -0.5085  0.1229
  140CHL1   H2516612   0.849   5.663  13.971 -0.3052 -0.6415 -0.9710
  140CHL1   C2616613   0.644   5.598  14.001 -0.0664  0.3753 -0.3187
  140CHL1  H26A16614   0.639   5.520  13.922 -1.0158  0.4357 -0.3252
  140CHL1  H26B16615   0.677   5.539  14.089 -0.7129  0.8234  0.2306
  140CHL1  H26C16616   0.543   5.640  14.018  0.9884  2.9156  0.1105
  140CHL1   C2716617   0.748   5.810  14.090  0.4727  0.3604 -0.0161
  140CHL1  H27A16618   0.754   5.758  14.188 -0.9344 -0.2371 -0.2267
  140CHL1  H27B16619   0.831   5.884  14.078  0.0946  0.9125  0.7391
  140CHL1  H27C16620   0.654   5.868  14.100 -0.2376 -0.8674  0.6307
  141DOPC     N16621   4.003   2.129  17.042  0.0393  0.1888  0.0083
  141DOPC   C1216622   3.929   2.005  17.003  0.6244 -0.1629 -0.4444
  141DOPC  H12A16623   3.966   1.920  17.059  1.8591  0.2540 -0.6093
  141DOPC  H12B16624   3.953   1.973  16.903 -1.9172  0.9381 -1.4879
  141DOPC   C1316625   3.956   2.178  17.180 -0.6446  0.0002  0.2847
  141DOPC  H13A16626   3.953   2.094  17.249 -1.1312 -0.4475 -0.2705
  141DOPC  H13B16627   4.024   2.253  17.218 -1.0210 -0.1203  1.2324
  141DOPC  H13C16628   3.854   2.212  17.173 -0.5430  0.2973  0.2271
  141DOPC   C1416629   3.985   2.247  16.946  0.1186  0.5316 -0.0669
  141DOPC  H14A16630   3.889   2.295  16.959 -0.1087  0.2799 -0.7837
  141DOPC  H14B16631   4.054   2.328  16.964 -1.5186  1.5335  2.3436
  141DOPC  H14C16632   3.999   2.213  16.845 -0.4307 -0.9985  0.3410
  141DOPC   C1516633   4.145   2.103  17.044 -0.2511 -0.7873 -0.0076
  141DOPC  H15A16634   4.173   2.032  17.121  2.4296  0.6688  0.4819
  141DOPC  H15B16635   4.195   2.196  17.065 -3.2739  1.1186 -0.7459
  141DOPC  H15C16636   4.173   2.068  16.946  0.2112  1.3472 -0.6743
  141DOPC   C1116637   3.776   1.998  17.008  0.0512  0.0704  0.3585
  141DOPC  H11A16638   3.733   2.091  16.967  0.0141 -0.6486 -1.3163
  141DOPC  H11B16639   3.736   1.929  16.931  0.0343  0.2769  0.1827
  141DOPC     P16640   3.724   1.834  17.206 -0.3774 -0.1053  0.1392
  141DOPC   O1316641   3.638   1.830  17.330  0.5052 -0.1977 -1.1375
  141DOPC   O1416642   3.863   1.782  17.216  0.1909 -0.4421  0.1512
  141DOPC   O1216643   3.722   1.980  17.141 -0.6801  1.0698 -0.3760
  141DOPC   O1116644   3.659   1.751  17.083 -0.2688 -0.6051  0.2609
  141DOPC    C116645   3.522   1.738  17.062 -0.4157 -0.2189 -0.9164
  141DOPC    HA16646   3.479   1.838  17.038 -0.2547  0.2085  0.4685
  141DOPC    HB16647   3.479   1.692  17.154  0.9039 -1.7664 -1.0418
  141DOPC    C216648   3.500   1.644  16.937 -0.5112  0.0676 -0.4962
  141DOPC    HS16649   3.527   1.539  16.962 -1.0862 -0.2010 -0.9855
  141DOPC   O2116650   3.586   1.692  16.828  0.5946  0.5070 -0.2815
  141DOPC   C2116651   3.700   1.631  16.799  0.0430 -0.1922 -0.5762
  141DOPC   O2216652   3.754   1.549  16.874  0.0004 -0.4175  0.0220
  141DOPC   C2216653   3.756   1.661  16.657 -0.0439 -0.2361 -0.0233
  141DOPC   H2R16654   3.837   1.736  16.662 -0.6365  0.3130  1.9878
  141DOPC   H2S16655   3.672   1.702  16.596  0.3584 -0.4669 -0.7468
  141DOPC    C316656   3.352   1.640  16.883 -0.0733 -0.0640  0.3087
  141DOPC    HX16657   3.314   1.743  16.869 -1.6836 -0.8437 -1.4017
  141DOPC    HY16658   3.282   1.608  16.963 -0.3795  0.6544  0.3362
  141DOPC   O3116659   3.333   1.561  16.764  0.1333  0.1573  0.0076
  141DOPC   C3116660   3.327   1.634  16.651 -0.0505  0.1625  0.8603
  141DOPC   O3216661   3.338   1.752  16.641  0.1545  0.0408  0.1750
  141DOPC   C3216662   3.322   1.534  16.532  0.0364 -0.4667 -0.6082
  141DOPC   H2X16663   3.390   1.447  16.548  1.1964  0.1055 -2.1653
  141DOPC   H2Y16664   3.221   1.489  16.535  0.1334 -0.6435  0.7297
  141DOPC   C2316665   3.814   1.532  16.588  0.1531 -0.2931 -0.7954
  141DOPC   H3R16666   3.740   1.451  16.607 -0.8881  1.1075  1.5026
  141DOPC   H3S16667   3.904   1.518  16.651 -0.2705  0.4833 -0.0028
  141DOPC   C2416668   3.854   1.548  16.441 -0.2210  0.0575  0.1517
  141DOPC   H4R16669   3.924   1.470  16.404 -0.3192  0.1898 -0.3170
  141DOPC   H4S16670   3.909   1.643  16.424 -0.9888  0.5278  0.2603
  141DOPC   C2516671   3.734   1.545  16.353 -0.5116  0.0160  0.3886
  141DOPC   H5R16672   3.680   1.641  16.369 -1.1645  0.0237 -1.6562
  141DOPC   H5S16673   3.668   1.462  16.386  0.2709 -0.8390 -0.1490
  141DOPC   C2616674   3.772   1.538  16.203  0.2638 -0.8625 -0.6527
  141DOPC   H6R16675   3.837   1.454  16.171 -1.0993 -1.5059 -1.8469
  141DOPC   H6S16676   3.836   1.626  16.182 -1.8799  0.9118 -0.1854
  141DOPC   C2716677   3.652   1.568  16.113 -0.6407  0.4872  0.1463
  141DOPC   H7R16678   3.595   1.659  16.145 -0.3945  1.4088 -1.9030
  141DOPC   H7S16679   3.576   1.487  16.112 -0.0460 -0.0958 -1.9653
  141DOPC   C2816680   3.697   1.596  15.969  0.3366 -0.1085 -0.4322
  141DOPC   H8R16681   3.804   1.627  15.966 -0.4101  2.6860 -2.6413
  141DOPC   H8S16682   3.640   1.685  15.935  0.0580 -0.4235 -0.7937
  141DOPC   C2916683   3.675   1.477  15.879 -0.0539  0.1549 -0.2999
  141DOPC   H9R16684   3.682   1.380  15.931 -1.0160  0.2218 -0.0261
  141DOPC  C21016685   3.650   1.473  15.749  0.4906  0.4980 -0.2720
  141DOPC  H10R16686   3.632   1.376  15.701  0.2325 -1.4136  3.3389
  141DOPC  C21116687   3.629   1.590  15.666 -0.8460 -0.5829  0.6264
  141DOPC  H11R16688   3.668   1.685  15.709  2.1281 -0.4095 -2.0855
  141DOPC  H11S16689   3.520   1.593  15.645 -0.6800 -0.5183 -0.2646
  141DOPC  C21216690   3.693   1.581  15.527 -0.3834 -0.5106 -1.1173
  141DOPC  H12R16691   3.801   1.566  15.549 -0.2570 -0.0964 -1.4485
  141DOPC  H12S16692   3.685   1.682  15.482  0.7906  0.3863  0.5868
  141DOPC  C21316693   3.633   1.473  15.435  0.0497 -0.6301  0.3592
  141DOPC  H13R16694   3.524   1.495  15.432  0.3272  0.8231  0.1370
  141DOPC  H13S16695   3.653   1.373  15.478 -0.4514 -1.5355 -1.4581
  141DOPC  C21416696   3.684   1.470  15.289 -0.1677 -0.0433  0.1870
  141DOPC  H14R16697   3.789   1.436  15.279 -1.0158 -2.8848  0.1067
  141DOPC  H14S16698   3.669   1.561  15.227  1.3797 -1.0745 -1.8172
  141DOPC  C21516699   3.600   1.375  15.212 -0.5265 -0.1734 -0.2721
  141DOPC  H15R16700   3.492   1.396  15.228 -0.2245  0.2490  1.3618
  141DOPC  H15S16701   3.600   1.274  15.258 -2.1368  0.8195  2.0752
  141DOPC  C21616702   3.635   1.355  15.061  0.4373 -0.7098 -0.3517
  141DOPC  H16R16703   3.557   1.287  15.020 -0.9061 -0.3467  1.4660
  141DOPC  H16S16704   3.737   1.312  15.056  1.5663  1.3520  2.3374
  141DOPC  C21716705   3.622   1.487  14.983 -0.3296 -0.0490  0.2841
  141DOPC  H17R16706   3.715   1.543  15.005 -0.2219  0.3092 -1.0123
  141DOPC  H17S16707   3.533   1.547  15.012  0.6978  1.9062 -0.4241
  141DOPC  C21816708   3.626   1.469  14.834 -0.4135  0.7374  0.2398
  141DOPC  H18R16709   3.723   1.424  14.803 -0.2146  1.8185 -0.7783
  141DOPC  H18S16710   3.596   1.553  14.767  0.5194 -0.8737 -2.3712
  141DOPC  H18T16711   3.555   1.389  14.805  1.6114 -0.8318 -0.6715
  141DOPC   C3316712   3.343   1.598  16.398  0.2407 -0.5864  0.8768
  141DOPC   H3X16713   3.453   1.605  16.386  0.4350  0.2088  2.7424
  141DOPC   H3Y16714   3.297   1.700  16.391  2.0048  0.1759 -0.3434
  141DOPC   C3416715   3.261   1.518  16.296  0.3731  0.6101 -0.1932
  141DOPC   H4X16716   3.168   1.476  16.341 -0.1974  1.6607 -0.3729
  141DOPC   H4Y16717   3.312   1.423  16.268  1.3558  0.7385  1.0773
  141DOPC   C3516718   3.230   1.602  16.176 -0.8047 -0.2919  0.5690
  141DOPC   H5X16719   3.320   1.645  16.126 -1.1551  0.2483  0.3948
  141DOPC   H5Y16720   3.179   1.696  16.205  0.9871  0.9957 -0.2447
  141DOPC   C3616721   3.126   1.534  16.079  0.0967 -0.0944 -0.0693
  141DOPC   H6X16722   3.138   1.424  16.077  2.8583  0.1001 -3.4256
  141DOPC   H6Y16723   3.027   1.566  16.117 -0.4521 -0.7581 -0.8981
  141DOPC   C3716724   3.150   1.587  15.934 -1.2048 -0.0745  0.0051
  141DOPC   H7X16725   3.145   1.698  15.941  1.1727  0.0074  4.0891
  141DOPC   H7Y16726   3.257   1.567  15.911 -0.7750  2.6102 -0.6955
  141DOPC   C3816727   3.055   1.532  15.827  0.1578 -0.7909 -0.0017
  141DOPC   H8X16728   2.955   1.533  15.875  0.6670  0.7534  1.1441
  141DOPC   H8Y16729   3.074   1.426  15.802  2.7796 -1.3144  3.4481
  141DOPC   C3916730   3.047   1.631  15.714  0.4371  0.3288 -0.3096
  141DOPC   H9X16731   3.021   1.730  15.754 -0.6821 -0.9303  2.2759
  141DOPC  C31016732   3.058   1.597  15.582  0.9961 -0.4885  0.5350
  141DOPC  H10X16733   3.048   1.681  15.512 -1.5512  0.5998  2.0425
  141DOPC  C31116734   3.075   1.466  15.509 -0.0274 -0.0422 -0.1662
  141DOPC  H11X16735   2.977   1.430  15.470  0.3446 -1.3030 -0.0079
  141DOPC  H11Y16736   3.117   1.389  15.577  1.3995  1.6089  0.8903
  141DOPC  C31216737   3.158   1.475  15.384 -0.2910 -0.5471 -1.2816
  141DOPC  H12X16738   3.182   1.371  15.355  1.1692 -0.5081 -0.3271
  141DOPC  H12Y16739   3.258   1.522  15.398  1.0588 -3.3928 -0.5864
  141DOPC  C31316740   3.090   1.547  15.263 -0.0578  0.4986 -0.2034
  141DOPC  H13X16741   3.001   1.492  15.223  0.5678  0.1443 -1.1515
  141DOPC  H13Y16742   3.062   1.650  15.293 -0.4566  0.9229 -1.9480
  141DOPC  C31416743   3.200   1.569  15.148 -0.1919  0.5407  0.4007
  141DOPC  H14X16744   3.279   1.640  15.183  1.6317 -1.7860  1.3204
  141DOPC  H14Y16745   3.249   1.469  15.155 -1.2689  0.0970  2.7729
  141DOPC  C31516746   3.145   1.596  15.007  0.0637 -0.4495  0.3284
  141DOPC  H15X16747   3.098   1.697  15.010  2.0343  0.5315 -0.0963
  141DOPC  H15Y16748   3.065   1.519  15.000  0.5350 -1.0238  1.1272
  141DOPC  C31616749   3.262   1.575  14.905  0.6071  0.2651 -0.2702
  141DOPC  H16X16750   3.342   1.649  14.921 -1.4094  2.4207  0.3499
  141DOPC  H16Y16751   3.296   1.470  14.921 -1.6730 -0.3089  1.3448
  141DOPC  C31716752   3.209   1.580  14.763  0.4241  0.2437  0.3623
  141DOPC  H17X16753   3.163   1.679  14.743  1.1607  0.3052 -1.2010
  141DOPC  H17Y16754   3.300   1.584  14.698 -0.0605  0.1159 -0.3332
  141DOPC  C31816755   3.111   1.474  14.722 -0.5234 -0.6351  0.0317
  141DOPC  H18X16756   3.147   1.371  14.745  1.6320 -0.6924 -2.9266
  141DOPC  H18Y16757   3.015   1.486  14.776 -0.1884 -1.2961  0.7901
  141DOPC  H18Z16758   3.090   1.489  14.614  0.0454 -0.3425 -0.0450
  142DOPC     N16759   5.343   1.591  17.245 -0.1651 -0.4059 -0.3535
  142DOPC   C1216760   5.220   1.552  17.170  0.0152 -0.0380  0.1661
  142DOPC  H12A16761   5.137   1.618  17.187 -0.1515  0.2559 -1.5767
  142DOPC  H12B16762   5.186   1.456  17.205  0.5744 -0.3386 -0.0947
  142DOPC   C1316763   5.384   1.728  17.198 -0.0249  0.6331  0.3074
  142DOPC  H13A16764   5.296   1.789  17.210 -0.4624 -0.3083  2.1894
  142DOPC  H13B16765   5.459   1.766  17.265 -0.1067  0.6929  0.3638
  142DOPC  H13C16766   5.429   1.711  17.101  0.6721 -2.9100  1.1164
  142DOPC   C1416767   5.454   1.496  17.230 -0.3369 -0.0020  0.8108
  142DOPC  H14A16768   5.554   1.530  17.256  1.0504 -2.9812 -0.2220
  142DOPC  H14B16769   5.433   1.406  17.284  0.0844 -0.7306 -0.2111
  142DOPC  H14C16770   5.466   1.468  17.126  2.2542 -1.3057  1.3812
  142DOPC   C1516771   5.311   1.605  17.396  0.0548  0.1409 -0.0728
  142DOPC  H15A16772   5.228   1.673  17.405  0.8287  1.0516  0.2904
  142DOPC  H15B16773   5.395   1.632  17.459 -0.0010 -1.4726  0.7545
  142DOPC  H15C16774   5.272   1.514  17.440 -1.6718 -0.4144 -2.5071
  142DOPC   C1116775   5.237   1.532  17.018 -0.3408 -0.2392  0.1248
  142DOPC  H11A16776   5.330   1.478  16.991  0.5588  1.1085  0.3954
  142DOPC  H11B16777   5.157   1.464  16.982  0.8844 -0.9431 -1.3867
  142DOPC     P16778   5.112   1.708  16.879 -0.2523 -0.3145 -0.1414
  142DOPC   O1316779   5.144   1.822  16.789 -0.5743  0.1163  0.0111
  142DOPC   O1416780   5.017   1.739  16.991 -0.1381 -0.0572 -0.1789
  142DOPC   O1216781   5.247   1.655  16.940 -0.6524  0.2619 -0.5578
  142DOPC   O1116782   5.049   1.593  16.793  0.9475 -0.1757 -0.4312
  142DOPC    C116783   5.129   1.513  16.706 -0.4394 -0.2012  0.8580
  142DOPC    HA16784   5.120   1.407  16.737  0.9445 -1.3088 -2.1143
  142DOPC    HB16785   5.238   1.532  16.714 -0.7292  0.9879  2.3693
  142DOPC    C216786   5.106   1.523  16.553 -0.1210  0.3323  0.1691
  142DOPC    HS16787   5.154   1.620  16.531  1.3201 -0.2435  0.6349
  142DOPC   O2116788   4.967   1.543  16.526  0.0661 -0.6668 -0.1312
  142DOPC   C2116789   4.887   1.442  16.548 -0.0655  1.2496  0.0049
  142DOPC   O2216790   4.915   1.333  16.593 -0.9776 -0.2424  0.0343
  142DOPC   C2216791   4.754   1.493  16.494 -0.1639  0.1115  0.2912
  142DOPC   H2R16792   4.760   1.595  16.452  0.7462 -0.6236 -1.4391
  142DOPC   H2S16793   4.688   1.496  16.584 -0.9592 -1.8036 -0.1774
  142DOPC    C316794   5.185   1.434  16.459  0.0123 -0.2569  0.2020
  142DOPC    HX16795   5.165   1.331  16.496 -0.6164  0.0464  0.7347
  142DOPC    HY16796   5.293   1.453  16.476 -0.5312  1.6317  2.0254
  142DOPC   O3116797   5.145   1.456  16.320  0.2901  0.9536 -0.3444
  142DOPC   C3116798   5.172   1.568  16.256  0.1931  0.2819 -0.0929
  142DOPC   O3216799   5.213   1.674  16.308 -0.4348 -0.0675  0.9343
  142DOPC   C3216800   5.151   1.547  16.110  0.3196 -0.0194  0.2329
  142DOPC   H2X16801   5.209   1.463  16.065 -0.2524 -0.8033  0.9325
  142DOPC   H2Y16802   5.044   1.525  16.094  0.5316 -0.4629 -0.6298
  142DOPC   C2316803   4.688   1.405  16.388  0.0711  0.6688 -0.2371
  142DOPC   H3R16804   4.579   1.424  16.400 -0.0792  0.4279 -1.1021
  142DOPC   H3S16805   4.704   1.299  16.416 -0.4150  0.4963 -0.5872
  142DOPC   C2416806   4.742   1.429  16.249  0.0332  0.0693  0.0233
  142DOPC   H4R16807   4.713   1.341  16.188 -1.7760  0.2483  0.5671
  142DOPC   H4S16808   4.852   1.429  16.256  0.0349  1.8887  0.4914
  142DOPC   C2516809   4.679   1.551  16.185 -0.6824  0.9975  0.0287
  142DOPC   H5R16810   4.691   1.643  16.246 -0.1162  0.5334  0.6244
  142DOPC   H5S16811   4.570   1.539  16.166 -0.7409  0.5884  0.5908
  142DOPC   C2616812   4.725   1.576  16.034  0.4027  0.2885 -0.8569
  142DOPC   H6R16813   4.764   1.482  15.989  2.0805  1.6845 -2.4703
  142DOPC   H6S16814   4.814   1.642  16.038 -2.0587  3.8510 -0.2115
  142DOPC   C2716815   4.615   1.649  15.955 -0.3123  0.2913  0.0364
  142DOPC   H7R16816   4.574   1.743  15.998 -0.6048 -0.4169  1.3672
  142DOPC   H7S16817   4.525   1.585  15.946  0.1574 -0.2749 -0.7137
  142DOPC   C2816818   4.668   1.679  15.817  0.7924  0.4175  0.3774
  142DOPC   H8R16819   4.770   1.722  15.822  0.9153  0.3562 -1.1895
  142DOPC   H8S16820   4.607   1.758  15.767 -0.2378 -0.4044  0.2929
  142DOPC   C2916821   4.656   1.562  15.723 -0.7676 -0.3823 -0.8380
  142DOPC   H9R16822   4.635   1.469  15.778 -0.3737  0.8135  1.4471
  142DOPC  C21016823   4.683   1.567  15.592 -0.5549 -0.0288 -0.1164
  142DOPC  H10R16824   4.667   1.480  15.527  0.8702 -1.1913  1.0221
  142DOPC  C21116825   4.727   1.691  15.512 -0.3852  0.5695 -0.0540
  142DOPC  H11R16826   4.832   1.678  15.478  0.2565 -0.2714  2.1140
  142DOPC  H11S16827   4.727   1.778  15.582  1.7750  0.9984 -0.5116
  142DOPC  C21216828   4.641   1.723  15.379 -0.0934 -0.1537  0.0704
  142DOPC  H12R16829   4.688   1.810  15.329 -1.5907 -0.5849 -2.2519
  142DOPC  H12S16830   4.535   1.747  15.403 -0.7327 -1.4838 -1.2476
  142DOPC  C21316831   4.663   1.611  15.276  0.6662  0.9647 -0.4586
  142DOPC  H13R16832   4.610   1.522  15.317  0.6022  1.0753 -0.3005
  142DOPC  H13S16833   4.763   1.564  15.261  0.5219  0.5230 -0.0459
  142DOPC  C21416834   4.598   1.648  15.148  0.3866  1.1216  0.3231
  142DOPC  H14R16835   4.643   1.740  15.106 -1.0233  1.8064  0.2616
  142DOPC  H14S16836   4.497   1.678  15.184  0.3563  2.0195 -0.4741
  142DOPC  C21516837   4.594   1.535  15.047  0.6293  0.6321  0.2103
  142DOPC  H15R16838   4.546   1.453  15.104  1.8804  0.2390  0.7242
  142DOPC  H15S16839   4.697   1.514  15.010  0.0061 -0.9146 -0.7907
  142DOPC  C21616840   4.515   1.571  14.922  0.6104  0.1481  0.2105
  142DOPC  H16R16841   4.563   1.651  14.861 -0.8001  1.3606  0.6202
  142DOPC  H16S16842   4.417   1.611  14.958  1.4547  1.7627  0.7946
  142DOPC  C21716843   4.498   1.442  14.844  0.5419  0.5110  0.5789
  142DOPC  H17R16844   4.454   1.355  14.898  0.0814 -0.4328 -1.2392
  142DOPC  H17S16845   4.603   1.418  14.817  0.6271  0.8094  0.6414
  142DOPC  C21816846   4.413   1.468  14.713 -0.4154 -0.3657  0.4957
  142DOPC  H18R16847   4.430   1.371  14.662 -1.0887 -0.3654  0.2532
  142DOPC  H18S16848   4.456   1.554  14.658  0.5022  0.0040  1.7602
  142DOPC  H18T16849   4.303   1.473  14.733 -0.7885 -1.8389 -0.9644
  142DOPC   C3316850   5.197   1.675  16.036 -0.7792  0.1852 -0.1516
  142DOPC   H3X16851   5.300   1.704  16.066 -1.7174  1.7328  1.7679
  142DOPC   H3Y16852   5.129   1.756  16.069 -1.4373 -1.0407  1.6496
  142DOPC   C3416853   5.185   1.660  15.879 -0.0097  0.2795  0.5486
  142DOPC   H4X16854   5.077   1.663  15.854  0.3604  0.0576 -1.1815
  142DOPC   H4Y16855   5.236   1.573  15.834  0.4203  0.9783 -0.3409
  142DOPC   C3516856   5.250   1.774  15.794  0.1897  0.2325 -0.0642
  142DOPC   H5X16857   5.359   1.775  15.818  0.0544  0.6350  0.5564
  142DOPC   H5Y16858   5.202   1.872  15.817  0.4782  0.1917  0.7618
  142DOPC   C3616859   5.236   1.754  15.640  0.2830 -1.0639  0.8107
  142DOPC   H6X16860   5.317   1.815  15.594  0.1349  1.0691  3.1914
  142DOPC   H6Y16861   5.253   1.645  15.621  0.1788 -1.2460  1.7412
  142DOPC   C3716862   5.101   1.790  15.572 -0.5931  0.1024  0.1940
  142DOPC   H7X16863   5.028   1.717  15.613  1.8784 -3.4591 -1.2586
  142DOPC   H7Y16864   5.068   1.894  15.593  1.8733  0.8638  0.5608
  142DOPC   C3816865   5.109   1.782  15.418 -0.2587  0.2078 -0.2147
  142DOPC   H8X16866   5.198   1.842  15.388 -0.8430  0.2056 -2.0970
  142DOPC   H8Y16867   5.022   1.828  15.367 -2.9864 -0.2099  3.6517
  142DOPC   C3916868   5.108   1.640  15.360 -0.0439  0.1889  0.2757
  142DOPC   H9X16869   5.143   1.564  15.432  1.1886  0.1971 -0.2811
  142DOPC  C31016870   5.073   1.604  15.236 -0.1959  0.8960 -0.2958
  142DOPC  H10X16871   5.069   1.497  15.210  2.5107  0.3395  1.1834
  142DOPC  C31116872   5.026   1.688  15.126  0.0873  0.6879 -0.7153
  142DOPC  H11X16873   5.052   1.795  15.143 -1.2096  1.2049 -1.7770
  142DOPC  H11Y16874   4.915   1.697  15.118  0.0682  2.6435  0.8415
  142DOPC  C31216875   5.072   1.623  14.996 -1.1741  0.9119  0.5726
  142DOPC  H12X16876   5.047   1.691  14.911 -2.1695 -1.4920 -1.1558
  142DOPC  H12Y16877   5.029   1.524  14.972  0.0617  0.6140 -0.4857
  142DOPC  C31316878   5.224   1.601  14.978 -0.0215  0.0240 -0.8745
  142DOPC  H13X16879   5.285   1.691  15.001  0.7175 -0.5929 -0.3251
  142DOPC  H13Y16880   5.261   1.528  15.054 -2.2461  1.0356  1.3387
  142DOPC  C31416881   5.260   1.557  14.838  0.3200  0.2123  0.0997
  142DOPC  H14X16882   5.208   1.626  14.768  0.5437 -0.5962 -0.9037
  142DOPC  H14Y16883   5.369   1.577  14.822  0.4503 -0.0089  0.6955
  142DOPC  C31516884   5.224   1.414  14.800  0.6227  0.1543  0.6834
  142DOPC  H15X16885   5.225   1.407  14.689 -2.5913  3.4910  0.2408
  142DOPC  H15Y16886   5.118   1.397  14.828  0.3783 -1.9655 -1.2228
  142DOPC  C31616887   5.313   1.304  14.856 -0.0367  0.0040 -0.1547
  142DOPC  H16X16888   5.413   1.302  14.808 -0.2511  1.1212 -0.6931
  142DOPC  H16Y16889   5.328   1.326  14.964  0.1273 -1.2522  0.0884
  142DOPC  C31716890   5.273   1.159  14.829  0.0994  0.0940 -0.2930
  142DOPC  H17X16891   5.352   1.096  14.875  0.2519  0.9381  0.6342
  142DOPC  H17Y16892   5.183   1.142  14.893  1.4941 -0.9896  1.4695
  142DOPC  C31816893   5.258   1.115  14.686  0.0691  0.0249  0.6256
  142DOPC  H18X16894   5.241   1.204  14.621 -1.5046 -1.0328 -0.4550
  142DOPC  H18Y16895   5.350   1.063  14.654 -1.4771 -0.8829 -2.7092
  142DOPC  H18Z16896   5.171   1.050  14.665 -0.5273  0.8372  0.5212
  143DOPC     N16897   2.268   2.192  16.888 -0.2225  0.0578 -0.1765
  143DOPC   C1216898   2.349   2.291  16.808  0.7370 -0.5096 -0.0867
  143DOPC  H12A16899   2.420   2.328  16.880 -1.1386 -0.9138  2.0820
  143DOPC  H12B16900   2.285   2.374  16.780 -0.5440  0.2553  4.3641
  143DOPC   C1316901   2.342   2.063  16.911 -0.5108 -0.0490  0.5614
  143DOPC  H13A16902   2.436   2.091  16.957 -0.8934  2.1432  0.1371
  143DOPC  H13B16903   2.290   1.987  16.968  2.1391 -2.1105  0.4303
  143DOPC  H13C16904   2.367   2.031  16.811  0.0821  1.3232  0.2453
  143DOPC   C1416905   2.146   2.153  16.822 -0.6760  0.5344  0.8320
  143DOPC  H14A16906   2.160   2.137  16.716 -1.9332 -2.4285  1.0122
  143DOPC  H14B16907   2.106   2.064  16.868 -2.4226  0.3633 -0.8569
  143DOPC  H14C16908   2.071   2.231  16.826 -2.1135 -0.7636  0.3561
  143DOPC   C1516909   2.232   2.251  17.021 -0.3271 -0.0759 -0.9202
  143DOPC  H15A16910   2.157   2.194  17.074 -1.5356  0.6623 -1.7801
  143DOPC  H15B16911   2.183   2.347  17.010 -0.5216 -0.2973 -2.0819
  143DOPC  H15C16912   2.315   2.264  17.089 -1.0587  1.6236 -0.3029
  143DOPC   C1116913   2.432   2.256  16.681 -0.6475 -0.1663  0.2932
  143DOPC  H11A16914   2.357   2.213  16.612 -0.6536  2.1921 -1.2695
  143DOPC  H11B16915   2.465   2.348  16.628 -1.7290 -0.6852 -1.3455
  143DOPC     P16916   2.658   2.241  16.792  0.3342  0.2541  0.0340
  143DOPC   O1316917   2.716   2.138  16.877  0.0516  0.4161 -0.2925
  143DOPC   O1416918   2.609   2.361  16.861 -0.5907 -0.2843  0.2953
  143DOPC   O1216919   2.547   2.177  16.711  0.1377 -0.0599 -0.0388
  143DOPC   O1116920   2.764   2.294  16.684  0.5052 -0.3372 -0.5882
  143DOPC    C116921   2.836   2.202  16.589  0.0370  0.5469 -0.2892
  143DOPC    HA16922   2.838   2.099  16.630 -0.7060  0.3681 -0.6749
  143DOPC    HB16923   2.941   2.233  16.575  0.6509 -0.4177  1.7049
  143DOPC    C216924   2.767   2.203  16.451 -0.4868  0.1736  0.4772
  143DOPC    HS16925   2.658   2.192  16.465 -0.2778 -0.7228  1.5437
  143DOPC   O2116926   2.822   2.109  16.362  0.5081 -0.0004  0.0048
  143DOPC   C2116927   2.769   1.988  16.375  1.0261 -0.1324 -0.5351
  143DOPC   O2216928   2.670   1.959  16.445 -0.1833 -0.5008 -0.4828
  143DOPC   C2216929   2.856   1.881  16.304  0.0498  0.4849 -0.0176
  143DOPC   H2R16930   2.785   1.815  16.250 -0.9284 -1.8095  3.7251
  143DOPC   H2S16931   2.913   1.824  16.380 -0.1312 -1.2699 -1.1518
  143DOPC    C316932   2.772   2.348  16.387  0.2177  0.6499 -0.2061
  143DOPC    HX16933   2.879   2.375  16.376  0.4697  0.1602  0.8995
  143DOPC    HY16934   2.739   2.412  16.472  1.7925 -0.2148  1.1133
  143DOPC   O3116935   2.691   2.357  16.271  0.2179 -0.5446  0.0532
  143DOPC   C3116936   2.720   2.447  16.185 -0.2203 -0.3917  0.1369
  143DOPC   O3216937   2.804   2.534  16.200 -0.3148  0.4789 -0.1876
  143DOPC   C3216938   2.660   2.413  16.053 -0.0146  0.0855 -0.0970
  143DOPC   H2X16939   2.632   2.305  16.056  1.2542 -0.2967 -1.1635
  143DOPC   H2Y16940   2.563   2.467  16.042  0.4951  0.8045 -1.1621
  143DOPC   C2316941   2.953   1.938  16.198  0.2142 -0.1309  0.3419
  143DOPC   H3R16942   3.011   1.855  16.152 -1.8625 -1.2598 -0.3943
  143DOPC   H3S16943   3.020   2.009  16.251  0.1403  1.6037 -1.7904
  143DOPC   C2416944   2.880   2.006  16.082 -0.1588  0.1870 -0.2604
  143DOPC   H4R16945   2.847   2.110  16.098  0.8787  0.2265  1.9706
  143DOPC   H4S16946   2.791   1.949  16.048 -0.9745  0.5823  1.1265
  143DOPC   C2516947   2.982   2.012  15.962 -0.2127 -0.1058  0.1227
  143DOPC   H5R16948   3.059   1.933  15.975 -0.0632 -0.0960 -0.6722
  143DOPC   H5S16949   3.030   2.112  15.968  0.4228 -0.3980 -0.0287
  143DOPC   C2616950   2.914   1.988  15.830  0.3460 -0.6303  0.5407
  143DOPC   H6R16951   2.832   2.062  15.818  0.2026 -0.8128  0.3877
  143DOPC   H6S16952   2.866   1.888  15.822  0.6209 -0.8482  1.4606
  143DOPC   C2716953   3.008   1.999  15.707 -1.0039  0.7615 -0.4839
  143DOPC   H7R16954   3.095   1.932  15.722 -0.4378  2.0520  2.9389
  143DOPC   H7S16955   3.059   2.097  15.715  0.6267  0.3082 -3.5491
  143DOPC   C2816956   2.948   1.986  15.572 -0.2663 -1.0661  0.9906
  143DOPC   H8R16957   2.856   2.047  15.572 -1.3021 -2.5651  1.7170
  143DOPC   H8S16958   2.905   1.886  15.550  0.5073 -1.0180 -0.9041
  143DOPC   C2916959   3.045   2.031  15.463  0.3433 -0.6320  0.3169
  143DOPC   H9R16960   3.142   2.057  15.508  0.1394  0.8237 -0.0334
  143DOPC  C21016961   3.038   2.025  15.327  0.4224  0.7652 -0.7060
  143DOPC  H10R16962   3.132   2.046  15.273  0.8405 -0.7509 -0.6031
  143DOPC  C21116963   2.930   1.948  15.247 -0.0312 -0.1329  0.2234
  143DOPC  H11R16964   2.831   1.996  15.264 -0.0666 -0.0589 -0.1811
  143DOPC  H11S16965   2.925   1.842  15.277 -0.5084 -0.0402  0.4770
  143DOPC  C21216966   2.971   1.956  15.098 -0.2054  0.4243  0.4551
  143DOPC  H12R16967   2.883   1.918  15.041  0.2111  1.7328 -1.1373
  143DOPC  H12S16968   3.064   1.901  15.071  0.5353  0.8160  2.1169
  143DOPC  C21316969   2.979   2.095  15.032  0.1659 -0.2688  0.2558
  143DOPC  H13R16970   3.076   2.149  15.042 -1.3600  2.4847  0.9293
  143DOPC  H13S16971   2.905   2.161  15.081 -0.0159  1.1520 -1.8318
  143DOPC  C21416972   2.947   2.089  14.879  0.2565  0.6642 -0.0045
  143DOPC  H14R16973   2.942   2.194  14.845 -3.2740  0.7160  0.3470
  143DOPC  H14S16974   2.846   2.043  14.866  0.4083 -0.1007  1.2940
  143DOPC  C21516975   3.050   2.015  14.794  0.2447  0.4945 -0.2957
  143DOPC  H15R16976   3.001   1.929  14.744 -0.6130 -0.4011  1.9732
  143DOPC  H15S16977   3.127   1.975  14.863  0.0636  1.6455  0.5975
  143DOPC  C21616978   3.134   2.105  14.696 -1.0190  1.0847 -0.1004
  143DOPC  H16R16979   3.194   2.175  14.759 -2.9147 -0.8182  4.2195
  143DOPC  H16S16980   3.064   2.151  14.624 -1.3610  0.3937 -0.2139
  143DOPC  C21716981   3.236   2.022  14.621  0.7236  0.0737 -0.5191
  143DOPC  H17R16982   3.186   1.938  14.568  1.4222  0.0432 -1.1389
  143DOPC  H17S16983   3.310   1.974  14.688  0.1613  1.5563  1.2680
  143DOPC  C21816984   3.318   2.099  14.515  0.4801 -0.1319  0.1506
  143DOPC  H18R16985   3.248   2.168  14.463 -0.2473 -1.0313 -0.0800
  143DOPC  H18S16986   3.371   2.034  14.443  0.5569  0.5927 -0.4671
  143DOPC  H18T16987   3.388   2.169  14.567  0.5706 -1.3602  1.7430
  143DOPC   C3316988   2.758   2.457  15.941 -0.5769 -0.5558 -0.4292
  143DOPC   H3X16989   2.847   2.391  15.945  0.4490  0.7654  4.3696
  143DOPC   H3Y16990   2.793   2.560  15.960  3.0409 -1.2155 -2.6292
  143DOPC   C3416991   2.690   2.443  15.805 -0.3433 -0.5392 -0.3622
  143DOPC   H4X16992   2.588   2.485  15.817 -0.2167  0.1363 -1.5163
  143DOPC   H4Y16993   2.681   2.338  15.771 -0.8253  0.5755 -4.0492
  143DOPC   C3516994   2.764   2.518  15.701  0.3920 -0.2710 -0.8520
  143DOPC   H5X16995   2.872   2.494  15.711  0.3914 -0.0426 -0.2364
  143DOPC   H5Y16996   2.766   2.625  15.732 -2.5490 -0.7556  1.5085
  143DOPC   C3616997   2.722   2.494  15.551  0.3175 -0.2474 -0.0127
  143DOPC   H6X16998   2.800   2.543  15.490  0.4183  1.3069  1.3118
  143DOPC   H6Y16999   2.720   2.384  15.538 -1.7081 -0.5712  2.3226
  143DOPC   C3717000   2.578   2.535  15.525  0.1634 -0.1124 -0.4016
  143DOPC   H7X17001   2.507   2.475  15.586  0.1292 -1.9860 -2.1655
  143DOPC   H7Y17002   2.569   2.642  15.552  0.7378  0.6473 -2.9679
  143DOPC   C3817003   2.544   2.517  15.376 -0.1950 -0.5223 -0.1955
  143DOPC   H8X17004   2.438   2.548  15.374  0.1097  0.5340 -0.3148
  143DOPC   H8Y17005   2.547   2.413  15.336 -1.2816 -0.0345 -1.6221
  143DOPC   C3917006   2.618   2.620  15.289 -0.5210  0.2449  0.0731
  143DOPC   H9X17007   2.629   2.722  15.329  0.1117  1.3581 -2.7294
  143DOPC  C31017008   2.681   2.606  15.175 -0.7449 -0.8232  0.3129
  143DOPC  H10X17009   2.709   2.700  15.126 -1.7365 -1.3996 -1.4427
  143DOPC  C31117010   2.691   2.487  15.082 -0.8347 -0.2720  0.1924
  143DOPC  H11X17011   2.662   2.392  15.131 -2.3502 -0.5561 -1.1588
  143DOPC  H11Y17012   2.795   2.488  15.043 -0.7738  2.5431  0.2098
  143DOPC  C31217013   2.605   2.508  14.956  0.4160 -0.0099  0.7733
  143DOPC  H12X17014   2.624   2.417  14.895 -2.2130 -0.6276  0.7668
  143DOPC  H12Y17015   2.635   2.597  14.898 -0.4074 -0.4052 -0.2875
  143DOPC  C31317016   2.460   2.516  14.985 -0.1082 -0.6625 -0.0625
  143DOPC  H13X17017   2.429   2.434  15.053 -1.2342  0.5192  0.8913
  143DOPC  H13Y17018   2.439   2.608  15.044  0.2035  0.0283 -1.0060
  143DOPC  C31417019   2.360   2.513  14.870 -0.0936  0.2407 -0.0759
  143DOPC  H14X17020   2.379   2.413  14.826  0.2719  0.1701  0.2368
  143DOPC  H14Y17021   2.261   2.519  14.920 -0.1797  0.1789 -0.2370
  143DOPC  C31517022   2.371   2.603  14.750 -0.5125  0.3916 -0.2325
  143DOPC  H15X17023   2.475   2.594  14.711  0.6506  1.6389  2.2648
  143DOPC  H15Y17024   2.350   2.709  14.776  0.0995 -0.0663  2.4781
  143DOPC  C31617025   2.286   2.548  14.638  1.1826 -0.7784  0.7806
  143DOPC  H16X17026   2.325   2.451  14.600  0.1276 -0.9226  0.0363
  143DOPC  H16Y17027   2.179   2.548  14.666  1.1661  0.6567  0.7854
  143DOPC  C31717028   2.284   2.636  14.512  0.4667  0.1567 -0.6056
  143DOPC  H17X17029   2.243   2.734  14.547 -1.6694  0.3038 -3.1252
  143DOPC  H17Y17030   2.386   2.643  14.470  1.2872  2.9655  1.5319
  143DOPC  C31817031   2.180   2.597  14.408  0.6504  0.4552  0.1834
  143DOPC  H18X17032   2.075   2.594  14.446  0.8592 -0.2724  0.7144
  143DOPC  H18Y17033   2.174   2.671  14.325  1.2947  0.8152  0.4490
  143DOPC  H18Z17034   2.209   2.496  14.372 -2.4510 -1.0419  1.4487
  144DOPC     N17035   2.170   1.543  17.300 -0.0050 -0.2852 -0.2890
  144DOPC   C1217036   2.262   1.462  17.216 -0.5618  0.1312  0.7674
  144DOPC  H12A17037   2.292   1.369  17.261  0.0268 -0.2489 -0.3643
  144DOPC  H12B17038   2.351   1.520  17.192  0.1667 -1.7205 -1.3854
  144DOPC   C1317039   2.147   1.679  17.239  0.3366  0.4280 -0.1982
  144DOPC  H13A17040   2.241   1.727  17.213  0.5937 -0.4201 -0.8795
  144DOPC  H13B17041   2.093   1.661  17.147  0.1141 -2.4215  0.4019
  144DOPC  H13C17042   2.089   1.732  17.312  0.9101 -0.7279  1.1361
  144DOPC   C1417043   2.238   1.559  17.434  0.1053  0.5579 -0.2781
  144DOPC  H14A17044   2.179   1.626  17.495 -2.7783 -2.1409  0.1704
  144DOPC  H14B17045   2.252   1.468  17.491 -0.0987  1.2884  0.9745
  144DOPC  H14C17046   2.332   1.607  17.413  1.1073 -0.1173  2.3023
  144DOPC   C1517047   2.035   1.476  17.314  1.1513  0.5767 -0.6908
  144DOPC  H15A17048   1.976   1.528  17.388 -0.8998 -0.2100 -1.6976
  144DOPC  H15B17049   2.045   1.369  17.329 -0.9358  0.5005  0.4417
  144DOPC  H15C17050   1.977   1.497  17.226 -0.5530  0.0186  0.2539
  144DOPC   C1117051   2.199   1.396  17.090  0.0181  0.2496 -0.0230
  144DOPC  H11A17052   2.277   1.335  17.039  0.6094  2.2231 -1.6681
  144DOPC  H11B17053   2.115   1.328  17.114 -0.2505  0.1113 -1.2548
  144DOPC     P17054   2.012   1.525  16.940  0.3342  0.1556  0.0316
  144DOPC   O1317055   1.953   1.644  17.006  0.1122 -0.5336 -0.9566
  144DOPC   O1417056   1.934   1.402  16.945  0.5669  0.2246 -0.6200
  144DOPC   O1217057   2.158   1.502  17.001  0.2666 -0.5002 -0.8747
  144DOPC   O1117058   2.035   1.563  16.788  0.1327 -0.4477 -0.3146
  144DOPC    C117059   2.109   1.468  16.708 -0.0808 -0.8430  0.8616
  144DOPC    HA17060   2.066   1.480  16.607  0.4606 -0.3463  0.6779
  144DOPC    HB17061   2.109   1.363  16.744 -0.3979 -0.7331  1.1918
  144DOPC    C217062   2.262   1.512  16.709  0.7012 -0.3974  0.1712
  144DOPC    HS17063   2.289   1.548  16.811  2.0048 -0.8937  0.0166
  144DOPC   O2117064   2.285   1.607  16.603  0.4719 -0.0453 -0.3239
  144DOPC   C2117065   2.245   1.738  16.627 -0.1815 -0.3906  0.0086
  144DOPC   O2217066   2.223   1.789  16.736 -0.5075  0.4974  0.0395
  144DOPC   C2217067   2.227   1.809  16.497 -0.5032  0.0561  0.4745
  144DOPC   H2R17068   2.223   1.920  16.510  2.0305  0.1199  1.2220
  144DOPC   H2S17069   2.136   1.769  16.448  0.2128 -1.7497  0.5499
  144DOPC    C317070   2.353   1.392  16.686 -0.1475 -0.4531 -0.2309
  144DOPC    HX17071   2.334   1.310  16.759  0.3161 -3.2942 -3.0813
  144DOPC    HY17072   2.455   1.436  16.688  0.2780 -1.4186 -0.1632
  144DOPC   O3117073   2.346   1.349  16.544 -0.3451  0.6807  0.5382
  144DOPC   C3117074   2.258   1.249  16.520 -0.0479 -0.4315  0.9038
  144DOPC   O3217075   2.194   1.192  16.606 -0.2542 -0.1628  0.2808
  144DOPC   C3217076   2.268   1.208  16.368  0.0422 -0.9205 -0.6719
  144DOPC   H2X17077   2.353   1.137  16.358 -0.5120 -1.6502 -0.3348
  144DOPC   H2Y17078   2.173   1.153  16.348  0.0352 -1.0654 -0.2438
  144DOPC   C2317079   2.341   1.776  16.395 -0.0495 -0.0492  0.5001
  144DOPC   H3R17080   2.329   1.668  16.373 -1.9715 -0.1355  1.7307
  144DOPC   H3S17081   2.437   1.808  16.442  2.5391 -1.0474 -3.5548
  144DOPC   C2417082   2.334   1.851  16.260  0.1034  0.6360 -0.3935
  144DOPC   H4R17083   2.338   1.961  16.275  0.2567  0.5227  0.4519
  144DOPC   H4S17084   2.236   1.821  16.217 -0.3110  2.3951 -0.7286
  144DOPC   C2517085   2.456   1.811  16.170 -0.2228 -0.0479 -0.2681
  144DOPC   H5R17086   2.420   1.716  16.126 -0.4163 -0.1165  0.0366
  144DOPC   H5S17087   2.549   1.805  16.230 -0.0126  1.1899 -0.4411
  144DOPC   C2617088   2.491   1.912  16.060  0.5314 -0.6821  0.0619
  144DOPC   H6R17089   2.583   1.889  16.003 -0.5850 -1.4990 -1.4843
  144DOPC   H6S17090   2.496   2.016  16.099  2.0186  0.5452 -3.0803
  144DOPC   C2717091   2.376   1.916  15.956  0.4225 -0.5410  0.0689
  144DOPC   H7R17092   2.275   1.926  16.001  0.8933  0.5809  0.9407
  144DOPC   H7S17093   2.374   1.821  15.899 -2.8153 -0.7043  0.3053
  144DOPC   C2817094   2.370   2.030  15.845 -0.1668  0.5158 -0.5078
  144DOPC   H8R17095   2.336   2.124  15.895 -0.0133 -0.5463  1.7142
  144DOPC   H8S17096   2.278   2.012  15.787 -1.9560 -0.2085  2.3286
  144DOPC   C2917097   2.493   2.044  15.763  0.1627 -0.1952 -0.1372
  144DOPC   H9R17098   2.586   2.049  15.820 -0.5517  0.1251  1.0369
  144DOPC  C21017099   2.506   2.049  15.631 -0.3190 -0.0521  0.4455
  144DOPC  H10R17100   2.607   2.053  15.587 -1.0180 -1.2218 -1.4030
  144DOPC  C21117101   2.391   2.043  15.531  0.4007 -0.3133  0.2831
  144DOPC  H11R17102   2.298   2.088  15.571  1.5712 -0.8050  3.9344
  144DOPC  H11S17103   2.374   1.941  15.490 -0.7603  0.1304 -0.3734
  144DOPC  C21217104   2.419   2.129  15.411 -0.3986  1.1126  0.2800
  144DOPC  H12R17105   2.441   2.234  15.439  0.1583  1.4185 -1.1686
  144DOPC  H12S17106   2.329   2.136  15.347  0.1751 -0.4141 -0.7639
  144DOPC  C21317107   2.535   2.074  15.322  0.0900  0.0258  0.8271
  144DOPC  H13R17108   2.535   1.964  15.313 -0.4626  0.1916 -2.8029
  144DOPC  H13S17109   2.635   2.097  15.362  0.2765  0.6826  0.0078
  144DOPC  C21417110   2.525   2.129  15.184  0.2434 -0.0343  0.3130
  144DOPC  H14R17111   2.628   2.118  15.144  0.6132 -1.6450  1.5976
  144DOPC  H14S17112   2.499   2.237  15.180  2.2662  0.4463 -1.0604
  144DOPC  C21517113   2.434   2.042  15.100  0.2852  0.1354 -0.4596
  144DOPC  H15R17114   2.343   2.011  15.155 -0.7624  0.2972 -2.0294
  144DOPC  H15S17115   2.497   1.952  15.087  1.1546  0.3654  1.7691
  144DOPC  C21617116   2.394   2.089  14.962  0.3066 -0.4392 -0.2548
  144DOPC  H16R17117   2.366   2.194  14.981  0.4773 -0.3613 -0.4397
  144DOPC  H16S17118   2.309   2.031  14.920  2.4629 -4.4037  0.2692
  144DOPC  C21717119   2.507   2.087  14.857 -0.3977  0.3161 -0.3893
  144DOPC  H17R17120   2.557   1.988  14.847 -0.0963 -0.1788  3.9767
  144DOPC  H17S17121   2.582   2.167  14.876  0.4165 -0.2367 -1.1799
  144DOPC  C21817122   2.461   2.125  14.719  0.9563  0.0722  0.6262
  144DOPC  H18R17123   2.382   2.202  14.730 -0.1734 -1.3294  3.3093
  144DOPC  H18S17124   2.419   2.036  14.668 -1.1038  1.1719  0.3220
  144DOPC  H18T17125   2.551   2.155  14.660  0.0087  2.7805  0.3998
  144DOPC   C3317126   2.271   1.334  16.278  0.0797  0.1589  0.0458
  144DOPC   H3X17127   2.353   1.398  16.318  0.1494 -0.2524  0.5825
  144DOPC   H3Y17128   2.180   1.397  16.273 -0.3893 -0.4404  0.7587
  144DOPC   C3417129   2.275   1.308  16.126  0.7053  0.1292 -0.4510
  144DOPC   H4X17130   2.316   1.402  16.083  1.0453 -0.9057 -2.4841
  144DOPC   H4Y17131   2.175   1.292  16.079  1.4251  0.7327 -2.2821
  144DOPC   C3517132   2.366   1.196  16.074  0.4669 -0.1431 -0.5720
  144DOPC   H5X17133   2.332   1.104  16.125  1.0085  0.7778  1.5845
  144DOPC   H5Y17134   2.471   1.216  16.107  0.2072  0.5017 -0.1020
  144DOPC   C3617135   2.357   1.169  15.928  0.2745  0.9594  0.5355
  144DOPC   H6X17136   2.250   1.158  15.901  0.5168  1.7051 -0.7900
  144DOPC   H6Y17137   2.396   1.259  15.876  0.8314  1.2587  1.4510
  144DOPC   C3717138   2.422   1.048  15.866 -0.0723  0.1577  0.7726
  144DOPC   H7X17139   2.532   1.052  15.886  0.3240  1.8627 -1.3762
  144DOPC   H7Y17140   2.379   0.957  15.911 -0.2644 -0.1037  0.0761
  144DOPC   C3817141   2.403   1.038  15.715 -0.1890 -0.0509  0.6322
  144DOPC   H8X17142   2.297   1.060  15.690 -0.2245 -2.2418 -1.5062
  144DOPC   H8Y17143   2.413   0.929  15.693 -0.1122 -0.5694  2.9144
  144DOPC   C3917144   2.501   1.122  15.634 -0.1260  0.2418 -0.1994
  144DOPC   H9X17145   2.598   1.071  15.624 -1.6699 -3.6538  2.1357
  144DOPC  C31017146   2.472   1.216  15.542  0.9993  0.5220 -1.4992
  144DOPC  H10X17147   2.552   1.231  15.468  2.1375 -1.2159 -0.6874
  144DOPC  C31117148   2.336   1.268  15.497 -0.0181 -0.3245 -0.1129
  144DOPC  H11X17149   2.335   1.377  15.475 -0.2840 -0.1869  0.5711
  144DOPC  H11Y17150   2.265   1.264  15.582  0.6973 -2.2149  0.4342
  144DOPC  C31217151   2.282   1.194  15.378 -0.1577 -0.2455  0.0018
  144DOPC  H12X17152   2.194   1.255  15.352  0.1639  0.4463  0.5153
  144DOPC  H12Y17153   2.243   1.093  15.406 -0.1825 -0.3222 -0.3045
  144DOPC  C31317154   2.377   1.192  15.255 -0.1368  0.2546 -0.2150
  144DOPC  H13X17155   2.423   1.293  15.246 -0.6707  0.7739  2.0458
  144DOPC  H13Y17156   2.461   1.126  15.285  2.4671  2.6179 -1.8655
  144DOPC  C31417157   2.316   1.134  15.131 -0.1179 -0.9327 -0.0333
  144DOPC  H14X17158   2.288   1.031  15.162  2.0288 -1.3132  0.8401
  144DOPC  H14Y17159   2.230   1.195  15.095 -1.3018 -1.4469  1.7908
  144DOPC  C31517160   2.421   1.105  15.021 -0.4264 -0.0279 -0.8446
  144DOPC  H15X17161   2.474   1.009  15.043 -0.3067 -0.0080 -1.0457
  144DOPC  H15Y17162   2.496   1.186  15.013 -1.5261  1.0068 -0.9143
  144DOPC  C31617163   2.350   1.099  14.886 -0.0698  0.0746 -0.2839
  144DOPC  H16X17164   2.272   1.020  14.884  1.5145 -1.6361  1.2087
  144DOPC  H16Y17165   2.301   1.198  14.877 -3.6477 -1.3426  1.5229
  144DOPC  C31717166   2.434   1.080  14.759  0.7129  0.4694 -0.0749
  144DOPC  H17X17167   2.510   1.004  14.786 -0.6055 -0.6184  0.6839
  144DOPC  H17Y17168   2.362   1.033  14.688 -2.2628  3.0339  1.0329
  144DOPC  C31817169   2.497   1.210  14.713 -0.1804 -0.2829 -0.0535
  144DOPC  H18X17170   2.559   1.205  14.621  0.0062 -0.5482  0.0822
  144DOPC  H18Y17171   2.425   1.292  14.694  2.9410  2.5795 -0.5076
  144DOPC  H18Z17172   2.550   1.250  14.802 -0.4112 -2.0914  0.9590
  145DOPC     N17173   2.429   3.046  16.498  0.4744  0.6305  0.0462
  145DOPC   C1217174   2.407   3.130  16.376  0.3065 -0.2518  0.0205
  145DOPC  H12A17175   2.340   3.210  16.405  0.1391  0.8401 -3.0581
  145DOPC  H12B17176   2.360   3.067  16.302  0.4918 -0.1340 -0.1983
  145DOPC   C1317177   2.309   2.989  16.547  0.5753 -0.1146  0.4208
  145DOPC  H13A17178   2.255   2.944  16.465  1.4585  0.9069 -0.7496
  145DOPC  H13B17179   2.336   2.908  16.613  0.8558  0.3065  0.8270
  145DOPC  H13C17180   2.253   3.067  16.596  0.6935  0.6101 -0.5607
  145DOPC   C1417181   2.492   3.135  16.604 -0.4904 -0.7599  0.6576
  145DOPC  H14A17182   2.592   3.158  16.570  0.6550  2.4491  5.1811
  145DOPC  H14B17183   2.435   3.225  16.621  0.0146 -0.2954 -0.0520
  145DOPC  H14C17184   2.501   3.087  16.701  1.3037  1.3970  1.6603
  145DOPC   C1517185   2.530   2.929  16.472  0.7199 -0.1184 -0.5127
  145DOPC  H15A17186   2.622   2.979  16.446  0.2141  0.7611 -0.6715
  145DOPC  H15B17187   2.514   2.868  16.384  0.0768 -0.1065 -0.4093
  145DOPC  H15C17188   2.539   2.872  16.563 -0.1077 -1.4437 -1.2417
  145DOPC   C1117189   2.536   3.186  16.312 -0.2006  0.4236  0.2434
  145DOPC  H11A17190   2.601   3.104  16.274 -0.7347  1.1266 -2.3814
  145DOPC  H11B17191   2.511   3.239  16.218  2.3205  3.0741  0.9375
  145DOPC     P17192   2.589   3.421  16.387  0.0850 -0.4666  0.3230
  145DOPC   O1317193   2.692   3.496  16.459  0.8124 -0.2006 -0.6471
  145DOPC   O1417194   2.450   3.456  16.407  0.0058  0.4585 -0.1576
  145DOPC   O1217195   2.612   3.267  16.395  0.4256 -0.1720  0.6544
  145DOPC   O1117196   2.614   3.443  16.234 -0.2743  0.2142 -0.2600
  145DOPC    C117197   2.739   3.443  16.173 -0.1078 -1.1322  0.4988
  145DOPC    HA17198   2.745   3.371  16.088  1.2442  0.4621 -0.8219
  145DOPC    HB17199   2.821   3.411  16.241  1.4091 -2.3618 -1.7707
  145DOPC    C217200   2.780   3.592  16.120 -0.5975  0.2722 -0.1669
  145DOPC    HS17201   2.755   3.659  16.205 -0.5414 -0.7387  0.6708
  145DOPC   O2117202   2.715   3.631  15.996  1.1547  0.6767 -0.3921
  145DOPC   C2117203   2.683   3.758  15.990 -0.2316  0.1019  0.0449
  145DOPC   O2217204   2.689   3.834  16.086 -0.6684  0.1349  0.3181
  145DOPC   C2217205   2.657   3.792  15.845  0.8639  0.2190 -0.7909
  145DOPC   H2R17206   2.567   3.732  15.821  0.5136 -0.1273  1.2258
  145DOPC   H2S17207   2.735   3.748  15.779  2.3040 -0.3464  1.1614
  145DOPC    C317208   2.929   3.598  16.107  0.1105 -0.1326  0.0103
  145DOPC    HX17209   2.971   3.578  16.207 -0.4627 -2.9523 -0.2338
  145DOPC    HY17210   2.947   3.706  16.088 -1.5025  0.6254  2.3651
  145DOPC   O3117211   2.987   3.515  16.010 -0.4167  0.5652  0.3641
  145DOPC   C3117212   3.053   3.411  16.050 -0.2102  0.4136 -0.7674
  145DOPC   O3217213   3.068   3.380  16.165  0.1979  0.4229  0.0664
  145DOPC   C3217214   3.085   3.320  15.931  0.0477 -0.0666  0.3611
  145DOPC   H2X17215   3.144   3.236  15.975 -1.7272 -0.6901  1.7010
  145DOPC   H2Y17216   2.981   3.291  15.902 -1.1467  3.4768  0.6153
  145DOPC   C2317217   2.627   3.943  15.807  0.3849 -0.0384  0.3196
  145DOPC   H3R17218   2.699   4.006  15.864  0.1959  0.8173 -0.3614
  145DOPC   H3S17219   2.529   3.979  15.844  1.0117  2.1112  0.0282
  145DOPC   C2417220   2.641   3.972  15.661 -0.0852 -0.0866  0.3173
  145DOPC   H4R17221   2.750   3.968  15.642 -0.0462  0.5745  0.3886
  145DOPC   H4S17222   2.601   4.075  15.647  1.7433  0.8513  1.6166
  145DOPC   C2517223   2.555   3.886  15.560 -0.9598  0.6222 -0.7464
  145DOPC   H5R17224   2.453   3.874  15.603 -0.2652 -1.2545  0.5155
  145DOPC   H5S17225   2.598   3.784  15.548 -2.0088  0.0747 -0.0417
  145DOPC   C2617226   2.549   3.941  15.416  0.6206  0.1716  0.3138
  145DOPC   H6R17227   2.558   4.052  15.415 -0.3189  0.2659  0.8889
  145DOPC   H6S17228   2.454   3.907  15.369  1.6068 -1.7089 -0.4002
  145DOPC   C2717229   2.673   3.885  15.337  0.5239  0.5233 -0.1284
  145DOPC   H7R17230   2.667   3.775  15.351  0.9732  0.7430  2.1915
  145DOPC   H7S17231   2.759   3.925  15.394 -0.2156 -0.0121  1.4219
  145DOPC   C2817232   2.690   3.930  15.192 -0.1359 -0.8731  0.6906
  145DOPC   H8R17233   2.790   3.904  15.150  0.4743  2.1279  0.0443
  145DOPC   H8S17234   2.699   4.040  15.185  1.3589 -0.8333  2.4322
  145DOPC   C2917235   2.588   3.888  15.090 -0.0448 -0.3967  0.8824
  145DOPC   H9R17236   2.528   3.803  15.125 -0.7728 -0.2064  0.1165
  145DOPC  C21017237   2.558   3.950  14.968 -0.5104 -0.0758 -0.3288
  145DOPC  H10R17238   2.492   3.890  14.905 -2.4771 -0.8375  2.3088
  145DOPC  C21117239   2.634   4.073  14.921  0.0005  0.6628  0.6062
  145DOPC  H11R17240   2.739   4.072  14.956  1.1392 -0.2849 -2.4935
  145DOPC  H11S17241   2.569   4.151  14.967 -1.5716 -1.2118  1.7523
  145DOPC  C21217242   2.638   4.074  14.761 -0.3757  0.2429  0.0793
  145DOPC  H12R17243   2.664   3.973  14.724 -1.4386 -0.5419  1.3769
  145DOPC  H12S17244   2.707   4.156  14.730 -2.2684  1.1040 -2.1958
  145DOPC  C21317245   2.509   4.123  14.686 -0.0134  0.3933 -0.2355
  145DOPC  H13R17246   2.464   4.212  14.735 -1.5102 -1.4642  1.9958
  145DOPC  H13S17247   2.436   4.040  14.681  0.1659  0.2664 -0.7934
  145DOPC  C21417248   2.541   4.179  14.541  0.3881  0.5774  0.5024
  145DOPC  H14R17249   2.563   4.084  14.488  1.8686  2.1266 -1.8461
  145DOPC  H14S17250   2.635   4.236  14.559  1.4898 -0.6538 -1.1162
  145DOPC  C21517251   2.425   4.260  14.489 -0.7611 -0.1877  0.0813
  145DOPC  H15R17252   2.384   4.340  14.553 -3.4998 -0.4930 -1.1339
  145DOPC  H15S17253   2.345   4.194  14.447  0.0559 -1.5642  0.6101
  145DOPC  C21617254   2.471   4.345  14.373  0.0952 -0.7139 -0.2795
  145DOPC  H16R17255   2.450   4.302  14.272 -1.1147  1.0445 -0.8167
  145DOPC  H16S17256   2.579   4.368  14.381  0.1665 -1.2667  0.4816
  145DOPC  C21717257   2.402   4.488  14.371  0.2208 -0.1730 -0.3500
  145DOPC  H17R17258   2.433   4.544  14.462  0.4575  3.3441 -2.4190
  145DOPC  H17S17259   2.293   4.466  14.377  0.2081 -0.0776 -0.2274
  145DOPC  C21817260   2.432   4.566  14.246  0.1737 -0.4036 -0.1096
  145DOPC  H18R17261   2.398   4.672  14.243  1.2094 -0.0617 -2.8692
  145DOPC  H18S17262   2.385   4.517  14.158  1.3819 -2.4567  0.3121
  145DOPC  H18T17263   2.542   4.569  14.231  0.2671  0.1955  0.6191
  145DOPC   C3317264   3.157   3.390  15.814 -0.2293  0.0711  0.1618
  145DOPC   H3X17265   3.262   3.409  15.846  0.0607 -2.2078  0.7022
  145DOPC   H3Y17266   3.116   3.493  15.804  2.4478  1.2686  0.6831
  145DOPC   C3417267   3.150   3.312  15.679  0.2888 -0.2813 -0.7709
  145DOPC   H4X17268   3.046   3.273  15.679 -0.8309  2.4095  0.8053
  145DOPC   H4Y17269   3.217   3.224  15.681  0.3118 -0.2553  0.4058
  145DOPC   C3517270   3.177   3.411  15.567  0.1222 -0.3787  0.4551
  145DOPC   H5X17271   3.282   3.445  15.558 -0.2321  0.7538  0.3953
  145DOPC   H5Y17272   3.102   3.493  15.561  0.3200 -0.2454 -0.3835
  145DOPC   C3617273   3.152   3.335  15.434 -0.2164 -0.1518 -0.3735
  145DOPC   H6X17274   3.191   3.231  15.442  0.8819  0.2316 -0.6767
  145DOPC   H6Y17275   3.044   3.330  15.409 -0.3522 -1.2940  0.3395
  145DOPC   C3717276   3.217   3.396  15.309  0.4823  0.4134 -0.0053
  145DOPC   H7X17277   3.326   3.392  15.327  0.4512 -0.3930  0.0427
  145DOPC   H7Y17278   3.190   3.339  15.217  0.5208  0.7752 -0.2427
  145DOPC   C3817279   3.170   3.539  15.277  0.3521  0.2954 -0.1349
  145DOPC   H8X17280   3.230   3.574  15.190  1.2287  1.7072  0.9923
  145DOPC   H8Y17281   3.201   3.594  15.368  0.4460  1.0825 -0.6286
  145DOPC   C3917282   3.024   3.555  15.249 -0.0925 -0.0411  0.1949
  145DOPC   H9X17283   2.966   3.571  15.341 -0.8145 -3.2707  0.4244
  145DOPC  C31017284   2.963   3.551  15.132 -0.5396  0.1694 -0.3953
  145DOPC  H10X17285   2.854   3.570  15.129 -0.2132  2.7177  1.0202
  145DOPC  C31117286   3.021   3.515  14.997 -0.6023  0.4825 -0.3376
  145DOPC  H11X17287   2.986   3.421  14.951 -1.0329 -0.1884  1.2736
  145DOPC  H11Y17288   3.131   3.504  15.013 -0.8515  0.2818  1.4890
  145DOPC  C31217289   3.001   3.618  14.884 -0.2185  0.3978 -0.7515
  145DOPC  H12X17290   2.892   3.617  14.861 -1.1366  0.9976  2.9972
  145DOPC  H12Y17291   3.059   3.584  14.796  1.7528  1.0487  0.2510
  145DOPC  C31317292   3.037   3.766  14.926 -0.4263 -0.2254  0.1672
  145DOPC  H13X17293   3.003   3.788  15.029  0.0323 -0.5089  0.3802
  145DOPC  H13Y17294   3.146   3.785  14.924 -0.2500 -1.2206 -0.9019
  145DOPC  C31417295   2.969   3.877  14.837  0.5928 -0.6460 -0.0727
  145DOPC  H14X17296   2.863   3.844  14.837 -0.0759  1.1356  2.9176
  145DOPC  H14Y17297   2.972   3.972  14.895 -2.8271  0.2351 -1.1244
  145DOPC  C31517298   3.035   3.891  14.707 -0.5679  0.2869  0.3164
  145DOPC  H15X17299   3.040   3.801  14.642 -0.9509  0.3963  0.1314
  145DOPC  H15Y17300   3.142   3.914  14.725 -0.5744  0.1394  0.5464
  145DOPC  C31617301   2.956   3.999  14.628  0.1851  0.1852  0.4799
  145DOPC  H16X17302   2.878   3.954  14.563  0.7625  0.0740 -0.1362
  145DOPC  H16Y17303   2.911   4.081  14.690 -1.4414  0.5014 -1.0364
  145DOPC  C31717304   3.044   4.077  14.526 -0.2224  0.2856 -0.5281
  145DOPC  H17X17305   3.083   4.157  14.592 -1.8902 -0.9547  2.1458
  145DOPC  H17Y17306   3.128   4.018  14.483  1.0712  1.7187 -0.0493
  145DOPC  C31817307   2.951   4.129  14.411 -0.2925  0.3278  1.1430
  145DOPC  H18X17308   3.021   4.194  14.353 -0.1071 -1.0057 -0.1996
  145DOPC  H18Y17309   2.906   4.053  14.344  0.4113 -0.1242  1.1754
  145DOPC  H18Z17310   2.872   4.201  14.438 -1.6326 -0.1063 -1.3214
  146DOPC     N17311   4.704   1.208  17.615 -0.2747 -0.4680  0.1923
  146DOPC   C1217312   4.578   1.217  17.534  0.7553  0.0271  0.1878
  146DOPC  H12A17313   4.561   1.323  17.517  0.4320 -0.0281  0.1646
  146DOPC  H12B17314   4.495   1.197  17.600  0.1755  0.9548 -0.2389
  146DOPC   C1317315   4.720   1.070  17.662 -0.0429 -0.1648  0.1426
  146DOPC  H13A17316   4.817   1.062  17.709  0.0887  0.5303 -0.0102
  146DOPC  H13B17317   4.640   1.039  17.728 -0.6282 -0.2498 -0.6015
  146DOPC  H13C17318   4.723   1.009  17.573 -0.9979  1.9260 -1.3719
  146DOPC   C1417319   4.703   1.312  17.728  0.5668  0.1521 -0.7175
  146DOPC  H14A17320   4.794   1.302  17.785 -0.3034  0.6848  0.8159
  146DOPC  H14B17321   4.696   1.411  17.685  1.7852 -0.4889 -2.5548
  146DOPC  H14C17322   4.622   1.299  17.798  0.9210  1.7742  0.0416
  146DOPC   C1517323   4.820   1.239  17.528  0.1848  0.2040  0.1061
  146DOPC  H15A17324   4.831   1.165  17.450  2.4844  0.2046  0.3598
  146DOPC  H15B17325   4.913   1.255  17.580  0.7221  0.0185 -0.7799
  146DOPC  H15C17326   4.808   1.333  17.477  2.9752 -0.0573 -1.2122
  146DOPC   C1117327   4.552   1.131  17.409 -0.3601 -0.2489  0.6198
  146DOPC  H11A17328   4.446   1.144  17.377 -1.1889  0.1773  3.2689
  146DOPC  H11B17329   4.612   1.187  17.335  0.7783 -1.6843  0.4196
  146DOPC     P17330   4.674   0.931  17.293 -0.6879  0.0782  0.2563
  146DOPC   O1317331   4.746   0.806  17.337  1.1123  0.1932  0.2597
  146DOPC   O1417332   4.761   1.032  17.228  0.2405 -0.6265  0.4918
  146DOPC   O1217333   4.588   0.992  17.421 -0.6840 -0.0104  0.1127
  146DOPC   O1117334   4.551   0.901  17.194  0.5876  1.0064  0.4860
  146DOPC    C117335   4.489   1.003  17.115  0.0398 -0.0013 -0.2143
  146DOPC    HA17336   4.536   1.103  17.132  3.1906 -1.3668 -0.0866
  146DOPC    HB17337   4.382   1.011  17.142  0.0899  3.3291 -0.5240
  146DOPC    C217338   4.497   0.987  16.963 -0.3511 -0.5945  0.0934
  146DOPC    HS17339   4.477   1.085  16.914  0.2672  0.4413  1.8473
  146DOPC   O2117340   4.412   0.873  16.923 -0.1624  0.1572  0.6587
  146DOPC   C2117341   4.291   0.909  16.884 -0.7408  0.5895 -0.5427
  146DOPC   O2217342   4.235   1.013  16.909 -0.3206  0.1431  0.4685
  146DOPC   C2217343   4.240   0.786  16.796 -0.0193  0.0765  0.4837
  146DOPC   H2R17344   4.243   0.694  16.859  3.2899 -0.0718  0.2911
  146DOPC   H2S17345   4.315   0.766  16.716 -0.5671  1.5706 -0.4526
  146DOPC    C317346   4.645   0.950  16.926  0.4352 -1.2450  0.9769
  146DOPC    HX17347   4.655   0.844  16.957  2.0790 -1.6566 -0.8167
  146DOPC    HY17348   4.719   1.006  16.988  0.4937 -0.3628  0.1334
  146DOPC   O3117349   4.663   0.969  16.783  0.6071  0.2177 -0.1543
  146DOPC   C3117350   4.795   0.969  16.749 -0.1143  0.1688  0.6085
  146DOPC   O3217351   4.878   0.941  16.836  0.3571  0.3629  0.9350
  146DOPC   C3217352   4.820   1.005  16.599  0.5172 -0.0358 -0.2396
  146DOPC   H2X17353   4.748   0.936  16.549 -1.3594  1.3408  0.4113
  146DOPC   H2Y17354   4.772   1.104  16.583 -0.1352 -0.1048  1.1313
  146DOPC   C2317355   4.104   0.818  16.734  0.3767 -0.1208 -0.1407
  146DOPC   H3R17356   4.097   0.920  16.690 -3.6053 -0.9622 -1.8826
  146DOPC   H3S17357   4.020   0.815  16.807  0.6005 -1.8815  0.0764
  146DOPC   C2417358   4.070   0.719  16.627  0.0015  0.2079  0.5145
  146DOPC   H4R17359   3.964   0.735  16.596  1.0647  2.6227 -2.2364
  146DOPC   H4S17360   4.077   0.619  16.676  2.0695 -0.3799 -0.8583
  146DOPC   C2517361   4.158   0.727  16.500  0.2583  0.1648  0.3504
  146DOPC   H5R17362   4.265   0.716  16.526 -0.1725  0.0032  2.2198
  146DOPC   H5S17363   4.140   0.827  16.454 -0.0927  0.6778  1.5566
  146DOPC   C2617364   4.119   0.616  16.404 -0.3718 -0.1392  0.3959
  146DOPC   H6R17365   4.022   0.644  16.357 -0.5967 -2.0636 -0.3458
  146DOPC   H6S17366   4.103   0.522  16.460 -0.3543  1.5288  3.4427
  146DOPC   C2717367   4.211   0.592  16.281  0.2695 -0.1744  0.3141
  146DOPC   H7R17368   4.181   0.506  16.217  1.6254 -1.0608  0.8410
  146DOPC   H7S17369   4.315   0.569  16.312  0.6558  0.7345 -0.2667
  146DOPC   C2817370   4.210   0.711  16.178  0.2437 -0.5827  0.8846
  146DOPC   H8R17371   4.291   0.685  16.106 -1.0926  0.2711 -1.0256
  146DOPC   H8S17372   4.226   0.813  16.219 -0.5112 -0.6603  1.3797
  146DOPC   C2917373   4.080   0.721  16.097 -0.2484 -0.4265  0.2459
  146DOPC   H9R17374   3.992   0.748  16.156 -0.8511 -0.4432 -0.6251
  146DOPC  C21017375   4.075   0.683  15.963 -0.0977  0.1796  0.1813
  146DOPC  H10R17376   3.976   0.693  15.915  0.0500 -1.2489 -0.4649
  146DOPC  C21117377   4.184   0.633  15.876 -0.3500  0.5218 -0.9532
  146DOPC  H11R17378   4.190   0.522  15.881  0.4286  0.6209  0.7371
  146DOPC  H11S17379   4.281   0.673  15.911 -0.6142  0.0456  0.3615
  146DOPC  C21217380   4.170   0.675  15.732 -0.1658  0.4794  0.4252
  146DOPC  H12R17381   4.264   0.660  15.674 -0.0077 -2.1901  1.2436
  146DOPC  H12S17382   4.147   0.783  15.722 -1.0996  0.3508  1.1221
  146DOPC  C21317383   4.055   0.600  15.655 -0.7665  0.1163 -0.5730
  146DOPC  H13R17384   3.964   0.621  15.716 -0.0473 -1.2528  1.0869
  146DOPC  H13S17385   4.064   0.490  15.662 -0.8706  0.1210 -0.3263
  146DOPC  C21417386   4.058   0.644  15.512 -0.6649 -0.5206  0.2891
  146DOPC  H14R17387   4.159   0.625  15.472 -0.0696  3.1553 -0.2978
  146DOPC  H14S17388   4.042   0.754  15.510 -1.1926 -0.5869  0.5646
  146DOPC  C21517389   3.941   0.582  15.429  0.1844  0.2342  0.4153
  146DOPC  H15R17390   3.850   0.591  15.492  0.3819 -2.7809  1.3175
  146DOPC  H15S17391   3.955   0.472  15.425 -1.4638  0.0467 -2.5551
  146DOPC  C21617392   3.912   0.642  15.288 -1.2871  0.3926 -0.4546
  146DOPC  H16R17393   3.902   0.752  15.276 -2.6680  0.3208 -0.1888
  146DOPC  H16S17394   3.819   0.600  15.244 -0.7637 -1.5753  0.2062
  146DOPC  C21717395   4.025   0.588  15.199  0.7112  0.0724 -0.3590
  146DOPC  H17R17396   4.006   0.480  15.186  2.7693 -0.2820 -0.7416
  146DOPC  H17S17397   4.120   0.595  15.256  1.3005 -0.9358 -1.1780
  146DOPC  C21817398   4.028   0.671  15.075  0.9817 -0.1235 -0.3355
  146DOPC  H18R17399   3.926   0.695  15.040  0.9518  1.1111  0.5352
  146DOPC  H18S17400   4.076   0.613  14.993 -1.1911 -1.4912 -0.7167
  146DOPC  H18T17401   4.081   0.768  15.087  1.8209 -0.3241 -2.0530
  146DOPC   C3317402   4.963   0.986  16.544  0.1923 -0.1592  0.7102
  146DOPC   H3X17403   5.003   0.895  16.594 -0.5462 -0.8154  0.1355
  146DOPC   H3Y17404   5.026   1.072  16.575 -2.1429  1.6604  0.6635
  146DOPC   C3417405   4.984   0.973  16.390  0.6494  0.3657  0.4326
  146DOPC   H4X17406   4.910   0.902  16.347  1.0633  0.5193 -0.5649
  146DOPC   H4Y17407   5.089   0.938  16.387  0.0002 -1.7960  1.2382
  146DOPC   C3517408   4.986   1.114  16.325  0.2959 -1.0547 -0.1284
  146DOPC   H5X17409   5.047   1.176  16.393 -0.3311  1.8792 -2.0712
  146DOPC   H5Y17410   4.889   1.166  16.334  0.8479  0.1124 -0.7586
  146DOPC   C3617411   5.011   1.132  16.176 -0.0305  0.4534  0.3590
  146DOPC   H6X17412   5.017   1.240  16.150 -0.8189  0.1123 -1.4056
  146DOPC   H6Y17413   5.112   1.099  16.144 -0.3555  0.2880 -0.5172
  146DOPC   C3717414   4.904   1.064  16.090  0.0223  0.3703  1.0049
  146DOPC   H7X17415   4.908   0.953  16.098 -1.1310 -0.1095 -2.8954
  146DOPC   H7Y17416   4.800   1.098  16.110  0.2703  4.4758 -3.0476
  146DOPC   C3817417   4.936   1.089  15.941 -0.4619 -0.4162  0.0741
  146DOPC   H8X17418   4.877   1.017  15.880 -2.8848  0.6239  1.0723
  146DOPC   H8Y17419   5.045   1.083  15.921 -0.1873  2.8251  0.0136
  146DOPC   C3917420   4.888   1.226  15.899 -0.2857  0.4059  0.3767
  146DOPC   H9X17421   4.808   1.267  15.962 -1.1559  0.6397 -0.8389
  146DOPC  C31017422   4.932   1.313  15.806 -0.6621  0.8534 -0.1022
  146DOPC  H10X17423   4.878   1.406  15.781  0.6508  1.2952 -1.4278
  146DOPC  C31117424   5.039   1.277  15.705  0.3657  0.0102 -0.4559
  146DOPC  H11X17425   5.060   1.168  15.708 -3.3230 -0.8834 -1.7383
  146DOPC  H11Y17426   5.138   1.326  15.717  1.8043 -2.0309 -2.9748
  146DOPC  C31217427   4.987   1.307  15.563 -0.2898 -0.1128  0.2304
  146DOPC  H12X17428   5.071   1.301  15.491 -0.1262 -1.1989  0.4855
  146DOPC  H12Y17429   4.964   1.415  15.569  2.0661  0.4512 -0.2516
  146DOPC  C31317430   4.865   1.228  15.520 -0.1912 -0.1045  0.9019
  146DOPC  H13X17431   4.905   1.125  15.519  0.4057  0.0644 -2.4053
  146DOPC  H13Y17432   4.788   1.236  15.600 -0.8184  1.8954  0.1734
  146DOPC  C31417433   4.807   1.260  15.383 -0.0381  0.1309  1.0052
  146DOPC  H14X17434   4.703   1.222  15.372 -0.1272  0.6780 -0.1757
  146DOPC  H14Y17435   4.815   1.365  15.349  1.6948  0.2664  1.7192
  146DOPC  C31517436   4.886   1.185  15.271 -0.5400  0.6433  0.0884
  146DOPC  H15X17437   4.886   1.077  15.298  1.2529  0.3940 -0.7854
  146DOPC  H15Y17438   4.993   1.216  15.278 -0.4252  0.1578  0.6039
  146DOPC  C31617439   4.827   1.202  15.133  0.3483  0.6091 -0.9081
  146DOPC  H16X17440   4.734   1.142  15.129 -0.4328  1.5252  1.5732
  146DOPC  H16Y17441   4.798   1.304  15.098  2.2895  0.9971 -1.5684
  146DOPC  C31717442   4.917   1.142  15.025  0.0055  0.1802 -0.4345
  146DOPC  H17X17443   5.009   1.202  15.013 -0.4615  0.5345 -2.8053
  146DOPC  H17Y17444   4.946   1.038  15.052 -1.4978  0.6655  3.7251
  146DOPC  C31817445   4.840   1.128  14.893 -0.1140 -0.1691 -0.0241
  146DOPC  H18X17446   4.909   1.125  14.806 -1.6316 -0.7711 -1.2310
  146DOPC  H18Y17447   4.768   1.043  14.894 -1.1679  0.6877  1.6438
  146DOPC  H18Z17448   4.778   1.218  14.878  0.4836  0.0707 -1.1607
  147DOPC     N17449   1.736   1.881  16.665  0.2508 -0.0288 -0.1839
  147DOPC   C1217450   1.754   2.018  16.725 -0.2658  0.1150  0.2188
  147DOPC  H12A17451   1.821   2.071  16.658  0.2510  0.4178  0.9611
  147DOPC  H12B17452   1.819   2.013  16.811  0.2000 -0.4668 -0.1570
  147DOPC   C1317453   1.657   1.898  16.538 -0.1234  0.1191 -0.1437
  147DOPC  H13A17454   1.699   1.978  16.480 -1.8012 -1.1336 -3.3215
  147DOPC  H13B17455   1.657   1.810  16.474  4.3327  1.2526 -2.0643
  147DOPC  H13C17456   1.555   1.926  16.563 -0.0664  1.8265 -1.6389
  147DOPC   C1417457   1.662   1.782  16.756 -0.9077 -1.5517  0.2158
  147DOPC  H14A17458   1.574   1.826  16.802 -0.5784 -2.8653  2.2441
  147DOPC  H14B17459   1.641   1.695  16.697  1.0960 -3.6670  2.3914
  147DOPC  H14C17460   1.721   1.755  16.843  1.0412 -1.2444 -0.9388
  147DOPC   C1517461   1.866   1.826  16.621  0.9309 -0.3686 -0.2369
  147DOPC  H15A17462   1.918   1.893  16.554  0.7292 -1.4967 -1.5598
  147DOPC  H15B17463   1.847   1.730  16.576 -1.8464 -1.1972  2.3836
  147DOPC  H15C17464   1.923   1.810  16.711  0.6921 -2.0898 -0.3618
  147DOPC   C1117465   1.631   2.114  16.744 -0.3663  1.0633 -0.5926
  147DOPC  H11A17466   1.552   2.054  16.794  0.5081  0.2787 -0.1243
  147DOPC  H11B17467   1.663   2.185  16.824  2.7371 -1.5924  0.7448
  147DOPC     P17468   1.676   2.280  16.550  0.3576  0.2390 -0.1481
  147DOPC   O1317469   1.817   2.243  16.557 -0.3851  0.3976 -0.0614
  147DOPC   O1417470   1.645   2.416  16.589  0.6950 -0.3178 -0.5348
  147DOPC   O1217471   1.589   2.185  16.631  0.4692  0.6557 -0.6569
  147DOPC   O1117472   1.629   2.241  16.408  0.1905  0.1272  0.8898
  147DOPC    C117473   1.494   2.265  16.376 -0.4788  0.0525  0.3632
  147DOPC    HA17474   1.458   2.367  16.398 -0.5974  0.5126 -1.7768
  147DOPC    HB17475   1.433   2.191  16.432 -0.6104 -1.0448 -1.1687
  147DOPC    C217476   1.458   2.249  16.224  0.3101  0.6961  0.6872
  147DOPC    HS17477   1.348   2.252  16.207  0.6935  0.5553 -2.4488
  147DOPC   O2117478   1.517   2.127  16.176 -1.0641  0.0509 -0.2099
  147DOPC   C2117479   1.445   2.020  16.207 -0.3368  0.4804  0.3712
  147DOPC   O2217480   1.343   2.015  16.270  0.0185 -0.0663  0.2782
  147DOPC   C2217481   1.522   1.890  16.153  0.4762 -0.3118 -0.8109
  147DOPC   H2R17482   1.477   1.801  16.202  1.6206 -0.8637 -0.7478
  147DOPC   H2S17483   1.623   1.909  16.195  0.3034 -1.1046 -0.0155
  147DOPC    C317484   1.515   2.361  16.133 -0.0710  0.0162 -0.0267
  147DOPC    HX17485   1.626   2.360  16.140 -0.0497  1.1509  0.0628
  147DOPC    HY17486   1.477   2.458  16.172 -0.3370  0.1894 -0.6994
  147DOPC   O3117487   1.476   2.345  15.998 -0.6110 -0.5728 -0.0715
  147DOPC   C3117488   1.549   2.265  15.923 -0.6730  0.5159  0.4307
  147DOPC   O3217489   1.658   2.218  15.953  0.1125  0.0742  0.3685
  147DOPC   C3217490   1.474   2.228  15.792 -0.1494  0.5775  0.3097
  147DOPC   H2X17491   1.403   2.143  15.798  1.6417 -1.2220 -2.0936
  147DOPC   H2Y17492   1.401   2.309  15.769 -0.5439  0.2524  0.4041
  147DOPC   C2317493   1.527   1.881  16.007 -0.7752 -0.4298  0.1237
  147DOPC   H3R17494   1.585   1.787  15.989 -1.0609 -0.3028 -1.5935
  147DOPC   H3S17495   1.573   1.971  15.962 -1.2776  0.1051  0.6577
  147DOPC   C2417496   1.408   1.851  15.913  0.4697  0.4819 -0.1619
  147DOPC   H4R17497   1.321   1.919  15.931 -1.2216 -1.1257 -1.8597
  147DOPC   H4S17498   1.360   1.752  15.927  0.8110  0.3420  0.0438
  147DOPC   C2517499   1.438   1.848  15.761 -0.4889 -0.0878  0.4379
  147DOPC   H5R17500   1.503   1.935  15.736  1.2559 -1.3650  0.2911
  147DOPC   H5S17501   1.344   1.854  15.702 -1.0725 -0.8943  1.2660
  147DOPC   C2617502   1.510   1.720  15.714 -0.7944 -0.3690  0.0464
  147DOPC   H6R17503   1.447   1.629  15.713  0.1301 -1.0694  1.4239
  147DOPC   H6S17504   1.581   1.694  15.796 -0.5911  0.1196  0.0313
  147DOPC   C2717505   1.582   1.723  15.577 -0.4646 -0.3553  0.0342
  147DOPC   H7R17506   1.621   1.620  15.568 -1.9600 -1.1084  1.5649
  147DOPC   H7S17507   1.662   1.800  15.587  0.5596 -1.5286  1.3817
  147DOPC   C2817508   1.485   1.748  15.468 -0.6154 -0.0478 -0.0291
  147DOPC   H8R17509   1.437   1.845  15.492 -0.0886 -0.1582  1.5633
  147DOPC   H8S17510   1.406   1.670  15.471 -0.2736 -0.3892  0.1643
  147DOPC   C2917511   1.550   1.761  15.334 -0.1689 -0.8574  0.2223
  147DOPC   H9R17512   1.655   1.795  15.335 -0.8144  1.3102  1.5137
  147DOPC  C21017513   1.490   1.743  15.215 -0.4270  1.3112  0.6067
  147DOPC  H10R17514   1.543   1.774  15.123  1.4935  0.5477  1.4019
  147DOPC  C21117515   1.350   1.698  15.179 -0.1292  0.4488  0.3427
  147DOPC  H11R17516   1.283   1.695  15.268 -0.4067  0.9721  0.1535
  147DOPC  H11S17517   1.353   1.590  15.150 -0.6242  0.7296 -0.7955
  147DOPC  C21217518   1.292   1.778  15.063  0.1084  0.0894  0.5398
  147DOPC  H12R17519   1.363   1.761  14.980 -2.5538 -2.5726 -1.3703
  147DOPC  H12S17520   1.299   1.887  15.086  1.9154  0.2134 -0.4817
  147DOPC  C21317521   1.148   1.742  15.013 -0.2647  0.0723 -0.0666
  147DOPC  H13R17522   1.071   1.734  15.092 -0.8752 -1.3441 -0.7701
  147DOPC  H13S17523   1.155   1.635  14.983  2.2932  0.8126 -2.6872
  147DOPC  C21417524   1.116   1.814  14.878 -0.1712  0.4867  0.1553
  147DOPC  H14R17525   1.201   1.809  14.806  0.0528  1.5229  0.3323
  147DOPC  H14S17526   1.103   1.919  14.911  1.5475  0.6525  0.4127
  147DOPC  C21517527   0.988   1.762  14.818  0.5237  0.7251  0.3098
  147DOPC  H15R17528   0.981   1.653  14.842  0.6477  0.8317  0.8380
  147DOPC  H15S17529   1.003   1.790  14.711  0.4561  1.5352  0.5084
  147DOPC  C21617530   0.856   1.826  14.856  0.0691 -0.3642 -0.4556
  147DOPC  H16R17531   0.868   1.936  14.846 -1.4409 -0.1014  0.4061
  147DOPC  H16S17532   0.838   1.810  14.964  1.5004 -3.4263 -0.5729
  147DOPC  C21717533   0.737   1.784  14.768 -0.6717 -0.0203 -0.2430
  147DOPC  H17R17534   0.655   1.852  14.801 -0.6476 -1.0696  2.1584
  147DOPC  H17S17535   0.699   1.683  14.793  0.7957 -1.2568 -2.6350
  147DOPC  C21817536   0.735   1.775  14.620  0.3844 -0.5427 -1.0987
  147DOPC  H18R17537   0.809   1.697  14.592  0.5434 -0.8682  0.1593
  147DOPC  H18S17538   0.763   1.866  14.564 -0.7056 -0.3614 -1.3795
  147DOPC  H18T17539   0.630   1.752  14.589 -0.0918 -0.0497  0.0602
  147DOPC   C3317540   1.576   2.210  15.677  0.3317  0.3803  0.0953
  147DOPC   H3X17541   1.653   2.133  15.699  0.5008  0.6375  0.4042
  147DOPC   H3Y17542   1.622   2.307  15.649 -1.4764  0.8545 -1.4092
  147DOPC   C3417543   1.515   2.168  15.541  0.4892 -0.2097  0.1366
  147DOPC   H4X17544   1.417   2.217  15.522  0.1217 -1.0607 -0.2085
  147DOPC   H4Y17545   1.487   2.061  15.541 -2.2984  0.4552 -0.5994
  147DOPC   C3517546   1.604   2.205  15.420 -0.7692  0.0721 -0.1472
  147DOPC   H5X17547   1.702   2.153  15.432 -1.2757 -1.0627 -0.6793
  147DOPC   H5Y17548   1.624   2.313  15.411 -0.3583 -0.0939 -1.4020
  147DOPC   C3617549   1.543   2.145  15.292 -0.1783 -0.0461 -0.5463
  147DOPC   H6X17550   1.508   2.045  15.325  1.4061 -1.1883 -2.1779
  147DOPC   H6Y17551   1.465   2.219  15.263  0.1783  0.7266  0.3878
  147DOPC   C3717552   1.654   2.140  15.180 -1.0784  0.7766  0.0319
  147DOPC   H7X17553   1.709   2.236  15.176 -0.7243  0.5559 -0.5558
  147DOPC   H7Y17554   1.729   2.068  15.219 -1.9831 -0.8125 -1.0001
  147DOPC   C3817555   1.600   2.085  15.050 -0.2954  0.6860 -0.1501
  147DOPC   H8X17556   1.534   2.001  15.081 -0.0128  0.3785 -0.3704
  147DOPC   H8Y17557   1.677   2.039  14.984  0.5142  2.0937 -0.2199
  147DOPC   C3917558   1.533   2.197  14.973 -0.0083 -0.1126  0.4823
  147DOPC   H9X17559   1.469   2.256  15.041 -1.9758 -1.5983  0.0061
  147DOPC  C31017560   1.531   2.226  14.840 -0.5939  0.3405  0.6741
  147DOPC  H10X17561   1.490   2.318  14.795 -1.6681 -1.0664 -1.4275
  147DOPC  C31117562   1.599   2.152  14.731 -0.5172 -0.2863  0.4695
  147DOPC  H11X17563   1.618   2.049  14.769  0.4370 -0.1852  0.2821
  147DOPC  H11Y17564   1.703   2.188  14.720 -0.2420 -0.8193  1.2482
  147DOPC  C31217565   1.537   2.135  14.589 -0.1701  0.1331 -0.9935
  147DOPC  H12X17566   1.622   2.113  14.521 -0.1294  1.5026 -1.4111
  147DOPC  H12Y17567   1.497   2.231  14.551 -2.4383 -1.4757 -2.9549
  147DOPC  C31317568   1.425   2.040  14.593  0.0193 -0.0720 -0.3189
  147DOPC  H13X17569   1.453   1.934  14.573 -1.3926 -0.3788 -0.7761
  147DOPC  H13Y17570   1.367   2.046  14.687 -0.6545  0.4599 -0.7626
  147DOPC  C31417571   1.332   2.052  14.477  0.0105  0.3613  0.2323
  147DOPC  H14X17572   1.239   1.998  14.504 -0.8513  0.8896 -1.5367
  147DOPC  H14Y17573   1.304   2.158  14.464 -1.2331  0.0879  0.5028
  147DOPC  C31517574   1.394   1.996  14.347 -0.7046  0.6325 -0.1360
  147DOPC  H15X17575   1.370   1.889  14.329 -0.2020  0.8162 -2.1177
  147DOPC  H15Y17576   1.505   2.002  14.360 -0.8693  1.8996  0.8660
  147DOPC  C31617577   1.349   2.084  14.226 -0.2643 -0.9652  0.2130
  147DOPC  H16X17578   1.238   2.079  14.220 -0.3520 -0.3177  1.1801
  147DOPC  H16Y17579   1.375   2.191  14.240 -1.4201 -0.7449  0.7923
  147DOPC  C31717580   1.414   2.047  14.094 -1.1355  0.1154 -0.1128
  147DOPC  H17X17581   1.377   2.120  14.019  2.4967  2.8776  0.4880
  147DOPC  H17Y17582   1.523   2.063  14.110 -0.6139 -2.2194 -0.9885
  147DOPC  C31817583   1.394   1.917  14.021  0.1228  0.3966 -0.2414
  147DOPC  H18X17584   1.414   1.830  14.088 -0.0595 -0.3590 -1.1418
  147DOPC  H18Y17585   1.287   1.910  13.989  0.4699 -0.8305 -1.2128
  147DOPC  H18Z17586   1.469   1.906  13.940  0.1681  1.0782 -0.2971
  148DOPC     N17587   2.524   3.844  16.683 -0.0452  0.2635  0.3604
  148DOPC   C1217588   2.521   3.890  16.540 -0.6892 -0.5265  0.6935
  148DOPC  H12A17589   2.606   3.857  16.483  0.9866  0.9047  2.2187
  148DOPC  H12B17590   2.523   3.998  16.534 -2.3975 -0.5479 -2.4213
  148DOPC   C1317591   2.656   3.868  16.753 -0.3981 -0.5126 -1.2435
  148DOPC  H13A17592   2.731   3.804  16.709 -1.8175 -0.8612 -3.3205
  148DOPC  H13B17593   2.692   3.969  16.736  1.1803 -0.6371  1.0447
  148DOPC  H13C17594   2.657   3.857  16.860 -0.9851  1.5976 -0.9737
  148DOPC   C1417595   2.498   3.691  16.678 -0.2488 -0.8344  0.3901
  148DOPC  H14A17596   2.506   3.650  16.778 -2.2891  0.9025  1.3486
  148DOPC  H14B17597   2.400   3.679  16.634 -0.1141  1.7043 -0.8134
  148DOPC  H14C17598   2.576   3.651  16.615  1.3599  0.7188  1.2913
  148DOPC   C1517599   2.422   3.914  16.768  0.4064  0.0072 -0.0064
  148DOPC  H15A17600   2.448   4.019  16.762 -0.3384  0.1582 -0.6879
  148DOPC  H15B17601   2.422   3.881  16.871 -1.2550 -0.0141  0.0148
  148DOPC  H15C17602   2.323   3.903  16.726  0.8381 -2.4729 -0.5268
  148DOPC   C1117603   2.393   3.851  16.454 -0.6447 -0.1756 -0.2536
  148DOPC  H11A17604   2.400   3.900  16.354  0.4046  1.9925  0.8215
  148DOPC  H11B17605   2.377   3.743  16.435 -1.4125 -0.3988  1.4419
  148DOPC     P17606   2.133   3.868  16.495  0.0280  0.0614 -0.1339
  148DOPC   O1317607   2.059   3.905  16.616  0.0561  0.0536 -0.3319
  148DOPC   O1417608   2.124   3.727  16.468  0.0483 -0.2074 -0.0040
  148DOPC   O1217609   2.281   3.915  16.524  0.3324 -0.5436 -0.4873
  148DOPC   O1117610   2.087   3.951  16.368  0.0240  0.0376 -0.1836
  148DOPC    C117611   2.165   3.999  16.264 -0.3126 -0.0303  0.2363
  148DOPC    HA17612   2.244   3.926  16.237 -0.2359  0.5896 -1.3602
  148DOPC    HB17613   2.217   4.094  16.291 -0.2186 -0.4843  1.7223
  148DOPC    C217614   2.080   4.033  16.127  0.1065  0.1078  0.1412
  148DOPC    HS17615   1.993   3.964  16.121  0.8391 -0.8481  0.3225
  148DOPC   O2117616   2.172   4.011  16.017  0.4878  0.5213  0.4683
  148DOPC   C2117617   2.183   3.885  15.977  0.9565 -0.1169  0.2033
  148DOPC   O2217618   2.104   3.801  16.016 -0.5207 -0.0952  0.1017
  148DOPC   C2217619   2.300   3.859  15.887 -0.4722 -0.4446 -0.1555
  148DOPC   H2R17620   2.387   3.829  15.951  1.8675 -0.1856 -2.9897
  148DOPC   H2S17621   2.323   3.943  15.818  2.1403 -0.9371  0.0130
  148DOPC    C317622   2.011   4.172  16.120  0.1878  0.4530  0.8611
  148DOPC    HX17623   2.094   4.244  16.135  0.3744  0.1482  1.3198
  148DOPC    HY17624   1.938   4.192  16.202 -2.5940  1.6396 -1.6939
  148DOPC   O3117625   1.952   4.189  15.993  0.5717 -0.5080  0.1639
  148DOPC   C3117626   1.935   4.317  15.966 -0.4586  0.0547  0.5203
  148DOPC   O3217627   1.954   4.412  16.038 -0.1729  0.4676 -0.1892
  148DOPC   C3217628   1.878   4.331  15.822 -0.3384  0.3473  0.3804
  148DOPC   H2X17629   1.917   4.242  15.768  0.4549  1.1575 -0.4107
  148DOPC   H2Y17630   1.767   4.329  15.828 -0.4397 -1.0356 -1.1911
  148DOPC   C2317631   2.283   3.736  15.799 -0.3731  0.4057  0.2010
  148DOPC   H3R17632   2.259   3.651  15.866  1.1581 -0.9589 -0.8825
  148DOPC   H3S17633   2.379   3.717  15.746 -1.2684  0.5736 -1.5399
  148DOPC   C2417634   2.182   3.744  15.685  0.3785 -0.8125 -0.2246
  148DOPC   H4R17635   2.205   3.829  15.617  0.5944  0.5937  1.5487
  148DOPC   H4S17636   2.083   3.778  15.722 -0.0370  0.9179 -2.6644
  148DOPC   C2517637   2.179   3.615  15.606  0.4714  0.2680 -0.2523
  148DOPC   H5R17638   2.147   3.526  15.664  0.6203 -1.1472 -2.2341
  148DOPC   H5S17639   2.283   3.583  15.583 -0.1345 -1.2648 -1.0295
  148DOPC   C2617640   2.098   3.620  15.473  0.7399  0.9941 -0.4678
  148DOPC   H6R17641   2.144   3.703  15.415  3.7936 -0.5279 -0.4453
  148DOPC   H6S17642   1.991   3.644  15.492  1.2409  1.4002  2.2441
  148DOPC   C2717643   2.111   3.497  15.384  0.2789  0.5374 -0.0181
  148DOPC   H7R17644   2.061   3.420  15.446 -0.4483  1.0790  0.0843
  148DOPC   H7S17645   2.218   3.469  15.384 -0.0674 -1.1075 -2.6800
  148DOPC   C2817646   2.041   3.511  15.247 -0.2198 -0.1756  0.5192
  148DOPC   H8R17647   2.119   3.576  15.202  0.5762 -1.0393  0.6177
  148DOPC   H8S17648   1.947   3.566  15.264 -0.2213 -0.2547  0.7777
  148DOPC   C2917649   2.005   3.381  15.181  0.3194 -0.6455  0.3450
  148DOPC   H9R17650   1.950   3.312  15.247 -1.5053  2.0383  1.8292
  148DOPC  C21017651   2.014   3.355  15.053  0.2698  0.8616  1.3823
  148DOPC  H10R17652   1.972   3.262  15.012 -1.2066  0.9093  2.7102
  148DOPC  C21117653   2.063   3.454  14.952 -0.9198  0.6322  0.6627
  148DOPC  H11R17654   2.156   3.426  14.897 -0.3658  3.3411  0.0637
  148DOPC  H11S17655   2.094   3.554  14.989 -1.5251  0.9731  0.2788
  148DOPC  C21217656   1.952   3.485  14.854 -0.9656 -0.1634  0.0556
  148DOPC  H12R17657   1.975   3.577  14.797  2.0526  0.0937  1.5027
  148DOPC  H12S17658   1.855   3.514  14.900 -0.5303  3.1329 -0.8952
  148DOPC  C21317659   1.969   3.383  14.728  0.0088 -0.4115  0.1137
  148DOPC  H13R17660   1.944   3.283  14.770 -0.2588 -0.8345 -1.0386
  148DOPC  H13S17661   2.069   3.393  14.681 -0.7888  0.6347 -1.4340
  148DOPC  C21417662   1.883   3.435  14.603 -0.2218 -0.3489  0.1965
  148DOPC  H14R17663   1.933   3.530  14.573 -0.5448 -0.2093  0.0884
  148DOPC  H14S17664   1.787   3.468  14.649 -0.9247 -1.9248 -0.0680
  148DOPC  C21517665   1.858   3.327  14.489  0.4863 -0.1005 -0.1161
  148DOPC  H15R17666   1.810   3.242  14.542 -1.8478  2.2443  1.8085
  148DOPC  H15S17667   1.959   3.307  14.445 -0.2768 -0.2620 -1.8753
  148DOPC  C21617668   1.772   3.385  14.385 -0.6584  0.6459  0.0898
  148DOPC  H16R17669   1.826   3.470  14.339  1.4682  0.0146  1.2928
  148DOPC  H16S17670   1.673   3.416  14.425 -1.0002 -0.8182  0.4601
  148DOPC  C21717671   1.730   3.276  14.283 -0.1241 -0.1152  0.8736
  148DOPC  H17R17672   1.644   3.311  14.221 -1.2902  1.7727  3.3834
  148DOPC  H17S17673   1.692   3.185  14.335  3.7637 -1.6754  1.2918
  148DOPC  C21817674   1.846   3.222  14.189  0.5955 -0.3295  0.9125
  148DOPC  H18R17675   1.807   3.140  14.125 -1.3476  1.8751 -0.9100
  148DOPC  H18S17676   1.925   3.173  14.251  0.8420 -1.8335 -0.5347
  148DOPC  H18T17677   1.898   3.308  14.143  1.9544 -1.9035 -0.6595
  148DOPC   C3317678   1.933   4.457  15.753  0.4021  0.7932  0.4879
  148DOPC   H3X17679   2.043   4.465  15.757  0.5206 -0.0277 -0.5348
  148DOPC   H3Y17680   1.903   4.546  15.812  1.9958  1.6074  0.1002
  148DOPC   C3417681   1.869   4.470  15.607 -0.9196 -0.2735  0.5545
  148DOPC   H4X17682   1.760   4.454  15.622 -0.9084  0.8944  2.2439
  148DOPC   H4Y17683   1.904   4.389  15.541 -1.2145  2.1048 -2.7912
  148DOPC   C3517684   1.902   4.603  15.536  0.6204 -0.6458  0.5513
  148DOPC   H5X17685   2.010   4.627  15.532  0.1483  1.4748 -2.7788
  148DOPC   H5Y17686   1.846   4.688  15.581 -0.4843 -0.8404 -0.3893
  148DOPC   C3617687   1.866   4.598  15.384 -0.1968 -0.5268 -0.2813
  148DOPC   H6X17688   1.765   4.555  15.365  0.8042 -3.4877  0.5993
  148DOPC   H6Y17689   1.855   4.702  15.347  0.3812  1.0588  3.6398
  148DOPC   C3717690   1.966   4.511  15.302  0.4662  0.7043  0.3049
  148DOPC   H7X17691   2.069   4.551  15.308  0.6427  0.7295 -2.0322
  148DOPC   H7Y17692   1.977   4.415  15.357  0.3486 -0.8595 -2.2032
  148DOPC   C3817693   1.948   4.494  15.144  0.9502 -0.0262 -0.1485
  148DOPC   H8X17694   1.841   4.473  15.124  1.2810 -0.9902 -0.9641
  148DOPC   H8Y17695   2.015   4.415  15.104  2.8713  1.2570  0.3913
  148DOPC   C3917696   1.971   4.627  15.081  0.2249 -0.4248  0.1434
  148DOPC   H9X17697   1.946   4.712  15.146  0.9603  0.6367 -0.9127
  148DOPC  C31017698   2.020   4.652  14.955  0.3088 -0.6487 -0.1227
  148DOPC  H10X17699   2.020   4.755  14.918 -3.4642  0.6290  2.8230
  148DOPC  C31117700   2.056   4.540  14.857 -0.3645 -1.2535  0.6231
  148DOPC  H11X17701   1.988   4.452  14.860  0.6510 -2.0640  0.2810
  148DOPC  H11Y17702   2.159   4.500  14.872  0.4654 -0.3311 -2.0243
  148DOPC  C31217703   2.035   4.590  14.705  0.2942 -0.3135 -0.0997
  148DOPC  H12X17704   2.099   4.677  14.681  0.1316 -0.8875 -2.8919
  148DOPC  H12Y17705   1.930   4.623  14.694  0.0652 -0.5612  1.1571
  148DOPC  C31317706   2.072   4.483  14.605  0.4868  0.1983  0.2889
  148DOPC  H13X17707   2.063   4.527  14.503  0.4218  0.1065  0.2548
  148DOPC  H13Y17708   2.177   4.445  14.610  0.2803 -0.5418 -0.7692
  148DOPC  C31417709   1.973   4.361  14.605 -0.4265  0.1698 -0.1909
  148DOPC  H14X17710   1.974   4.313  14.705  0.1009  0.7117  0.0696
  148DOPC  H14Y17711   1.871   4.403  14.615 -0.0193  0.8859  1.3067
  148DOPC  C31517712   1.996   4.273  14.481  0.4846  0.1760  0.2091
  148DOPC  H15X17713   1.922   4.191  14.493 -0.6084  0.6287 -2.6038
  148DOPC  H15Y17714   2.092   4.218  14.492  0.4327  0.1072  0.3319
  148DOPC  C31617715   1.964   4.340  14.343  0.4605 -0.2461  0.4657
  148DOPC  H16X17716   1.865   4.390  14.350  0.2764  0.1420 -3.1999
  148DOPC  H16Y17717   2.043   4.413  14.317 -0.0760  0.4876  0.8593
  148DOPC  C31717718   1.938   4.255  14.222  0.5622  0.6950 -0.6530
  148DOPC  H17X17719   1.849   4.193  14.246  0.3589  1.1704 -0.1309
  148DOPC  H17Y17720   1.915   4.338  14.152 -3.0922  1.4152  1.1487
  148DOPC  C31817721   2.054   4.172  14.183 -0.0059 -0.1190 -0.7148
  148DOPC  H18X17722   2.142   4.239  14.181 -0.1214  0.0834  0.3155
  148DOPC  H18Y17723   2.063   4.088  14.256 -2.1529 -0.5961 -0.9218
  148DOPC  H18Z17724   2.052   4.130  14.080  1.9555 -0.6176 -0.5862
  149DOPC     N17725   1.337   2.407  16.858  0.2098  0.4114  0.1598
  149DOPC   C1217726   1.344   2.346  16.718 -0.4489 -0.0770  0.0556
  149DOPC  H12A17727   1.423   2.273  16.713  0.1514  0.6007 -0.5391
  149DOPC  H12B17728   1.384   2.418  16.649  0.0329 -1.0357 -0.6774
  149DOPC   C1317729   1.477   2.409  16.911 -0.0174 -1.2841  0.2721
  149DOPC  H13A17730   1.536   2.486  16.865 -1.9442  0.4566  0.5346
  149DOPC  H13B17731   1.477   2.439  17.015 -0.2645  2.4042 -0.6462
  149DOPC  H13C17732   1.524   2.314  16.895  0.0869 -1.4372  1.3793
  149DOPC   C1417733   1.255   2.323  16.955 -0.1051  0.0296  0.4446
  149DOPC  H14A17734   1.297   2.224  16.951 -2.5835 -1.0444 -1.1651
  149DOPC  H14B17735   1.258   2.370  17.052 -1.8370  0.6701  0.2245
  149DOPC  H14C17736   1.155   2.312  16.917  0.5456  1.2944 -1.8868
  149DOPC   C1517737   1.271   2.537  16.861 -0.1764 -0.3022 -0.4219
  149DOPC  H15A17738   1.269   2.572  16.963 -1.1918 -0.7316 -0.2798
  149DOPC  H15B17739   1.166   2.533  16.833 -0.6773 -1.4860  1.4439
  149DOPC  H15C17740   1.336   2.604  16.807  0.0916 -1.1485 -1.1683
  149DOPC   C1117741   1.218   2.292  16.640 -0.6985 -0.5869 -0.0698
  149DOPC  H11A17742   1.252   2.277  16.535  0.3241 -0.4144  0.2289
  149DOPC  H11B17743   1.202   2.197  16.695  1.0929 -0.7175  0.2897
  149DOPC     P17744   0.963   2.341  16.707 -0.6365 -0.0976  0.4063
  149DOPC   O1317745   0.888   2.469  16.719  0.2658 -0.2594  0.2781
  149DOPC   O1417746   0.982   2.260  16.831  0.3599 -0.1298  0.5493
  149DOPC   O1217747   1.102   2.382  16.644 -0.0499 -0.3288  0.0362
  149DOPC   O1117748   0.914   2.246  16.590 -0.3175  0.0019  0.0861
  149DOPC    C117749   0.802   2.266  16.509 -0.4148  0.2712  0.5771
  149DOPC    HA17750   0.739   2.353  16.536  0.4906  0.1447  3.3524
  149DOPC    HB17751   0.737   2.175  16.509 -0.1137 -0.0494 -2.1970
  149DOPC    C217752   0.842   2.279  16.350 -0.0865  0.4133 -0.3133
  149DOPC    HS17753   0.745   2.282  16.297 -1.4264  2.0709  2.0662
  149DOPC   O2117754   0.917   2.160  16.312  0.7404 -0.3464  0.9848
  149DOPC   C2117755   0.889   2.092  16.198 -0.1050 -0.4219 -0.0761
  149DOPC   O2217756   0.794   2.109  16.121  0.1769 -0.4347  0.4206
  149DOPC   C2217757   0.996   1.993  16.175  0.0971 -0.2889  0.1383
  149DOPC   H2R17758   0.962   1.899  16.224 -0.8476  0.0161  0.0859
  149DOPC   H2S17759   1.097   2.016  16.215  1.2975 -1.0562 -2.2838
  149DOPC    C317760   0.936   2.402  16.331  0.1908  0.1284 -0.0395
  149DOPC    HX17761   1.036   2.375  16.372  0.1409 -0.3918 -0.2592
  149DOPC    HY17762   0.899   2.493  16.384  0.3280  0.9464 -1.2899
  149DOPC   O3117763   0.947   2.421  16.192  0.0411 -0.5588  0.1966
  149DOPC   C3117764   0.847   2.494  16.134 -0.6588 -0.0172  0.2612
  149DOPC   O3217765   0.748   2.531  16.184  0.4737  0.3049 -0.0375
  149DOPC   C3217766   0.878   2.519  15.982  0.5732  0.5931 -0.0861
  149DOPC   H2X17767   0.874   2.626  15.955  1.4664  0.5151 -0.5939
  149DOPC   H2Y17768   0.981   2.483  15.961  0.0374 -1.7323  0.9268
  149DOPC   C2317769   1.026   1.970  16.025  0.0284  0.4441  0.1833
  149DOPC   H3R17770   0.940   1.911  15.984  0.6686 -1.2217  1.1324
  149DOPC   H3S17771   1.112   1.902  16.007 -1.7490 -1.9267  0.1697
  149DOPC   C2417772   1.042   2.099  15.949 -0.5449  0.4822  0.3197
  149DOPC   H4R17773   1.122   2.158  15.999  0.2239  0.7336 -1.1427
  149DOPC   H4S17774   0.942   2.148  15.953 -0.7120  0.0501  1.9925
  149DOPC   C2517775   1.074   2.079  15.800  0.1169  0.5851  0.2196
  149DOPC   H5R17776   0.998   2.009  15.759  1.7615 -1.3294  0.2644
  149DOPC   H5S17777   1.161   2.009  15.805 -0.6593 -0.5386 -1.1996
  149DOPC   C2617778   1.110   2.202  15.720 -0.2421 -0.7588 -0.0337
  149DOPC   H6R17779   1.181   2.260  15.783 -1.5096 -0.5489  1.2361
  149DOPC   H6S17780   1.022   2.269  15.714  0.1933 -0.0327  1.3335
  149DOPC   C2717781   1.162   2.175  15.585  0.3610  0.3267  0.0869
  149DOPC   H7R17782   1.235   2.093  15.603  1.0177  0.9908  0.4689
  149DOPC   H7S17783   1.215   2.259  15.537 -1.0558  0.6677 -0.9393
  149DOPC   C2817784   1.060   2.123  15.479  0.0765  0.7416 -0.9544
  149DOPC   H8R17785   1.002   2.214  15.454 -0.0312  0.7442 -0.6949
  149DOPC   H8S17786   0.986   2.049  15.515  0.8693 -0.7810 -2.3203
  149DOPC   C2917787   1.131   2.064  15.357 -0.0932  0.6145 -0.4250
  149DOPC   H9R17788   1.157   1.958  15.371 -0.7516  0.7946  3.0567
  149DOPC  C21017789   1.155   2.125  15.239  0.4108  0.1186  0.1208
  149DOPC  H10R17790   1.221   2.069  15.171  0.8254 -1.7707  1.9896
  149DOPC  C21117791   1.113   2.261  15.195  0.1473 -0.1110 -0.0378
  149DOPC  H11R17792   1.196   2.334  15.212  1.1168 -1.2208  0.0874
  149DOPC  H11S17793   1.029   2.306  15.251  0.9625 -0.4455  1.4946
  149DOPC  C21217794   1.075   2.252  15.047  0.3646  0.2692  0.1124
  149DOPC  H12R17795   1.000   2.329  15.020 -1.0758 -1.7671 -2.0072
  149DOPC  H12S17796   1.021   2.158  15.028  1.1253 -0.4636  1.4411
  149DOPC  C21317797   1.196   2.262  14.956  0.3329 -0.4645  0.5966
  149DOPC  H13R17798   1.261   2.174  14.976  0.4021 -0.5569  0.0067
  149DOPC  H13S17799   1.265   2.347  14.971 -0.5765  0.8299 -1.8810
  149DOPC  C21417800   1.160   2.279  14.805 -0.3059 -0.2705  0.4843
  149DOPC  H14R17801   1.249   2.304  14.743 -0.7913  2.1327  0.6445
  149DOPC  H14S17802   1.096   2.368  14.785 -1.2721 -1.1689 -0.5102
  149DOPC  C21517803   1.084   2.161  14.738 -0.1467 -0.1005 -0.3133
  149DOPC  H15R17804   1.000   2.128  14.803  2.5660 -0.4459  3.3236
  149DOPC  H15S17805   1.147   2.070  14.727  2.9063  1.7358  0.7827
  149DOPC  C21617806   1.026   2.191  14.595 -0.4492 -0.4823  0.3503
  149DOPC  H16R17807   1.109   2.230  14.532 -1.1319 -2.1791 -1.6902
  149DOPC  H16S17808   0.957   2.277  14.609 -1.2601 -1.4144  2.6531
  149DOPC  C21717809   0.958   2.074  14.515  0.6731  0.0551  0.5995
  149DOPC  H17R17810   0.865   2.037  14.562 -0.4641  2.9853  0.9068
  149DOPC  H17S17811   1.030   1.990  14.525 -1.1088 -1.8704 -1.6451
  149DOPC  C21817812   0.929   2.102  14.365 -0.0367 -0.0528 -0.0555
  149DOPC  H18R17813   1.018   2.133  14.307 -0.7421  0.8728 -0.6697
  149DOPC  H18S17814   0.842   2.170  14.353 -0.6544 -0.6908  0.7072
  149DOPC  H18T17815   0.894   2.007  14.318 -1.3881  0.5640 -0.3464
  149DOPC   C3317816   0.778   2.439  15.894  0.6663  0.4284  0.2187
  149DOPC   H3X17817   0.676   2.470  15.925  1.4249  1.3299  1.9913
  149DOPC   H3Y17818   0.783   2.329  15.911 -0.8914  0.3886  0.6169
  149DOPC   C3417819   0.794   2.449  15.743  0.4824 -0.2997 -0.6087
  149DOPC   H4X17820   0.719   2.383  15.695  0.0797  0.6137 -1.2612
  149DOPC   H4Y17821   0.895   2.411  15.716  0.0664  0.0389 -2.8136
  149DOPC   C3517822   0.771   2.591  15.695  0.0628  0.1068 -0.0118
  149DOPC   H5X17823   0.864   2.651  15.696 -0.0791  0.3280  0.0617
  149DOPC   H5Y17824   0.687   2.643  15.746  1.2088  0.2480  1.7864
  149DOPC   C3617825   0.718   2.592  15.544 -0.9138 -0.0542 -0.1894
  149DOPC   H6X17826   0.794   2.532  15.490  0.0769  0.8799  0.1327
  149DOPC   H6Y17827   0.620   2.541  15.529  0.1625 -1.7841 -1.8614
  149DOPC   C3717828   0.724   2.731  15.478 -0.0550  0.2784 -0.6491
  149DOPC   H7X17829   0.667   2.810  15.531  2.1524  0.5880  1.4388
  149DOPC   H7Y17830   0.827   2.774  15.481 -0.4109  1.1873 -1.0639
  149DOPC   C3817831   0.693   2.713  15.327  0.2690 -0.4098  0.1449
  149DOPC   H8X17832   0.585   2.687  15.330 -0.0458  0.1895 -2.8405
  149DOPC   H8Y17833   0.762   2.638  15.282  1.5836 -0.1875  1.7036
  149DOPC   C3917834   0.715   2.841  15.252 -0.3666  0.9013  0.3285
  149DOPC   H9X17835   0.658   2.926  15.293 -0.3443 -0.0325  2.4273
  149DOPC  C31017836   0.790   2.856  15.143 -0.3046 -0.6013  0.7324
  149DOPC  H10X17837   0.802   2.961  15.114 -0.0819 -0.8678 -0.1488
  149DOPC  C31117838   0.871   2.751  15.070 -0.6698 -0.0980 -0.1866
  149DOPC  H11X17839   0.871   2.650  15.115  1.5488 -0.4456 -0.8643
  149DOPC  H11Y17840   0.977   2.779  15.054 -0.7347  0.2143 -0.0730
  149DOPC  C31217841   0.811   2.730  14.930  0.6541 -1.1249  0.4898
  149DOPC  H12X17842   0.704   2.706  14.947  0.5260 -1.6589 -0.8960
  149DOPC  H12Y17843   0.844   2.644  14.867 -0.8246  0.1339 -2.1709
  149DOPC  C31317844   0.828   2.858  14.839  0.3265 -0.1265 -0.3474
  149DOPC  H13X17845   0.779   2.948  14.884 -0.2608 -0.2155 -0.7985
  149DOPC  H13Y17846   0.936   2.883  14.833 -0.0293  1.3658 -1.3312
  149DOPC  C31417847   0.773   2.827  14.706  0.0481  0.1003 -0.4451
  149DOPC  H14X17848   0.827   2.736  14.671  4.3736  0.5541  3.9049
  149DOPC  H14Y17849   0.664   2.819  14.720 -0.0305 -2.0149 -1.7364
  149DOPC  C31517850   0.811   2.937  14.601 -0.2564 -0.3763 -0.8156
  149DOPC  H15X17851   0.772   3.033  14.642 -1.1332 -0.7251 -0.8134
  149DOPC  H15Y17852   0.745   2.924  14.513 -0.4681 -0.8405 -0.5923
  149DOPC  C31617853   0.954   2.931  14.555 -0.6966 -0.7661 -0.2236
  149DOPC  H16X17854   1.029   2.939  14.636 -0.6498  0.6744 -0.3687
  149DOPC  H16Y17855   0.974   2.831  14.512 -0.5013 -1.0389  0.4958
  149DOPC  C31717856   0.990   3.042  14.458 -0.4156 -0.4337 -0.3736
  149DOPC  H17X17857   0.930   3.132  14.482  0.2670  0.1093 -0.6527
  149DOPC  H17Y17858   1.094   3.078  14.473 -0.6524 -0.0781  0.4354
  149DOPC  C31817859   0.975   2.995  14.315  0.2208 -0.4887  0.1627
  149DOPC  H18X17860   0.869   2.969  14.293 -0.5777  0.3728  2.6847
  149DOPC  H18Y17861   1.020   3.076  14.255 -0.8978  1.9757  2.4522
  149DOPC  H18Z17862   1.038   2.904  14.302  1.4623 -0.0208  2.4103
  150DOPC     N17863   3.742   3.644  17.232 -0.5112  0.5042 -0.1547
  150DOPC   C1217864   3.811   3.663  17.098  0.7236  0.6549  0.1140
  150DOPC  H12A17865   3.819   3.769  17.077 -2.6362  0.9726 -0.1101
  150DOPC  H12B17866   3.752   3.621  17.018 -0.2687  0.7891  0.7499
  150DOPC   C1317867   3.608   3.702  17.218 -0.5938 -0.2439  0.0359
  150DOPC  H13A17868   3.548   3.686  17.307 -2.4442 -2.5266 -1.5025
  150DOPC  H13B17869   3.616   3.807  17.195  1.9642 -0.8582 -2.2608
  150DOPC  H13C17870   3.555   3.645  17.143  0.2597 -0.1501 -0.6413
  150DOPC   C1417871   3.824   3.721  17.328 -0.4634  0.0475 -0.4424
  150DOPC  H14A17872   3.927   3.688  17.321 -0.7538 -1.5823  1.9279
  150DOPC  H14B17873   3.825   3.826  17.303  2.0779  0.7303  2.0206
  150DOPC  H14C17874   3.800   3.712  17.433  3.6371  0.9558  0.7556
  150DOPC   C1517875   3.730   3.503  17.275 -0.1911 -0.2688 -0.6529
  150DOPC  H15A17876   3.663   3.478  17.356 -1.5852  1.4374 -1.2137
  150DOPC  H15B17877   3.829   3.468  17.301  0.0737 -0.1263 -1.4288
  150DOPC  H15C17878   3.701   3.442  17.191 -0.6241 -0.2792 -0.4979
  150DOPC   C1117879   3.956   3.597  17.086  0.0512  0.5873 -0.2622
  150DOPC  H11A17880   4.036   3.659  17.131 -0.0469  0.4624  0.0860
  150DOPC  H11B17881   3.963   3.494  17.128  1.6203  0.7527 -0.0685
  150DOPC     P17882   3.912   3.483  16.847  0.0009 -0.4071 -0.7218
  150DOPC   O1317883   3.766   3.510  16.866 -0.2191  0.1354  0.0832
  150DOPC   O1417884   3.962   3.347  16.892  0.1918 -0.3742  0.1508
  150DOPC   O1217885   3.988   3.590  16.942 -0.3633 -0.9159  0.0258
  150DOPC   O1117886   3.964   3.525  16.705 -0.1258 -0.3249 -0.1747
  150DOPC    C117887   4.072   3.453  16.637 -0.1317 -0.5517 -0.2763
  150DOPC    HA17888   4.120   3.375  16.700  0.2287  0.3442  0.6056
  150DOPC    HB17889   4.144   3.532  16.605 -1.4342  0.3535 -1.1094
  150DOPC    C217890   4.029   3.397  16.494  0.1442 -0.5947  0.5509
  150DOPC    HS17891   3.974   3.300  16.500  0.0546 -0.7092 -1.4067
  150DOPC   O2117892   4.137   3.392  16.403 -0.3321 -0.3982 -0.1295
  150DOPC   C2117893   4.170   3.272  16.356 -0.3394  0.0768 -1.0335
  150DOPC   O2217894   4.111   3.169  16.390 -0.0015 -0.7988  0.2213
  150DOPC   C2217895   4.298   3.287  16.280  0.2250 -0.1939 -0.1035
  150DOPC   H2R17896   4.380   3.300  16.354  1.2966 -2.3360 -0.7982
  150DOPC   H2S17897   4.280   3.370  16.209  0.2419  1.3553  1.6411
  150DOPC    C317898   3.936   3.495  16.421 -0.2853 -0.4914  0.1907
  150DOPC    HX17899   3.999   3.586  16.413  1.2483 -1.4745  0.6782
  150DOPC    HY17900   3.857   3.522  16.494  2.3508  0.4288  2.9533
  150DOPC   O3117901   3.894   3.453  16.289 -0.1444 -0.8158 -0.1792
  150DOPC   C3117902   3.799   3.364  16.288 -0.3237  0.7322  0.1985
  150DOPC   O3217903   3.740   3.324  16.387 -0.4158  0.2088  0.5675
  150DOPC   C3217904   3.756   3.330  16.141  0.2278  0.7594 -0.5408
  150DOPC   H2X17905   3.679   3.250  16.140  1.5607 -0.6453  1.6425
  150DOPC   H2Y17906   3.709   3.427  16.113 -0.4053  1.2698  1.9606
  150DOPC   C2317907   4.344   3.171  16.190 -0.4175 -0.1684  0.3573
  150DOPC   H3R17908   4.271   3.146  16.110  0.2725 -0.2329 -0.2648
  150DOPC   H3S17909   4.380   3.086  16.252  2.0269  0.9567  0.6125
  150DOPC   C2417910   4.473   3.215  16.106 -0.1216  0.1268 -0.7107
  150DOPC   H4R17911   4.544   3.259  16.179 -0.8608 -1.0757  0.8047
  150DOPC   H4S17912   4.439   3.296  16.038 -3.2111  0.4459  1.0354
  150DOPC   C2517913   4.549   3.094  16.030  0.1816 -0.3849 -0.1897
  150DOPC   H5R17914   4.470   3.056  15.961 -2.4593  1.9531  1.3261
  150DOPC   H5S17915   4.580   3.020  16.107  0.2388  0.1392  0.2961
  150DOPC   C2617916   4.671   3.140  15.946 -0.8467 -0.2334 -0.1017
  150DOPC   H6R17917   4.748   3.201  15.997  0.1250  1.6341 -3.4762
  150DOPC   H6S17918   4.628   3.209  15.870 -1.1257 -1.4300 -1.0719
  150DOPC   C2717919   4.733   3.020  15.873  0.0055 -0.3680  0.2612
  150DOPC   H7R17920   4.660   2.959  15.814 -0.6819  1.4841 -0.8922
  150DOPC   H7S17921   4.776   2.963  15.957 -1.9960 -1.2201  0.7798
  150DOPC   C2817922   4.835   3.073  15.780 -0.2256  0.1023  0.2191
  150DOPC   H8R17923   4.915   3.126  15.837 -0.6405  0.1323  0.7758
  150DOPC   H8S17924   4.788   3.149  15.715  0.3229  0.6310  0.4309
  150DOPC   C2917925   4.905   2.968  15.698 -0.1433 -1.0486 -0.3552
  150DOPC   H9R17926   4.953   2.886  15.753 -0.6089 -1.4133 -0.4902
  150DOPC  C21017927   4.902   2.965  15.560 -0.1206 -0.4585 -0.3415
  150DOPC  H10R17928   4.960   2.889  15.506  2.8299  1.4640 -0.1586
  150DOPC  C21117929   4.831   3.067  15.467 -0.8786  0.2480 -0.3031
  150DOPC  H11R17930   4.915   3.119  15.416  1.7404 -2.2072  1.1252
  150DOPC  H11S17931   4.776   3.148  15.519  2.4009  1.4859  1.5602
  150DOPC  C21217932   4.743   3.004  15.365  0.2119  0.9053  0.3903
  150DOPC  H12R17933   4.662   2.952  15.421  3.2420 -1.0854  3.2570
  150DOPC  H12S17934   4.802   2.924  15.315  2.0801  1.4874  1.5845
  150DOPC  C21317935   4.688   3.106  15.268 -0.4809 -0.3992 -0.3790
  150DOPC  H13R17936   4.764   3.165  15.212  0.5931 -0.9286  0.4640
  150DOPC  H13S17937   4.630   3.181  15.326 -1.8575 -1.9145  0.2792
  150DOPC  C21417938   4.592   3.045  15.165 -0.3791 -0.4104  1.0332
  150DOPC  H14R17939   4.512   2.983  15.211 -0.1573  0.2475  2.3414
  150DOPC  H14S17940   4.663   2.987  15.102 -3.1695  0.3617 -3.2916
  150DOPC  C21517941   4.527   3.152  15.067  0.1243 -0.0034 -0.3124
  150DOPC  H15R17942   4.606   3.210  15.014 -0.9554  0.3684 -1.5521
  150DOPC  H15S17943   4.465   3.227  15.121 -1.0728 -2.8270  2.5952
  150DOPC  C21617944   4.456   3.070  14.959  0.1707  0.5033 -0.1875
  150DOPC  H16R17945   4.373   3.010  15.002  1.9410 -0.8555  1.5276
  150DOPC  H16S17946   4.520   2.985  14.927 -0.6728 -0.6011  0.9625
  150DOPC  C21717947   4.405   3.161  14.852 -0.6696  0.2200  0.0065
  150DOPC  H17R17948   4.371   3.095  14.770  3.6471 -1.2556 -0.8528
  150DOPC  H17S17949   4.485   3.218  14.800  0.1237 -1.0832 -0.2348
  150DOPC  C21817950   4.291   3.249  14.898  0.6545 -0.1507  0.1114
  150DOPC  H18R17951   4.248   3.304  14.812  0.1418  0.4056  0.7135
  150DOPC  H18S17952   4.340   3.330  14.956 -0.8820 -0.4269  1.8889
  150DOPC  H18T17953   4.218   3.190  14.957  0.8805  0.1687  0.7215
  150DOPC   C3317954   3.876   3.287  16.047 -0.5378 -0.1656 -0.5749
  150DOPC   H3X17955   3.923   3.204  16.103 -1.6192  0.3699  1.2292
  150DOPC   H3Y17956   3.942   3.377  16.049  0.4672 -0.8761 -1.1821
  150DOPC   C3417957   3.834   3.241  15.908  0.4311  0.6208 -0.3292
  150DOPC   H4X17958   3.799   3.339  15.868 -0.3854 -0.1351 -1.5133
  150DOPC   H4Y17959   3.754   3.165  15.914  0.0766  0.9001 -1.3385
  150DOPC   C3517960   3.940   3.182  15.809 -0.0259  0.7221  0.1299
  150DOPC   H5X17961   3.887   3.136  15.723 -0.0811 -1.4861  1.2591
  150DOPC   H5Y17962   3.988   3.099  15.865 -0.4856 -0.9668 -1.8712
  150DOPC   C3617963   4.047   3.281  15.769 -0.3532  0.4647  0.5777
  150DOPC   H6X17964   4.001   3.372  15.724 -1.2298 -0.3230 -0.1640
  150DOPC   H6Y17965   4.097   3.315  15.862 -0.3925 -1.5028  1.3468
  150DOPC   C3717966   4.149   3.209  15.680 -0.1161 -1.3482 -0.1874
  150DOPC   H7X17967   4.105   3.201  15.578  1.1665  0.6558 -0.9548
  150DOPC   H7Y17968   4.236   3.277  15.673 -0.2744 -1.0662  0.4667
  150DOPC   C3817969   4.191   3.071  15.732 -0.3040  0.0727  0.4919
  150DOPC   H8X17970   4.115   2.990  15.731  0.9364 -1.1289  0.5330
  150DOPC   H8Y17971   4.219   3.077  15.839  0.7101 -0.6733  0.2830
  150DOPC   C3917972   4.306   3.024  15.653 -0.5174  0.6159 -0.2534
  150DOPC   H9X17973   4.396   3.009  15.713 -1.3598 -3.6847  0.2692
  150DOPC  C31017974   4.328   3.003  15.520  1.0927  0.8572 -0.5111
  150DOPC  H10X17975   4.421   2.951  15.494  0.9727  0.0920  0.5647
  150DOPC  C31117976   4.218   2.996  15.418 -0.0235  0.3767  0.5380
  150DOPC  H11X17977   4.235   3.076  15.342  0.8193  1.8312  2.1639
  150DOPC  H11Y17978   4.119   3.002  15.469  0.6338  0.5043  1.8443
  150DOPC  C31217979   4.225   2.860  15.343 -0.0189 -0.3785  0.1684
  150DOPC  H12X17980   4.235   2.782  15.421 -1.1418 -2.6168 -1.8161
  150DOPC  H12Y17981   4.322   2.860  15.290  0.5491  0.4494  1.1690
  150DOPC  C31317982   4.111   2.836  15.246 -0.8036  0.3904  0.0380
  150DOPC  H13X17983   4.115   2.729  15.219  0.1581  0.8129 -1.6256
  150DOPC  H13Y17984   4.011   2.855  15.289 -1.6296 -1.4921 -0.9304
  150DOPC  C31417985   4.110   2.909  15.113 -0.1476 -0.2764  0.1971
  150DOPC  H14X17986   4.118   3.019  15.126 -1.3006  0.1181 -1.8866
  150DOPC  H14Y17987   4.204   2.876  15.064 -0.0016 -2.9755  2.0626
  150DOPC  C31517988   3.989   2.884  15.031  0.1697 -0.0928  0.1680
  150DOPC  H15X17989   3.903   2.895  15.100  0.5780 -0.9393  0.8264
  150DOPC  H15Y17990   3.981   2.778  15.001 -0.8516  0.3304 -1.1564
  150DOPC  C31617991   3.966   2.978  14.910  0.2655 -0.2802 -0.3385
  150DOPC  H16X17992   3.862   2.966  14.873  0.6408  0.1857 -1.5950
  150DOPC  H16Y17993   3.990   3.077  14.954  0.9022 -1.3170  1.7697
  150DOPC  C31717994   4.063   2.946  14.789  0.3557 -0.1240 -0.3171
  150DOPC  H17X17995   4.167   2.954  14.827  0.2151 -0.7676  0.2212
  150DOPC  H17Y17996   4.033   2.845  14.755  0.3720  0.1575 -1.2054
  150DOPC  C31817997   4.059   3.038  14.666  0.7905 -0.0926 -0.1004
  150DOPC  H18X17998   4.078   3.145  14.685  2.5183 -0.1699 -1.1533
  150DOPC  H18Y17999   4.132   3.015  14.585 -0.0176 -2.4866 -0.2365
  150DOPC  H18Z18000   3.958   3.024  14.621 -0.2707  0.1187  2.0726
  151DOPC     N18001   1.676   3.115  16.636 -0.8165  0.1840 -0.0089
  151DOPC   C1218002   1.718   3.034  16.514 -0.3800 -0.3601 -0.2117
  151DOPC  H12A18003   1.823   3.046  16.490 -0.0057 -0.8792  1.1190
  151DOPC  H12B18004   1.663   3.062  16.425  2.4999 -2.0166 -2.6825
  151DOPC   C1318005   1.528   3.130  16.640  0.1277 -0.2609  0.1362
  151DOPC  H13A18006   1.486   3.031  16.631  0.0176 -0.1305 -0.8660
  151DOPC  H13B18007   1.488   3.183  16.725 -1.8327  0.5274 -1.2243
  151DOPC  H13C18008   1.486   3.179  16.554  0.0482  0.0524  0.3515
  151DOPC   C1418009   1.740   3.248  16.635 -0.4166  0.1421  0.3889
  151DOPC  H14A18010   1.845   3.238  16.657 -0.5085  1.1816  1.3798
  151DOPC  H14B18011   1.716   3.297  16.542  1.3108 -0.7198 -0.5712
  151DOPC  H14C18012   1.695   3.313  16.708 -1.2769  0.4307 -0.3796
  151DOPC   C1518013   1.721   3.042  16.760 -0.4351  0.4256 -0.3282
  151DOPC  H15A18014   1.703   2.936  16.756  2.4502 -0.1557 -0.3343
  151DOPC  H15B18015   1.674   3.091  16.844 -0.6931  1.5278 -1.1013
  151DOPC  H15C18016   1.829   3.042  16.755 -0.4821  0.1592 -1.4705
  151DOPC   C1118017   1.707   2.878  16.527 -0.0122  0.4836  0.4729
  151DOPC  H11A18018   1.602   2.855  16.553 -0.2697  2.1137  0.9318
  151DOPC  H11B18019   1.719   2.831  16.427 -0.0643 -0.0330  0.7003
  151DOPC     P18020   1.950   2.809  16.588 -0.2852 -0.4141 -0.3413
  151DOPC   O1318021   2.011   2.723  16.691  0.3405 -0.5235  0.4742
  151DOPC   O1418022   1.994   2.951  16.589  0.1450 -0.9532  0.2319
  151DOPC   O1218023   1.793   2.818  16.624  0.1952  0.3727  0.3870
  151DOPC   O1118024   1.952   2.735  16.447 -0.2867  0.6442  0.3739
  151DOPC    C118025   1.898   2.601  16.440 -0.1447  0.0255  0.0431
  151DOPC    HA18026   1.787   2.606  16.447 -0.2442 -1.0813 -0.6329
  151DOPC    HB18027   1.937   2.524  16.509 -0.1256 -0.1954 -0.2125
  151DOPC    C218028   1.933   2.556  16.292 -0.7788  0.2209  0.1474
  151DOPC    HS18029   2.042   2.545  16.306 -0.6251 -1.0607 -1.6486
  151DOPC   O2118030   1.927   2.647  16.190  0.1781 -0.0262 -0.6041
  151DOPC   C2118031   1.812   2.703  16.161  0.2356  0.1682 -0.0795
  151DOPC   O2218032   1.702   2.657  16.197  0.0939 -0.2662  0.8452
  151DOPC   C2218033   1.818   2.822  16.059 -0.4696  0.3547  0.1192
  151DOPC   H2R18034   1.926   2.839  16.037 -0.6377 -0.3868 -1.4289
  151DOPC   H2S18035   1.770   2.908  16.111 -0.7810  0.8550 -0.9692
  151DOPC    C318036   1.888   2.416  16.247  0.5384  1.0991  0.6464
  151DOPC    HX18037   1.778   2.405  16.263  0.6548 -2.3072 -0.1304
  151DOPC    HY18038   1.928   2.338  16.316  0.1112 -1.0063 -1.3658
  151DOPC   O3118039   1.923   2.387  16.109  0.1704  0.3882  0.5106
  151DOPC   C3118040   2.043   2.342  16.087  0.1296 -0.1603  0.1993
  151DOPC   O3218041   2.131   2.330  16.169 -0.0757  0.1785 -0.3659
  151DOPC   C3218042   2.051   2.289  15.951 -0.0886  0.0672 -0.0585
  151DOPC   H2X18043   2.067   2.179  15.951  1.2971  0.2135  2.3563
  151DOPC   H2Y18044   1.952   2.309  15.904  0.2989  3.5863  0.3135
  151DOPC   C2318045   1.754   2.784  15.923 -0.0097 -0.0526  0.3883
  151DOPC   H3R18046   1.725   2.873  15.864 -1.6344 -1.3148 -0.8325
  151DOPC   H3S18047   1.659   2.736  15.953  0.2781  0.1453  1.6555
  151DOPC   C2418048   1.835   2.689  15.838  0.1403  0.4216  0.3046
  151DOPC   H4R18049   1.884   2.617  15.907 -1.3080 -1.6579 -0.7316
  151DOPC   H4S18050   1.914   2.738  15.778  2.5865 -1.3520  1.8956
  151DOPC   C2518051   1.748   2.594  15.751 -0.0483 -0.1878 -0.8440
  151DOPC   H5R18052   1.662   2.564  15.815 -0.8816  1.4293 -1.1724
  151DOPC   H5S18053   1.811   2.504  15.733 -0.6083 -0.0467 -3.9675
  151DOPC   C2618054   1.685   2.655  15.628  0.3755  0.0371  0.3210
  151DOPC   H6R18055   1.629   2.746  15.658 -1.2276 -0.1282 -1.9096
  151DOPC   H6S18056   1.599   2.592  15.598  0.8102 -0.1589 -0.5370
  151DOPC   C2718057   1.779   2.684  15.513  0.4037  0.6787 -0.2572
  151DOPC   H7R18058   1.878   2.694  15.562 -0.4658  0.9482  1.5032
  151DOPC   H7S18059   1.740   2.777  15.466 -3.2986  0.0716  1.2962
  151DOPC   C2818060   1.768   2.572  15.397 -0.6961 -0.5612  0.0274
  151DOPC   H8R18061   1.785   2.476  15.450 -2.1899 -1.1576 -0.5094
  151DOPC   H8S18062   1.858   2.590  15.334  0.5293  1.5415  2.2237
  151DOPC   C2918063   1.637   2.570  15.320 -1.0309 -0.3883  0.1660
  151DOPC   H9R18064   1.553   2.579  15.390  0.5992 -0.5690  2.2485
  151DOPC  C21018065   1.613   2.563  15.189  0.2815 -0.5427 -0.9204
  151DOPC  H10R18066   1.509   2.560  15.153 -0.3522 -0.6176  0.8539
  151DOPC  C21118067   1.713   2.574  15.086 -0.3514  0.7249  0.1995
  151DOPC  H11R18068   1.739   2.469  15.061  4.3235  1.5764  0.4021
  151DOPC  H11S18069   1.811   2.614  15.122 -0.1755  1.9474 -1.5077
  151DOPC  C21218070   1.663   2.632  14.950  0.1047 -1.1534 -0.3587
  151DOPC  H12R18071   1.626   2.733  14.976  1.1231 -1.0812  0.9207
  151DOPC  H12S18072   1.571   2.579  14.917 -0.4255 -0.3962 -0.1028
  151DOPC  C21318073   1.767   2.622  14.840  0.1865  0.5070  0.5202
  151DOPC  H13R18074   1.841   2.543  14.866 -0.1010 -0.0597 -0.3490
  151DOPC  H13S18075   1.829   2.714  14.836  1.6971 -0.2504  3.3022
  151DOPC  C21418076   1.718   2.582  14.704 -0.1631  0.6413 -0.2528
  151DOPC  H14R18077   1.640   2.655  14.673  0.2102  0.5445 -1.4718
  151DOPC  H14S18078   1.669   2.483  14.719  0.5867  0.3161  0.1184
  151DOPC  C21518079   1.832   2.584  14.600 -0.1253 -0.5422  0.5775
  151DOPC  H15R18080   1.918   2.523  14.633  0.5127  1.9029  4.0097
  151DOPC  H15S18081   1.872   2.688  14.598  0.6816 -0.8492 -0.7033
  151DOPC  C21618082   1.795   2.525  14.463 -0.2653 -0.5280 -0.5813
  151DOPC  H16R18083   1.893   2.530  14.411  0.8923  1.8304  1.6104
  151DOPC  H16S18084   1.738   2.605  14.410  1.7688  1.3887 -0.0242
  151DOPC  C21718085   1.724   2.390  14.447  0.2026  0.3184 -0.0917
  151DOPC  H17R18086   1.636   2.388  14.514  0.4498  0.5104  0.2445
  151DOPC  H17S18087   1.780   2.298  14.473 -0.9827 -0.2808  0.4057
  151DOPC  C21818088   1.674   2.376  14.306  0.6703 -0.6453 -0.3588
  151DOPC  H18R18089   1.623   2.278  14.294  2.2568 -1.6261  0.6370
  151DOPC  H18S18090   1.762   2.387  14.239  2.8392 -0.0021  2.4223
  151DOPC  H18T18091   1.611   2.465  14.283  0.7647  0.1098  1.9986
  151DOPC   C3318092   2.161   2.358  15.869 -0.3717 -0.0520  0.0055
  151DOPC   H3X18093   2.261   2.340  15.914 -0.9273 -0.6270  1.0483
  151DOPC   H3Y18094   2.141   2.467  15.876  0.1551  0.0266  0.3904
  151DOPC   C3418095   2.161   2.313  15.721 -0.0966 -0.1601  1.1307
  151DOPC   H4X18096   2.171   2.203  15.732  1.2181 -0.0607  1.0596
  151DOPC   H4Y18097   2.253   2.347  15.668 -0.0432  0.6345  1.7116
  151DOPC   C3518098   2.032   2.338  15.644  0.2550  0.0097 -0.8041
  151DOPC   H5X18099   2.013   2.447  15.646 -1.2893 -0.2423 -0.0689
  151DOPC   H5Y18100   1.943   2.294  15.694  0.9523 -1.5493 -0.8537
  151DOPC   C3618101   2.021   2.274  15.500  0.2016 -0.1448 -0.6642
  151DOPC   H6X18102   2.051   2.169  15.523 -2.2306 -0.6549  0.4899
  151DOPC   H6Y18103   1.916   2.252  15.474 -0.0056 -1.3180  0.9970
  151DOPC   C3718104   2.116   2.336  15.399  0.3354 -0.0361 -0.0814
  151DOPC   H7X18105   2.110   2.447  15.406  2.1328  0.0278  0.9977
  151DOPC   H7Y18106   2.212   2.310  15.448 -0.6348 -0.3795  1.7316
  151DOPC   C3818107   2.109   2.280  15.257  0.1004  0.5876 -0.0198
  151DOPC   H8X18108   2.105   2.170  15.274  0.8754  0.6937  0.9826
  151DOPC   H8Y18109   2.203   2.311  15.207  0.3950  1.6412  1.1254
  151DOPC   C3918110   1.987   2.312  15.178  0.1403 -0.6763  0.3420
  151DOPC   H9X18111   1.906   2.335  15.249 -1.0536 -1.7598 -0.5930
  151DOPC  C31018112   1.964   2.306  15.044  0.1660  0.1489 -0.2929
  151DOPC  H10X18113   1.866   2.334  15.003 -0.1897 -1.2782 -0.4947
  151DOPC  C31118114   2.062   2.272  14.936  0.4366 -0.2601  0.3553
  151DOPC  H11X18115   2.133   2.199  14.979  1.3825  0.2190 -0.3470
  151DOPC  H11Y18116   2.127   2.359  14.913  0.0198 -0.0552 -0.0614
  151DOPC  C31218117   2.000   2.214  14.805  0.0493  0.2239  0.4185
  151DOPC  H12X18118   1.928   2.290  14.769  0.1114 -0.2586 -0.7605
  151DOPC  H12Y18119   1.936   2.126  14.828 -0.4588  0.1326 -1.2244
  151DOPC  C31318120   2.099   2.189  14.690  0.0856 -0.1330 -0.6770
  151DOPC  H13X18121   2.182   2.261  14.707 -0.6894  0.8333 -0.8968
  151DOPC  H13Y18122   2.152   2.093  14.711 -2.2970 -1.0004  2.1069
  151DOPC  C31418123   2.045   2.201  14.543  0.6380  0.4535  0.0712
  151DOPC  H14X18124   1.964   2.124  14.541  0.3233  0.7799 -2.2220
  151DOPC  H14Y18125   2.002   2.302  14.529  1.4317  0.9712  1.2071
  151DOPC  C31518126   2.160   2.182  14.446 -0.4472  0.7317  0.2220
  151DOPC  H15X18127   2.221   2.093  14.475 -0.0664  1.3011  1.2166
  151DOPC  H15Y18128   2.232   2.266  14.449  0.1411  0.3741 -2.1984
  151DOPC  C31618129   2.114   2.164  14.294 -0.7157 -0.1454 -0.6428
  151DOPC  H16X18130   2.077   2.061  14.279 -0.0154 -0.8290  1.7558
  151DOPC  H16Y18131   2.030   2.236  14.284 -0.6418 -0.1219 -1.0909
  151DOPC  C31718132   2.228   2.175  14.196 -0.0474 -0.0311 -0.3344
  151DOPC  H17X18133   2.279   2.271  14.215  0.5073 -0.8060  2.5053
  151DOPC  H17Y18134   2.302   2.093  14.211 -0.9109 -0.7141  0.3105
  151DOPC  C31818135   2.182   2.169  14.043 -0.0130  0.2582  0.4263
  151DOPC  H18X18136   2.102   2.246  14.042 -1.0789 -0.7193  2.7662
  151DOPC  H18Y18137   2.269   2.196  13.978 -0.3579  3.1942  1.0225
  151DOPC  H18Z18138   2.142   2.074  14.001 -1.7189  1.2377 -0.2729
  152DOPC     N18139   2.903   1.429  17.428  0.2853  0.6859 -0.0314
  152DOPC   C1218140   2.837   1.418  17.297 -0.1120 -0.9191 -0.3685
  152DOPC  H12A18141   2.869   1.506  17.244  2.0059 -0.4330  1.5271
  152DOPC  H12B18142   2.730   1.419  17.313 -0.2831 -1.1468 -1.4252
  152DOPC   C1318143   3.054   1.407  17.414  0.5261 -0.1066  0.4060
  152DOPC  H13A18144   3.079   1.307  17.381 -1.1550 -0.5479  0.3809
  152DOPC  H13B18145   3.103   1.486  17.359  1.3239 -1.1882 -0.4768
  152DOPC  H13C18146   3.099   1.418  17.512  0.7892 -1.2715  0.4306
  152DOPC   C1418147   2.854   1.325  17.523 -0.6633 -0.7254 -0.3302
  152DOPC  H14A18148   2.754   1.348  17.557 -0.7477  0.4953 -1.3153
  152DOPC  H14B18149   2.863   1.229  17.473 -1.4295 -1.4142  0.8138
  152DOPC  H14C18150   2.920   1.322  17.607  0.3589  1.1766 -1.0136
  152DOPC   C1518151   2.868   1.567  17.478 -0.5563  0.6236 -0.3618
  152DOPC  H15A18152   2.907   1.645  17.415 -1.6768 -0.5722 -2.6596
  152DOPC  H15B18153   2.915   1.601  17.569  0.3479 -0.0973 -0.5399
  152DOPC  H15C18154   2.762   1.584  17.492 -0.9300 -2.5872  1.7595
  152DOPC   C1118155   2.866   1.295  17.208  0.0586  1.0198 -0.3923
  152DOPC  H11A18156   2.825   1.305  17.106 -2.2494  0.1421  0.3760
  152DOPC  H11B18157   2.975   1.278  17.201 -0.1922 -0.3633 -1.4915
  152DOPC     P18158   2.672   1.115  17.212 -0.1936  0.3525 -0.0658
  152DOPC   O1318159   2.563   1.214  17.221 -0.5728  0.3347 -0.5451
  152DOPC   O1418160   2.642   0.994  17.290 -0.0575  0.6234  0.0659
  152DOPC   O1218161   2.807   1.182  17.260 -0.3468  0.1130 -0.1857
  152DOPC   O1118162   2.695   1.084  17.055 -0.0858 -0.1631  0.3257
  152DOPC    C118163   2.807   1.007  17.014 -0.3758  0.5602  0.2644
  152DOPC    HA18164   2.859   0.966  17.103 -0.3950 -0.8708 -0.3466
  152DOPC    HB18165   2.882   1.065  16.955 -0.9858  0.6099 -0.4777
  152DOPC    C218166   2.758   0.892  16.925 -0.2572 -0.0425 -0.5985
  152DOPC    HS18167   2.851   0.834  16.906 -0.0659 -1.2350  3.1500
  152DOPC   O2118168   2.690   0.942  16.810  0.1374  0.2027 -0.1432
  152DOPC   C2118169   2.769   0.938  16.700  0.5997 -0.2556 -0.5773
  152DOPC   O2218170   2.885   0.913  16.699 -0.1141  0.0681  0.3387
  152DOPC   C2218171   2.700   0.983  16.572 -0.6822 -0.4570 -0.2709
  152DOPC   H2R18172   2.640   1.074  16.593 -1.6194 -0.9278 -0.8474
  152DOPC   H2S18173   2.624   0.909  16.540  0.6401 -0.3252 -4.3185
  152DOPC    C318174   2.682   0.781  17.008  0.1331  0.0915  0.2530
  152DOPC    HX18175   2.586   0.825  17.044  0.4200  0.0696  1.0775
  152DOPC    HY18176   2.749   0.759  17.094 -0.5189  0.1776  0.7929
  152DOPC   O3118177   2.649   0.661  16.934 -0.4250  0.1356  0.3359
  152DOPC   C3118178   2.754   0.575  16.917  0.1015 -0.1576  0.3225
  152DOPC   O3218179   2.867   0.593  16.963 -0.0220  0.4935  0.2010
  152DOPC   C3218180   2.710   0.451  16.837  0.3414  0.3866 -0.0225
  152DOPC   H2X18181   2.758   0.370  16.896  0.5560  1.5060  1.3849
  152DOPC   H2Y18182   2.600   0.439  16.835 -0.0122  3.1675 -0.6897
  152DOPC   C2318183   2.802   0.992  16.463 -0.2193  0.0229  0.8083
  152DOPC   H3R18184   2.836   0.888  16.448  0.0263 -0.0436  1.7792
  152DOPC   H3S18185   2.884   1.056  16.504 -1.6763  2.3741  0.2848
  152DOPC   C2418186   2.750   1.049  16.332 -0.0342  0.1496  1.1763
  152DOPC   H4R18187   2.712   1.153  16.340 -0.6229  0.1797 -1.2265
  152DOPC   H4S18188   2.665   0.993  16.288  0.0865  0.6590  0.2701
  152DOPC   C2518189   2.859   1.034  16.228 -0.0678  0.1203 -0.2052
  152DOPC   H5R18190   2.899   0.930  16.227 -1.3082 -0.4270  1.6338
  152DOPC   H5S18191   2.942   1.106  16.248  1.2749 -1.5121  0.4405
  152DOPC   C2618192   2.801   1.073  16.091 -0.3082 -0.3906  0.4759
  152DOPC   H6R18193   2.743   1.166  16.109  2.3227  1.3253  0.6254
  152DOPC   H6S18194   2.739   0.989  16.054  0.0921 -0.1068 -0.9356
  152DOPC   C2718195   2.913   1.105  15.987  0.6822 -0.0817 -0.2147
  152DOPC   H7R18196   2.981   1.017  15.982 -0.4853 -1.0811  0.9025
  152DOPC   H7S18197   2.968   1.197  16.015 -3.0629  2.1385  0.4656
  152DOPC   C2818198   2.859   1.136  15.849  0.0562 -0.1028  0.0226
  152DOPC   H8R18199   2.950   1.182  15.805 -0.2419  2.9583  2.3055
  152DOPC   H8S18200   2.783   1.216  15.842  2.4114  2.4026  0.9876
  152DOPC   C2918201   2.827   1.024  15.765  0.8334  0.0893  0.6571
  152DOPC   H9R18202   2.761   0.948  15.810 -0.1507 -0.9950 -2.3903
  152DOPC  C21018203   2.873   0.991  15.642  0.8181  0.0786  0.2895
  152DOPC  H10R18204   2.837   0.897  15.599 -0.0035  0.0597  0.9782
  152DOPC  C21118205   2.947   1.082  15.547  0.6691  0.4506 -0.0976
  152DOPC  H11R18206   3.014   1.022  15.481  1.4466  0.4579  0.6579
  152DOPC  H11S18207   3.023   1.146  15.598  1.0184  0.9810 -1.2508
  152DOPC  C21218208   2.865   1.182  15.454 -0.2443  0.8114 -0.6344
  152DOPC  H12R18209   2.946   1.237  15.402  1.5829  1.4051  2.5772
  152DOPC  H12S18210   2.814   1.256  15.519 -0.6123  1.3213 -1.4919
  152DOPC  C21318211   2.766   1.112  15.358  0.4013 -0.3978 -0.1998
  152DOPC  H13R18212   2.704   1.182  15.299 -3.1344 -2.0703  1.2116
  152DOPC  H13S18213   2.694   1.047  15.413  1.2581 -1.2897 -0.0959
  152DOPC  C21418214   2.847   1.049  15.242 -0.8542 -0.6131  0.8126
  152DOPC  H14R18215   2.917   0.968  15.272  0.3502 -0.9189 -2.4381
  152DOPC  H14S18216   2.917   1.130  15.212  2.4369 -2.9224  1.7040
  152DOPC  C21518217   2.758   1.001  15.122  0.1408  0.3306  0.8018
  152DOPC  H15R18218   2.677   1.070  15.091  0.6341 -0.1797 -1.8899
  152DOPC  H15S18219   2.705   0.911  15.163  0.8867 -0.2676  0.4710
  152DOPC  C21618220   2.849   0.951  15.012  0.3194  0.0641  0.2340
  152DOPC  H16R18221   2.940   0.896  15.045 -0.1301 -2.8030 -2.7967
  152DOPC  H16S18222   2.881   1.041  14.955  0.1983  0.1499  0.3004
  152DOPC  C21718223   2.773   0.861  14.915  0.0069 -0.7632  0.4243
  152DOPC  H17R18224   2.696   0.927  14.870  1.6421  0.0246 -1.3790
  152DOPC  H17S18225   2.728   0.777  14.972 -2.2236 -0.1099 -0.2471
  152DOPC  C21818226   2.868   0.808  14.809 -0.0578 -0.4329  0.3903
  152DOPC  H18R18227   2.833   0.729  14.739  1.0401 -1.3245  0.7954
  152DOPC  H18S18228   2.955   0.758  14.857  0.9854  0.3493 -0.6338
  152DOPC  H18T18229   2.919   0.894  14.761 -1.4561  1.4847  2.1621
  152DOPC   C3318230   2.757   0.446  16.691 -0.4825 -0.0796  0.5066
  152DOPC   H3X18231   2.755   0.344  16.646 -1.3712 -0.4062  1.2502
  152DOPC   H3Y18232   2.865   0.473  16.693 -0.2637 -0.6619 -1.5266
  152DOPC   C3418233   2.672   0.531  16.594 -0.4625 -0.0011 -0.0559
  152DOPC   H4X18234   2.638   0.626  16.641 -0.3381  0.0731 -0.1116
  152DOPC   H4Y18235   2.576   0.480  16.576 -0.4559  0.4510 -1.5326
  152DOPC   C3518236   2.734   0.565  16.459 -0.1302 -0.5714  0.5487
  152DOPC   H5X18237   2.785   0.479  16.411  0.9113  0.4704 -0.2690
  152DOPC   H5Y18238   2.804   0.649  16.480 -0.6858 -0.5620  2.5749
  152DOPC   C3618239   2.618   0.610  16.365  0.9305 -0.4801 -0.1959
  152DOPC   H6X18240   2.552   0.525  16.340  2.3385 -1.4285 -0.8315
  152DOPC   H6Y18241   2.570   0.698  16.412 -1.7145 -2.1528  0.4080
  152DOPC   C3718242   2.681   0.650  16.236  0.5431  0.1350 -0.3488
  152DOPC   H7X18243   2.753   0.734  16.252 -1.2828  2.0282 -1.5097
  152DOPC   H7Y18244   2.744   0.563  16.209 -0.8725 -1.3916  1.0903
  152DOPC   C3818245   2.588   0.694  16.124  0.2415  0.0173  0.1954
  152DOPC   H8X18246   2.655   0.737  16.047 -0.3942 -0.1575 -0.4649
  152DOPC   H8Y18247   2.538   0.785  16.162  0.6973 -0.0411  0.9612
  152DOPC   C3918248   2.495   0.585  16.073 -0.6595  0.6485 -0.3081
  152DOPC   H9X18249   2.450   0.532  16.158 -0.3573  0.6238 -0.1643
  152DOPC  C31018250   2.471   0.560  15.944  0.2240  0.5184 -0.5188
  152DOPC  H10X18251   2.409   0.474  15.914 -1.9683  1.5030  0.8923
  152DOPC  C31118252   2.539   0.638  15.830  0.1506  0.1392 -0.1964
  152DOPC  H11X18253   2.650   0.626  15.829  0.0169 -1.2119 -0.6530
  152DOPC  H11Y18254   2.526   0.748  15.842  2.1419  0.5008 -0.9042
  152DOPC  C31218255   2.492   0.590  15.687 -0.0655  0.0091 -0.7652
  152DOPC  H12X18256   2.382   0.608  15.687  0.3293  2.8245 -0.5680
  152DOPC  H12Y18257   2.526   0.484  15.686  1.4307  0.4526 -0.0687
  152DOPC  C31318258   2.543   0.665  15.570 -0.1077 -0.3919  0.2476
  152DOPC  H13X18259   2.532   0.775  15.582  2.0004 -0.0786 -0.3608
  152DOPC  H13Y18260   2.651   0.661  15.546  0.1696  1.7831  0.9391
  152DOPC  C31418261   2.458   0.619  15.448  0.3586  0.4236  0.3995
  152DOPC  H14X18262   2.445   0.509  15.455 -1.1471  0.5685  0.0772
  152DOPC  H14Y18263   2.358   0.666  15.457 -0.3080 -1.0417  0.9264
  152DOPC  C31518264   2.517   0.667  15.310  0.3158 -0.2844  0.4045
  152DOPC  H15X18265   2.624   0.640  15.294  0.8263  1.9361 -0.3203
  152DOPC  H15Y18266   2.518   0.778  15.318  0.5374 -0.2418 -0.1412
  152DOPC  C31618267   2.420   0.628  15.196 -1.1156 -0.5360 -0.0076
  152DOPC  H16X18268   2.419   0.517  15.187 -0.3107 -0.8304  2.6613
  152DOPC  H16Y18269   2.323   0.652  15.243 -0.6625 -0.3672  0.8786
  152DOPC  C31718270   2.434   0.708  15.070 -0.5320 -0.1548 -0.6072
  152DOPC  H17X18271   2.428   0.814  15.104  1.6862 -0.5739  1.4106
  152DOPC  H17Y18272   2.535   0.701  15.025  0.3761  1.1189  1.1179
  152DOPC  C31818273   2.326   0.690  14.951  0.2112 -0.0549  0.5176
  152DOPC  H18X18274   2.342   0.756  14.864 -0.0812  1.0715  1.2938
  152DOPC  H18Y18275   2.325   0.588  14.906 -1.5982  0.0850  0.1394
  152DOPC  H18Z18276   2.229   0.731  14.987 -0.3075 -1.1306  0.4052
  153DOPC     N18277   3.651   5.048  16.907  0.1744 -0.6776 -0.3303
  153DOPC   C1218278   3.551   4.975  16.819 -0.5663 -0.5044  0.2438
  153DOPC  H12A18279   3.503   4.897  16.876  0.2023 -0.0666  1.5397
  153DOPC  H12B18280   3.604   4.922  16.741 -0.8389  0.2292 -0.4506
  153DOPC   C1318281   3.583   5.163  16.988 -0.0073 -0.1445  0.0025
  153DOPC  H13A18282   3.664   5.206  17.045  0.3824 -0.0198 -0.6420
  153DOPC  H13B18283   3.539   5.234  16.920 -0.2899 -0.4502 -0.1376
  153DOPC  H13C18284   3.511   5.124  17.059  0.0426 -1.3029 -0.5449
  153DOPC   C1418285   3.766   5.113  16.828 -0.5776  0.3067 -0.2677
  153DOPC  H14A18286   3.828   5.166  16.899 -0.2210  1.7381 -1.6042
  153DOPC  H14B18287   3.821   5.038  16.772  0.7149  0.6224  0.5179
  153DOPC  H14C18288   3.727   5.188  16.762 -1.4778 -1.5812 -1.9932
  153DOPC   C1518289   3.718   4.953  16.995 -0.9590  0.2735 -0.1744
  153DOPC  H15A18290   3.785   4.996  17.068  1.4208 -0.9176 -1.5446
  153DOPC  H15B18291   3.795   4.906  16.936  0.0650  0.9097  0.6194
  153DOPC  H15C18292   3.646   4.882  17.033 -1.5876  0.5537 -0.8290
  153DOPC   C1118293   3.444   5.064  16.762 -0.0732 -0.2880 -0.3224
  153DOPC  H11A18294   3.372   4.992  16.715  1.4361 -1.4732 -0.9011
  153DOPC  H11B18295   3.385   5.115  16.840 -0.3049 -2.4626  1.0084
  153DOPC     P18296   3.563   5.159  16.536 -0.3615  0.1714 -0.2345
  153DOPC   O1318297   3.624   5.027  16.512  0.5545  0.1115 -0.0666
  153DOPC   O1418298   3.641   5.283  16.524 -0.0339 -0.2790  0.3791
  153DOPC   O1218299   3.494   5.164  16.678  0.6234 -0.1611 -0.1478
  153DOPC   O1118300   3.435   5.164  16.438 -0.4558 -0.0654 -0.1403
  153DOPC    C118301   3.337   5.273  16.457 -0.7867 -0.4047 -0.4169
  153DOPC    HA18302   3.383   5.373  16.445 -2.5773  0.1406 -3.7707
  153DOPC    HB18303   3.304   5.280  16.563 -1.5585  1.9489 -0.7568
  153DOPC    C218304   3.216   5.248  16.375 -0.0262  0.6129  0.4605
  153DOPC    HS18305   3.181   5.142  16.384 -1.0334  1.0522  2.0771
  153DOPC   O2118306   3.246   5.292  16.244 -0.3961 -0.1920  0.2465
  153DOPC   C2118307   3.281   5.201  16.159 -0.3513  0.0118  0.1929
  153DOPC   O2218308   3.270   5.082  16.181  0.1512  0.3261 -0.2281
  153DOPC   C2218309   3.336   5.273  16.026  0.6245 -0.4654  0.0366
  153DOPC   H2R18310   3.443   5.294  16.048  0.9513 -0.9353 -1.0560
  153DOPC   H2S18311   3.283   5.371  16.021 -0.0321 -0.8594 -0.9515
  153DOPC    C318312   3.093   5.325  16.411  0.4788  0.0678 -0.4639
  153DOPC    HX18313   3.127   5.423  16.451 -0.3809  0.4445 -0.6148
  153DOPC    HY18314   3.051   5.280  16.504  1.8004 -2.3332 -0.9737
  153DOPC   O3118315   2.990   5.334  16.309 -0.0797  0.5585 -0.4127
  153DOPC   C3118316   2.922   5.221  16.299  0.7477  0.3159 -0.7081
  153DOPC   O3218317   2.931   5.132  16.383  0.4666 -0.3922 -0.1152
  153DOPC   C3218318   2.810   5.225  16.197 -0.2598  0.4597 -0.6863
  153DOPC   H2X18319   2.729   5.167  16.247  0.6120  0.3981  0.7160
  153DOPC   H2Y18320   2.760   5.324  16.189 -0.5141  0.2411 -2.0068
  153DOPC   C2318321   3.317   5.191  15.896  0.1103  0.1245  0.5516
  153DOPC   H3R18322   3.211   5.157  15.883  0.8105 -1.9916 -0.0763
  153DOPC   H3S18323   3.368   5.093  15.903 -2.7549 -1.4153  1.9525
  153DOPC   C2418324   3.352   5.284  15.781  0.5867  0.1004 -0.3035
  153DOPC   H4R18325   3.455   5.326  15.777  0.0179  1.4367 -3.1955
  153DOPC   H4S18326   3.305   5.384  15.798  4.5601  2.0897  0.2779
  153DOPC   C2518327   3.319   5.225  15.647  0.4537  0.0151  0.6436
  153DOPC   H5R18328   3.211   5.199  15.654  0.6521 -2.9306 -3.4348
  153DOPC   H5S18329   3.377   5.136  15.617 -1.4801 -0.7139 -1.2021
  153DOPC   C2618330   3.333   5.325  15.531  0.7833  0.4788 -0.5519
  153DOPC   H6R18331   3.422   5.388  15.552  0.7445  0.5015 -0.4526
  153DOPC   H6S18332   3.246   5.394  15.534  1.3520  1.1822  0.7829
  153DOPC   C2718333   3.347   5.258  15.393 -0.4818 -0.1247 -0.0261
  153DOPC   H7R18334   3.271   5.178  15.399 -2.0830  1.4184  2.3730
  153DOPC   H7S18335   3.452   5.224  15.380  0.7100  1.7810  3.2188
  153DOPC   C2818336   3.306   5.351  15.275 -0.0995 -0.4055 -0.1365
  153DOPC   H8R18337   3.214   5.413  15.289 -0.5256 -1.0452 -0.0832
  153DOPC   H8S18338   3.264   5.289  15.193 -0.6216 -3.0414  1.9956
  153DOPC   C2918339   3.415   5.436  15.211 -0.4580 -0.5058  0.1466
  153DOPC   H9R18340   3.413   5.541  15.245 -0.4330 -0.6295  0.5427
  153DOPC  C21018341   3.503   5.400  15.121  0.0892 -0.2512  0.7339
  153DOPC  H10R18342   3.557   5.478  15.066  1.1773 -2.4529 -1.5367
  153DOPC  C21118343   3.509   5.264  15.056  1.0438 -0.3917 -0.7158
  153DOPC  H11R18344   3.434   5.258  14.974  0.5837 -0.0408 -0.3208
  153DOPC  H11S18345   3.489   5.187  15.134  0.5537  2.1672  1.8449
  153DOPC  C21218346   3.639   5.225  14.982 -0.3283 -1.0770 -0.0216
  153DOPC  H12R18347   3.638   5.126  14.932 -0.3513 -0.4784 -1.2258
  153DOPC  H12S18348   3.720   5.224  15.059  0.7077  0.8876 -1.0356
  153DOPC  C21318349   3.675   5.323  14.865 -0.4152 -0.1866  0.6298
  153DOPC  H13R18350   3.725   5.416  14.900  0.2579 -0.0534 -0.6427
  153DOPC  H13S18351   3.584   5.364  14.817  0.9088  0.0015 -1.8507
  153DOPC  C21418352   3.756   5.256  14.760  0.3560  0.3978 -0.0943
  153DOPC  H14R18353   3.698   5.172  14.717 -0.7687  1.4632 -0.7162
  153DOPC  H14S18354   3.844   5.204  14.803 -0.0405 -2.2435 -2.1924
  153DOPC  C21518355   3.809   5.345  14.640  0.1929 -0.0760 -0.3054
  153DOPC  H15R18356   3.867   5.432  14.677  0.8455 -0.1099 -1.2053
  153DOPC  H15S18357   3.722   5.392  14.589  0.1288 -0.4195 -0.5148
  153DOPC  C21618358   3.882   5.261  14.534 -0.4962  0.4289 -0.2957
  153DOPC  H16R18359   3.825   5.168  14.513  2.0521 -0.8421 -2.0305
  153DOPC  H16S18360   3.974   5.226  14.585 -1.0049 -1.0970 -0.3815
  153DOPC  C21718361   3.918   5.343  14.408  0.3105 -0.0112  0.3444
  153DOPC  H17R18362   3.959   5.443  14.434 -0.1884  0.2326  0.2088
  153DOPC  H17S18363   3.826   5.370  14.352  0.9212  3.6234  0.8312
  153DOPC  C21818364   4.009   5.264  14.310  0.1127 -0.3640 -0.0502
  153DOPC  H18R18365   4.114   5.255  14.345  0.5675 -3.0003 -1.7624
  153DOPC  H18S18366   4.008   5.301  14.205 -2.4904 -0.1093 -0.0080
  153DOPC  H18T18367   3.975   5.160  14.291  0.8510 -0.6434  0.1586
  153DOPC   C3318368   2.850   5.169  16.056  0.0389 -0.0761 -0.3008
  153DOPC   H3X18369   2.871   5.060  16.055 -0.3617 -0.1532 -0.9803
  153DOPC   H3Y18370   2.932   5.230  16.012  0.2161  1.3200  1.7969
  153DOPC   C3418371   2.729   5.180  15.962 -0.4433  0.0369 -0.1590
  153DOPC   H4X18372   2.682   5.277  15.985  0.4305  0.2098  1.0229
  153DOPC   H4Y18373   2.662   5.101  16.001  1.8481 -0.7086  2.6116
  153DOPC   C3518374   2.780   5.154  15.820 -0.2623 -0.7285  0.1251
  153DOPC   H5X18375   2.838   5.059  15.815 -0.6465 -0.9878  0.4727
  153DOPC   H5Y18376   2.856   5.229  15.789 -2.7498  0.2515 -4.4124
  153DOPC   C3618377   2.675   5.178  15.713 -0.3089 -0.2110  0.2611
  153DOPC   H6X18378   2.582   5.121  15.730 -1.0347  1.1671  1.0375
  153DOPC   H6Y18379   2.661   5.288  15.711  0.5130 -0.0783  1.0527
  153DOPC   C3718380   2.730   5.136  15.579  0.1827 -0.1756 -0.2587
  153DOPC   H7X18381   2.786   5.040  15.581  1.9802  0.8122 -0.7210
  153DOPC   H7Y18382   2.650   5.119  15.504  1.3505  1.9164 -2.1268
  153DOPC   C3818383   2.833   5.235  15.511  0.0573  0.3316 -0.2067
  153DOPC   H8X18384   2.913   5.239  15.588  1.3700  2.9722 -1.5965
  153DOPC   H8Y18385   2.794   5.338  15.502  2.6291  1.4295  0.4752
  153DOPC   C3918386   2.905   5.204  15.383  1.1958 -1.5212  0.8986
  153DOPC   H9X18387   2.989   5.135  15.402  1.1880 -1.5134  0.9624
  153DOPC  C31018388   2.872   5.216  15.253  0.7513 -1.1852  0.3512
  153DOPC  H10X18389   2.938   5.178  15.174  1.0267 -3.7741  1.7108
  153DOPC  C31118390   2.737   5.289  15.211 -0.2507  0.3792  0.4639
  153DOPC  H11X18391   2.748   5.399  15.224 -1.4352  0.3801  1.6407
  153DOPC  H11Y18392   2.657   5.245  15.275 -0.5083 -2.1747 -1.4727
  153DOPC  C31218393   2.692   5.263  15.064 -0.1725  0.2462 -0.8452
  153DOPC  H12X18394   2.594   5.314  15.049 -0.2226  0.8196  1.1423
  153DOPC  H12Y18395   2.680   5.154  15.049  1.7091 -0.2437  0.8562
  153DOPC  C31318396   2.795   5.322  14.971 -0.0126 -0.4970  0.5620
  153DOPC  H13X18397   2.816   5.429  14.992  1.7225 -0.2629 -1.9012
  153DOPC  H13Y18398   2.896   5.276  14.982 -0.5309 -1.3692  1.9090
  153DOPC  C31418399   2.745   5.318  14.820 -0.3833  0.7398  0.2315
  153DOPC  H14X18400   2.746   5.214  14.780 -0.4611 -1.4413  5.1079
  153DOPC  H14Y18401   2.636   5.339  14.823 -1.1629 -1.9919 -2.6699
  153DOPC  C31518402   2.831   5.407  14.731  0.0439  0.2155 -0.4701
  153DOPC  H15X18403   2.939   5.379  14.735  0.6102  1.6792 -2.9891
  153DOPC  H15Y18404   2.822   5.516  14.753 -0.3052  0.2391 -0.7309
  153DOPC  C31618405   2.779   5.386  14.584 -0.3208  0.3134  0.4291
  153DOPC  H16X18406   2.770   5.276  14.574 -0.6304  0.3470  0.3218
  153DOPC  H16Y18407   2.685   5.444  14.571 -0.4291  0.2606  0.9819
  153DOPC  C31718408   2.878   5.433  14.479 -0.0322  0.0107  0.2994
  153DOPC  H17X18409   2.876   5.544  14.471  1.0573 -0.0886 -3.9420
  153DOPC  H17Y18410   2.983   5.399  14.490 -0.3969 -1.4601 -0.5393
  153DOPC  C31818411   2.844   5.397  14.335 -0.0170 -0.4947 -0.4522
  153DOPC  H18X18412   2.763   5.461  14.295  1.6249 -0.1157 -3.4074
  153DOPC  H18Y18413   2.935   5.411  14.273 -1.1800 -0.9346 -2.3312
  153DOPC  H18Z18414   2.823   5.288  14.342 -0.8372 -0.3356 -0.4430
  154DOPC     N18415   5.692   2.982  16.799 -1.0353  0.2802  0.4576
  154DOPC   C1218416   5.836   2.983  16.736  0.2481 -0.0198  0.0181
  154DOPC  H12A18417   5.849   2.883  16.696  1.9004  0.2597 -0.1946
  154DOPC  H12B18418   5.910   3.006  16.811 -2.6012 -0.1425  3.1142
  154DOPC   C1318419   5.666   2.847  16.855 -0.9580  0.6376  0.0202
  154DOPC  H13A18420   5.721   2.838  16.948 -0.9290 -2.2791 -0.2012
  154DOPC  H13B18421   5.563   2.830  16.881 -0.7874 -2.1224 -0.8646
  154DOPC  H13C18422   5.698   2.769  16.788  0.9237  0.5101  1.0044
  154DOPC   C1418423   5.597   3.014  16.685 -0.1000 -0.1417  0.6505
  154DOPC  H14A18424   5.587   2.934  16.612 -0.2168 -0.3256  0.8648
  154DOPC  H14B18425   5.498   3.016  16.727 -0.6435 -1.8763 -0.4170
  154DOPC  H14C18426   5.621   3.107  16.636  3.6991 -1.2664  0.0839
  154DOPC   C1518427   5.680   3.089  16.895 -0.4257  0.3529 -0.9674
  154DOPC  H15A18428   5.741   3.077  16.983 -2.2998 -1.5462  0.1870
  154DOPC  H15B18429   5.579   3.091  16.934 -0.0236 -1.0169  0.2300
  154DOPC  H15C18430   5.698   3.189  16.860  1.9060  0.4881  0.4400
  154DOPC   C1118431   5.867   3.092  16.635  0.0729 -0.0713 -0.3921
  154DOPC  H11A18432   5.968   3.087  16.591 -0.2475 -0.1981 -1.1242
  154DOPC  H11B18433   5.800   3.082  16.547 -0.0126 -0.2113 -0.3117
  154DOPC     P18434   5.805   3.352  16.632 -0.2571 -0.5364 -0.3855
  154DOPC   O1318435   5.834   3.464  16.720 -0.7528 -0.6982 -0.4977
  154DOPC   O1418436   5.664   3.347  16.584  0.1424  0.2674 -0.3531
  154DOPC   O1218437   5.847   3.219  16.701  0.2831 -0.2201  0.1357
  154DOPC   O1118438   5.902   3.357  16.509  0.5016  0.5880 -0.4463
  154DOPC    C118439   5.876   3.442  16.400 -0.2255 -0.2495 -0.5484
  154DOPC    HA18440   5.954   3.521  16.403 -0.5149  0.0181  0.6997
  154DOPC    HB18441   5.775   3.488  16.412 -0.8512 -1.4682 -1.0167
  154DOPC    C218442   5.876   3.369  16.262  0.1225 -0.1138 -0.1211
  154DOPC    HS18443   5.857   3.452  16.190 -0.2217  1.7400  1.9872
  154DOPC   O2118444   5.768   3.275  16.264  0.0438  0.0206 -0.5263
  154DOPC   C2118445   5.645   3.314  16.249  0.3626 -0.7944 -0.1504
  154DOPC   O2218446   5.603   3.427  16.240  0.2376 -1.0190  0.3681
  154DOPC   C2218447   5.546   3.195  16.234  0.4660  0.1394  0.0187
  154DOPC   H2R18448   5.444   3.231  16.208  1.0214  2.4856  0.8407
  154DOPC   H2S18449   5.535   3.144  16.332  0.7046 -0.3225 -0.1907
  154DOPC    C318450   6.012   3.310  16.219  0.0267  0.0345 -0.3987
  154DOPC    HX18451   6.052   3.256  16.307 -0.5169  0.1380 -0.0824
  154DOPC    HY18452   6.082   3.393  16.193  2.3911 -1.6843  0.1015
  154DOPC   O3118453   5.994   3.221  16.105  0.0259 -0.0929 -0.5124
  154DOPC   C3118454   6.083   3.230  15.999  0.2189  0.0663  0.0158
  154DOPC   O3218455   6.181   3.302  16.001 -0.4785 -0.5662  0.1948
  154DOPC   C3218456   6.045   3.131  15.892  0.4760 -0.6969  0.1368
  154DOPC   H2X18457   6.118   3.134  15.809  1.4505 -3.0680  0.8144
  154DOPC   H2Y18458   6.051   3.030  15.939 -0.8807 -1.0749 -0.4507
  154DOPC   C2318459   5.593   3.079  16.134 -0.0204  0.5171 -0.3598
  154DOPC   H3R18460   5.521   3.002  16.170 -0.7250  1.0651 -0.5806
  154DOPC   H3S18461   5.693   3.035  16.153 -0.4076 -0.4048 -0.4179
  154DOPC   C2418462   5.570   3.125  15.990 -0.0423 -0.3890  0.5696
  154DOPC   H4R18463   5.613   3.046  15.925 -1.7728 -0.9038 -0.0010
  154DOPC   H4S18464   5.636   3.213  15.975 -1.2090  0.8045  2.1446
  154DOPC   C2518465   5.423   3.151  15.946 -0.2274  0.2881  0.1791
  154DOPC   H5R18466   5.381   3.239  16.000 -1.9826 -0.2859 -0.1724
  154DOPC   H5S18467   5.359   3.064  15.975 -1.2924  0.8202 -0.5073
  154DOPC   C2618468   5.409   3.168  15.792 -0.4450  0.0439  0.0109
  154DOPC   H6R18469   5.461   3.087  15.737 -1.5880  1.2988 -3.1258
  154DOPC   H6S18470   5.455   3.268  15.773  1.1064 -0.6682 -0.1373
  154DOPC   C2718471   5.263   3.175  15.750  0.0708  0.0200  0.0038
  154DOPC   H7R18472   5.219   3.271  15.786  0.2442  0.3373 -0.6138
  154DOPC   H7S18473   5.219   3.094  15.811 -1.2691  0.4829 -0.3039
  154DOPC   C2818474   5.227   3.150  15.606 -0.5157  0.0580  1.0174
  154DOPC   H8R18475   5.283   3.227  15.548  0.8708 -1.1449  0.7044
  154DOPC   H8S18476   5.120   3.166  15.581 -0.6387 -1.8334  0.1514
  154DOPC   C2918477   5.279   3.016  15.557 -0.3207  0.3304  0.2848
  154DOPC   H9R18478   5.301   2.946  15.639 -1.5213 -0.4960 -0.0785
  154DOPC  C21018479   5.282   2.972  15.429  0.1215  0.0098  0.0878
  154DOPC  H10R18480   5.328   2.874  15.409 -0.2510  0.3546 -2.7694
  154DOPC  C21118481   5.244   3.057  15.306 -0.1560  0.6114  0.1433
  154DOPC  H11R18482   5.326   3.117  15.261 -0.3497  0.3763 -0.5268
  154DOPC  H11S18483   5.174   3.138  15.336 -0.2012  1.4270 -2.0112
  154DOPC  C21218484   5.168   3.001  15.191  0.6857  0.2717 -0.1705
  154DOPC  H12R18485   5.102   2.916  15.221  1.5920 -0.3970 -0.0245
  154DOPC  H12S18486   5.250   2.955  15.132  1.6346  0.4947  0.9515
  154DOPC  C21318487   5.099   3.118  15.110  0.1427  0.9054  0.0469
  154DOPC  H13R18488   5.170   3.200  15.083  0.6881  0.3172 -0.3471
  154DOPC  H13S18489   5.019   3.157  15.176 -2.8874 -0.5624 -2.5321
  154DOPC  C21418490   5.031   3.072  14.984 -0.6207 -0.5517 -0.2754
  154DOPC  H14R18491   4.955   3.002  15.025 -0.2582  2.1914  6.3856
  154DOPC  H14S18492   5.095   3.019  14.911  1.0350  0.4254  0.4264
  154DOPC  C21518493   4.948   3.183  14.907  0.2260 -0.0352  0.2614
  154DOPC  H15R18494   4.893   3.248  14.979  2.1514 -0.6942  2.4772
  154DOPC  H15S18495   4.879   3.129  14.839  1.2655  0.2798 -1.0706
  154DOPC  C21618496   5.050   3.268  14.821  0.0503  0.1029 -0.1704
  154DOPC  H16R18497   5.141   3.208  14.801 -0.2644 -0.3292 -0.2982
  154DOPC  H16S18498   5.083   3.360  14.875  1.7056  0.3024 -1.4480
  154DOPC  C21718499   4.984   3.311  14.686 -0.0132 -0.7139  0.1914
  154DOPC  H17R18500   4.881   3.331  14.722 -0.0923 -1.7781  0.6004
  154DOPC  H17S18501   4.981   3.219  14.623  1.1047 -0.5485 -0.1169
  154DOPC  C21818502   5.051   3.431  14.633  0.1985  0.6580  0.1204
  154DOPC  H18R18503   4.996   3.469  14.544 -0.7578 -3.1453 -1.1021
  154DOPC  H18S18504   5.160   3.417  14.617  0.4355  1.5526  0.8625
  154DOPC  H18T18505   5.054   3.506  14.715 -1.5912 -0.5067  1.3274
  154DOPC   C3318506   5.904   3.152  15.827  0.3991  0.3869  0.4219
  154DOPC   H3X18507   5.882   3.255  15.790  0.8306  1.3223  2.6288
  154DOPC   H3Y18508   5.826   3.122  15.900 -0.5587 -0.2772 -0.8442
  154DOPC   C3418509   5.896   3.047  15.714 -0.2976 -0.2187 -0.3495
  154DOPC   H4X18510   5.792   3.035  15.677 -0.4017  2.1548 -0.9949
  154DOPC   H4Y18511   5.917   2.945  15.752  2.1434  1.1188  2.2318
  154DOPC   C3518512   5.967   3.097  15.587 -0.2355  0.5975  0.1384
  154DOPC   H5X18513   6.075   3.070  15.594 -0.5869 -1.1707 -0.6705
  154DOPC   H5Y18514   5.969   3.208  15.589 -2.4992  0.6666  0.7807
  154DOPC   C3618515   5.902   3.049  15.456 -0.1692 -0.0023 -0.7197
  154DOPC   H6X18516   5.972   3.072  15.374  0.1121  0.3707 -0.3804
  154DOPC   H6Y18517   5.878   2.942  15.471 -1.1394  0.4702  1.7236
  154DOPC   C3718518   5.775   3.110  15.421  0.1912 -0.2775  0.7171
  154DOPC   H7X18519   5.702   3.126  15.503  1.3318  2.6918  1.2447
  154DOPC   H7Y18520   5.804   3.214  15.394  3.0908 -0.9841  0.8229
  154DOPC   C3818521   5.704   3.042  15.302 -0.0661  0.4408  0.1369
  154DOPC   H8X18522   5.595   3.063  15.299  0.0049  0.7147 -1.9774
  154DOPC   H8Y18523   5.710   2.932  15.320  0.9288  0.7939  2.3019
  154DOPC   C3918524   5.759   3.059  15.161  0.1928  0.6741  0.3245
  154DOPC   H9X18525   5.857   3.010  15.148  0.2529  0.6378  0.8846
  154DOPC  C31018526   5.704   3.121  15.054 -0.5426  0.0908 -0.1148
  154DOPC  H10X18527   5.759   3.124  14.959  1.0479 -1.8258  0.6541
  154DOPC  C31118528   5.564   3.180  15.049  0.4968 -0.1700  0.0449
  154DOPC  H11X18529   5.554   3.270  15.114 -1.1396 -1.0797  1.1552
  154DOPC  H11Y18530   5.494   3.112  15.104  1.0687 -0.1280  0.8458
  154DOPC  C31218531   5.521   3.217  14.911  0.3490 -0.3728  0.3411
  154DOPC  H12X18532   5.591   3.285  14.858  2.0855 -1.9593  0.4548
  154DOPC  H12Y18533   5.422   3.265  14.923  1.2746  1.5330  0.5962
  154DOPC  C31318534   5.488   3.099  14.814  0.9093  0.0472  0.6244
  154DOPC  H13X18535   5.586   3.054  14.786  0.4460 -2.0698  2.1607
  154DOPC  H13Y18536   5.429   3.017  14.860 -1.0654  0.0513 -1.6762
  154DOPC  C31418537   5.409   3.135  14.686 -0.2998 -0.0496  0.2138
  154DOPC  H14X18538   5.304   3.157  14.712 -0.3516  0.4235 -0.3682
  154DOPC  H14Y18539   5.449   3.227  14.638 -2.8361  1.4663  0.8678
  154DOPC  C31518540   5.421   3.018  14.583 -0.6818  0.3142 -0.2915
  154DOPC  H15X18541   5.526   2.993  14.556 -1.4474 -1.1317 -2.1684
  154DOPC  H15Y18542   5.372   3.057  14.491 -1.5570  3.3382  1.3034
  154DOPC  C31618543   5.339   2.891  14.611 -0.0730 -0.0008  0.8003
  154DOPC  H16X18544   5.372   2.820  14.532 -0.8993 -0.2398  0.6631
  154DOPC  H16Y18545   5.350   2.848  14.713 -1.7800 -0.6264  0.7519
  154DOPC  C31718546   5.188   2.917  14.610  0.0064 -0.1735  0.1124
  154DOPC  H17X18547   5.142   2.819  14.637 -1.7055  1.2293  2.7298
  154DOPC  H17Y18548   5.155   2.982  14.694 -2.1298 -1.1453  0.0979
  154DOPC  C31818549   5.125   2.967  14.475  0.1216  0.3534  0.3317
  154DOPC  H18X18550   5.033   2.908  14.452  0.5568 -1.1472  2.2104
  154DOPC  H18Y18551   5.111   3.077  14.470  1.5705  0.5299 -0.1985
  154DOPC  H18Z18552   5.203   2.950  14.398 -2.5591 -1.5204 -2.2412
  155DOPC     N18553   1.020   0.904  17.484  0.0633  0.8936  0.6245
  155DOPC   C1218554   1.061   1.044  17.474 -0.3196  0.2459  0.3573
  155DOPC  H12A18555   1.138   1.055  17.399  0.8026 -1.8793  1.1187
  155DOPC  H12B18556   1.100   1.090  17.563  0.2107  0.2911  0.1067
  155DOPC   C1318557   0.977   0.845  17.352  0.1062  0.1623  0.4508
  155DOPC  H13A18558   0.910   0.915  17.305 -1.1942 -0.0998  1.8227
  155DOPC  H13B18559   1.065   0.825  17.294  0.8494  1.4074  1.1217
  155DOPC  H13C18560   0.917   0.757  17.372  1.7212 -1.2223 -0.6176
  155DOPC   C1418561   0.908   0.890  17.581 -0.5548  0.6505  0.4790
  155DOPC  H14A18562   0.868   0.790  17.569  1.9151 -0.3230 -0.1144
  155DOPC  H14B18563   0.932   0.899  17.686 -0.4248  1.5574  0.3796
  155DOPC  H14C18564   0.829   0.962  17.562  1.0734  2.4901  0.4101
  155DOPC   C1518565   1.136   0.819  17.527 -0.3339 -0.5595  0.0465
  155DOPC  H15A18566   1.211   0.806  17.451  0.2811 -0.1051  0.5589
  155DOPC  H15B18567   1.111   0.718  17.557  1.8263 -0.9853  0.5564
  155DOPC  H15C18568   1.179   0.869  17.613 -1.5287 -1.1809  1.0452
  155DOPC   C1118569   0.956   1.138  17.416  0.2163  0.2033 -0.4465
  155DOPC  H11A18570   0.864   1.120  17.475  0.4854  0.5397  0.0860
  155DOPC  H11B18571   0.981   1.244  17.433  0.7420  0.0517 -0.2507
  155DOPC     P18572   1.021   1.138  17.171 -0.0499 -0.0853 -0.3246
  155DOPC   O1318573   1.133   1.042  17.168  0.4187 -0.1640 -0.7051
  155DOPC   O1418574   1.056   1.284  17.188 -0.1146  0.6810  0.1684
  155DOPC   O1218575   0.920   1.116  17.281 -0.4022  0.2849  0.1820
  155DOPC   O1118576   0.944   1.118  17.038 -0.3404  0.3465 -0.5576
  155DOPC    C118577   0.837   1.207  17.016 -0.4498 -0.3212 -0.3689
  155DOPC    HA18578   0.874   1.311  17.026  0.9836 -0.8257 -0.1516
  155DOPC    HB18579   0.757   1.189  17.091 -0.2930 -0.9710 -0.3518
  155DOPC    C218580   0.781   1.215  16.873  0.4184 -0.1987  0.2100
  155DOPC    HS18581   0.745   1.317  16.846  1.3554 -0.2609 -1.4022
  155DOPC   O2118582   0.681   1.116  16.859  0.5048  0.6691 -0.6921
  155DOPC   C2118583   0.573   1.117  16.935 -0.4462 -0.5151  0.0203
  155DOPC   O2218584   0.544   1.207  17.011 -0.1623 -0.2478  0.1206
  155DOPC   C2218585   0.486   0.990  16.917 -0.1977  0.3880  0.2799
  155DOPC   H2R18586   0.385   1.020  16.881 -0.9214 -1.0303  1.0447
  155DOPC   H2S18587   0.487   0.936  17.014  1.4935 -0.1255  0.0101
  155DOPC    C318588   0.890   1.179  16.769 -0.9016 -0.7051 -0.3580
  155DOPC    HX18589   0.896   1.069  16.757  0.0172 -0.7855  0.6968
  155DOPC    HY18590   0.989   1.204  16.813 -0.6010 -1.7718 -0.3978
  155DOPC   O3118591   0.865   1.239  16.642  0.5512  0.4854  0.5213
  155DOPC   C3118592   0.928   1.358  16.616 -0.2456  0.0450 -0.1038
  155DOPC   O3218593   0.976   1.431  16.695 -0.3325  0.0608  0.0275
  155DOPC   C3218594   0.908   1.382  16.462 -0.3861  0.3131  0.3835
  155DOPC   H2X18595   0.894   1.285  16.410 -1.7090  0.9823 -0.5385
  155DOPC   H2Y18596   0.811   1.436  16.455 -0.5198 -0.0960 -1.3604
  155DOPC   C2318597   0.548   0.898  16.802  0.8685  0.1010  0.7136
  155DOPC   H3R18598   0.648   0.851  16.811  1.4495  0.5699 -2.2173
  155DOPC   H3S18599   0.548   0.949  16.703 -3.1918 -1.5128 -0.3389
  155DOPC   C2418600   0.458   0.774  16.775  0.3367  0.1342  0.1354
  155DOPC   H4R18601   0.355   0.814  16.770  1.0317  2.4510  2.3444
  155DOPC   H4S18602   0.460   0.683  16.839 -0.4032 -0.9633 -1.3251
  155DOPC   C2518603   0.484   0.710  16.632 -0.2408  0.4628  0.3388
  155DOPC   H5R18604   0.593   0.688  16.634  0.0207  1.3399 -1.7152
  155DOPC   H5S18605   0.464   0.789  16.556 -0.0782  0.9649  0.8123
  155DOPC   C2618606   0.398   0.584  16.603 -0.1616  0.4416 -0.5701
  155DOPC   H6R18607   0.290   0.609  16.610  0.1619  1.8289 -0.0257
  155DOPC   H6S18608   0.417   0.515  16.688 -0.5466  1.4496  0.3542
  155DOPC   C2718609   0.439   0.518  16.473 -0.3180  0.6994  0.3193
  155DOPC   H7R18610   0.375   0.427  16.470 -1.2473  1.3570 -0.5185
  155DOPC   H7S18611   0.544   0.483  16.482 -0.7432 -0.3305  1.6215
  155DOPC   C2818612   0.413   0.587  16.346  0.8927 -0.1986  0.4292
  155DOPC   H8R18613   0.474   0.680  16.339 -0.6880  0.7483 -2.5980
  155DOPC   H8S18614   0.313   0.633  16.364  0.2123 -1.5104  0.1065
  155DOPC   C2918615   0.423   0.491  16.228 -0.4296 -0.3394  0.1749
  155DOPC   H9R18616   0.401   0.387  16.253 -1.8531 -0.8714 -2.8673
  155DOPC  C21018617   0.470   0.514  16.100  0.2177 -0.8393  0.3682
  155DOPC  H10R18618   0.489   0.434  16.027  1.7386  1.1884 -1.5559
  155DOPC  C21118619   0.507   0.658  16.051  0.4735 -0.3396  0.3811
  155DOPC  H11R18620   0.486   0.724  16.138  0.8369  0.0301  0.1878
  155DOPC  H11S18621   0.430   0.684  15.975  2.2100 -0.5098 -1.4990
  155DOPC  C21218622   0.648   0.679  15.993  0.0895  0.2209 -0.0936
  155DOPC  H12R18623   0.715   0.626  16.065 -2.6200 -1.2296  1.5276
  155DOPC  H12S18624   0.677   0.786  15.996  0.7756  0.0198  1.6959
  155DOPC  C21318625   0.670   0.631  15.847  0.0596 -0.4234  0.9054
  155DOPC  H13R18626   0.634   0.526  15.846 -1.6397  0.0175 -2.6386
  155DOPC  H13S18627   0.778   0.634  15.823  0.3248  0.5015  2.0882
  155DOPC  C21418628   0.587   0.719  15.746 -0.4901 -0.3395 -0.0701
  155DOPC  H14R18629   0.614   0.826  15.754 -0.4406 -0.2752 -0.9627
  155DOPC  H14S18630   0.483   0.700  15.779 -0.8779 -0.6363 -1.4093
  155DOPC  C21518631   0.602   0.666  15.602 -0.3110 -0.4609 -0.6106
  155DOPC  H15R18632   0.520   0.706  15.540 -0.5831  0.3548  0.2624
  155DOPC  H15S18633   0.594   0.556  15.586  0.0955 -0.4561 -0.8831
  155DOPC  C21618634   0.732   0.711  15.536  0.0392 -0.0483 -0.0291
  155DOPC  H16R18635   0.811   0.655  15.591 -0.6494  0.1751  1.2348
  155DOPC  H16S18636   0.743   0.821  15.543 -0.9991  0.3353 -3.0124
  155DOPC  C21718637   0.743   0.677  15.383 -0.1136 -0.4406 -0.8434
  155DOPC  H17R18638   0.840   0.714  15.343  0.2195  0.3968  0.6555
  155DOPC  H17S18639   0.671   0.744  15.331 -0.7791 -0.6981 -0.2726
  155DOPC  C21818640   0.721   0.531  15.346  0.5776  0.0315  1.2973
  155DOPC  H18R18641   0.796   0.465  15.394  1.5593 -0.3343 -0.6380
  155DOPC  H18S18642   0.735   0.509  15.238  0.3093 -2.3405  1.7078
  155DOPC  H18T18643   0.615   0.499  15.360 -1.4206  2.6677 -4.5465
  155DOPC   C3318644   1.031   1.461  16.407  0.4744  0.0894 -0.0458
  155DOPC   H3X18645   1.127   1.406  16.413 -0.2064 -1.1164  0.1600
  155DOPC   H3Y18646   1.050   1.550  16.472  1.9965  1.1973 -1.9106
  155DOPC   C3418647   1.016   1.492  16.257 -0.5306 -0.7983 -0.2420
  155DOPC   H4X18648   0.937   1.569  16.244  1.1590  1.1423  0.3184
  155DOPC   H4Y18649   0.985   1.403  16.197 -0.3243 -1.9434  1.3077
  155DOPC   C3518650   1.144   1.548  16.193 -0.4630 -0.1615  0.2163
  155DOPC   H5X18651   1.195   1.610  16.270 -1.0945  2.7338 -1.5555
  155DOPC   H5Y18652   1.119   1.611  16.106 -1.2701  2.5484  2.2637
  155DOPC   C3618653   1.236   1.437  16.139 -0.7165 -0.3564 -0.2491
  155DOPC   H6X18654   1.281   1.378  16.221 -0.1424 -1.8291 -1.5579
  155DOPC   H6Y18655   1.171   1.368  16.081  0.6575 -1.6644 -0.2777
  155DOPC   C3718656   1.355   1.494  16.054 -0.5364  0.5114 -0.0560
  155DOPC   H7X18657   1.308   1.525  15.958  0.4230  0.5981 -0.5017
  155DOPC   H7Y18658   1.383   1.585  16.111 -0.3480  0.0680  0.5766
  155DOPC   C3818659   1.482   1.406  16.054 -0.2274 -0.2576 -0.3627
  155DOPC   H8X18660   1.445   1.302  16.038 -2.1020  0.0003  1.8024
  155DOPC   H8Y18661   1.529   1.405  16.155 -0.9583 -2.2112  0.0006
  155DOPC   C3918662   1.578   1.442  15.950  0.1273 -0.5262 -0.1744
  155DOPC   H9X18663   1.651   1.519  15.979 -1.5560  1.0680 -0.0402
  155DOPC  C31018664   1.571   1.399  15.822  0.1299 -0.1392  1.1859
  155DOPC  H10X18665   1.651   1.403  15.747 -1.6647 -0.1505 -0.8237
  155DOPC  C31118666   1.464   1.294  15.781 -0.4840  0.0620 -0.7572
  155DOPC  H11X18667   1.434   1.230  15.867 -0.6990  1.1869  0.0225
  155DOPC  H11Y18668   1.502   1.229  15.699 -1.8396  0.9975 -2.1828
  155DOPC  C31218669   1.348   1.365  15.723 -0.3295  0.0635 -0.8769
  155DOPC  H12X18670   1.320   1.454  15.783 -0.4220  0.2018 -1.1222
  155DOPC  H12Y18671   1.260   1.296  15.729  1.7559 -2.6652  1.0023
  155DOPC  C31318672   1.361   1.411  15.576 -0.6173 -0.4408 -0.0818
  155DOPC  H13X18673   1.285   1.489  15.554  0.7399  1.1265  0.5836
  155DOPC  H13Y18674   1.461   1.457  15.562 -0.9801 -0.2051 -2.4157
  155DOPC  C31418675   1.344   1.294  15.481 -0.1793 -0.8192  0.1316
  155DOPC  H14X18676   1.402   1.201  15.504 -0.9094 -1.6721 -1.2774
  155DOPC  H14Y18677   1.236   1.270  15.479 -0.2129 -0.8133  1.4322
  155DOPC  C31518678   1.383   1.332  15.333  0.5032  0.3007 -0.5999
  155DOPC  H15X18679   1.476   1.392  15.325  0.6399  0.2672  0.5816
  155DOPC  H15Y18680   1.302   1.386  15.281 -1.8587 -1.5149  1.0033
  155DOPC  C31618681   1.400   1.207  15.251  0.2775  0.3659  0.2011
  155DOPC  H16X18682   1.498   1.162  15.280 -0.4668 -1.1720  0.4575
  155DOPC  H16Y18683   1.323   1.129  15.270  1.5319 -1.2763 -1.0057
  155DOPC  C31718684   1.400   1.229  15.102 -0.3893 -0.3345 -0.1555
  155DOPC  H17X18685   1.490   1.286  15.070  0.6016 -0.0902  2.7776
  155DOPC  H17Y18686   1.419   1.129  15.057  3.3044  0.3397 -0.3872
  155DOPC  C31818687   1.272   1.275  15.043 -0.1660  0.3243  0.3179
  155DOPC  H18X18688   1.199   1.207  15.091 -0.6983  3.3853  4.3846
  155DOPC  H18Y18689   1.241   1.378  15.071  0.9862  0.4981  1.0444
  155DOPC  H18Z18690   1.278   1.277  14.932  0.8413 -1.0382  0.3220
  156DOPC     N18691   4.857   3.690  17.033 -0.6419  0.5702  0.0476
  156DOPC   C1218692   4.875   3.824  16.976 -0.4866 -0.3549  0.5819
  156DOPC  H12A18693   4.797   3.839  16.903 -1.5650 -0.3040  1.7179
  156DOPC  H12B18694   4.963   3.847  16.918 -2.5861  0.0239 -2.6939
  156DOPC   C1318695   4.966   3.663  17.138  0.0870  0.1349 -0.0966
  156DOPC  H13A18696   4.976   3.557  17.159  0.5896  0.1627 -0.1965
  156DOPC  H13B18697   5.060   3.698  17.098  0.0148 -0.3985 -0.7601
  156DOPC  H13C18698   4.943   3.714  17.230 -0.5872 -1.1254  0.4655
  156DOPC   C1418699   4.874   3.577  16.922 -0.1770  0.1229  0.3214
  156DOPC  H14A18700   4.978   3.565  16.895 -1.0165 -0.4607 -3.0486
  156DOPC  H14B18701   4.847   3.479  16.958 -0.4208 -1.1470 -3.0015
  156DOPC  H14C18702   4.817   3.593  16.832 -0.6010 -0.7998  0.4215
  156DOPC   C1518703   4.727   3.664  17.095 -0.3177 -0.2115  0.1343
  156DOPC  H15A18704   4.714   3.725  17.183 -0.5508 -0.0663  0.0005
  156DOPC  H15B18705   4.721   3.561  17.125  0.8222 -0.2349  0.3493
  156DOPC  H15C18706   4.647   3.693  17.029  0.2025  0.5774 -0.1733
  156DOPC   C1118707   4.844   3.936  17.073 -0.2939 -0.0778  0.1373
  156DOPC  H11A18708   4.916   3.934  17.157 -1.1515  3.3293  1.1202
  156DOPC  H11B18709   4.862   4.032  17.019 -1.7013  0.3605  0.4148
  156DOPC     P18710   4.585   3.992  17.047  0.0471  0.0983  0.0641
  156DOPC   O1318711   4.582   4.142  17.045  0.2049  0.1728 -0.6496
  156DOPC   O1418712   4.468   3.936  17.118  0.2371 -0.4229 -0.0545
  156DOPC   O1218713   4.713   3.935  17.123 -0.3357 -0.8378  0.1060
  156DOPC   O1118714   4.587   3.936  16.900 -0.1258 -0.5539  0.5395
  156DOPC    C118715   4.488   3.845  16.860 -0.5538 -0.0159  0.5237
  156DOPC    HA18716   4.387   3.891  16.863 -0.1246  1.2424 -1.6409
  156DOPC    HB18717   4.491   3.757  16.927 -3.0257 -0.0239  0.7124
  156DOPC    C218718   4.507   3.798  16.713 -0.3277  0.0896  0.3553
  156DOPC    HS18719   4.613   3.766  16.698  0.0847  1.4279  0.2706
  156DOPC   O2118720   4.477   3.914  16.629  0.1605 -0.0736 -0.2869
  156DOPC   C2118721   4.554   3.924  16.522 -0.4892 -0.0091 -0.0860
  156DOPC   O2218722   4.639   3.844  16.479  0.3189 -0.6511  0.4972
  156DOPC   C2218723   4.514   4.057  16.449  0.2522 -0.2897  0.0617
  156DOPC   H2R18724   4.547   4.144  16.511 -1.8102  1.6450 -1.3920
  156DOPC   H2S18725   4.404   4.065  16.438  0.5322  3.0751 -1.7251
  156DOPC    C318726   4.410   3.674  16.677 -0.4875  0.2146 -0.4509
  156DOPC    HX18727   4.316   3.712  16.722 -0.1244  1.3596 -0.6264
  156DOPC    HY18728   4.436   3.587  16.741  1.4315  0.4984 -0.7969
  156DOPC   O3118729   4.402   3.641  16.540 -0.3321  0.6001 -0.5714
  156DOPC   C3118730   4.319   3.714  16.473 -0.1440 -0.1974 -0.5310
  156DOPC   O3218731   4.228   3.781  16.516 -0.1657  0.5785  0.0753
  156DOPC   C3218732   4.341   3.695  16.326  0.7868  0.3027  0.6235
  156DOPC   H2X18733   4.440   3.738  16.302  1.0049 -1.0889 -1.2091
  156DOPC   H2Y18734   4.339   3.588  16.295  2.6052  0.7710 -1.3638
  156DOPC   C2318735   4.582   4.062  16.313 -0.0969 -0.3942 -0.0345
  156DOPC   H3R18736   4.522   3.996  16.246  0.9752 -1.2428 -0.1861
  156DOPC   H3S18737   4.685   4.022  16.313 -1.0482 -3.1120  1.1947
  156DOPC   C2418738   4.569   4.199  16.238 -0.8521  0.2118 -0.4792
  156DOPC   H4R18739   4.625   4.270  16.303 -0.6382 -0.3809  0.0033
  156DOPC   H4S18740   4.464   4.230  16.227 -0.7639 -0.1887 -3.5232
  156DOPC   C2518741   4.642   4.197  16.103 -0.2304 -0.5769 -0.1031
  156DOPC   H5R18742   4.739   4.146  16.118  0.4913  0.9870  0.8088
  156DOPC   H5S18743   4.656   4.304  16.076  1.6499  0.4284  4.1241
  156DOPC   C2618744   4.563   4.126  16.001  0.3221 -0.3888 -0.0410
  156DOPC   H6R18745   4.460   4.164  16.016  0.3702  0.5337 -1.7821
  156DOPC   H6S18746   4.568   4.018  16.028  0.8498  0.2633  2.8156
  156DOPC   C2718747   4.617   4.155  15.863  0.0340 -0.0162  0.2133
  156DOPC   H7R18748   4.718   4.108  15.859 -0.2172 -0.4990 -0.9573
  156DOPC   H7S18749   4.626   4.266  15.865  1.3283 -0.0984  2.6122
  156DOPC   C2818750   4.539   4.091  15.748 -0.0814  0.5165  0.2738
  156DOPC   H8R18751   4.435   4.123  15.773  0.1921  1.2684  0.4533
  156DOPC   H8S18752   4.527   3.980  15.749 -0.8297  0.5543 -1.3563
  156DOPC   C2918753   4.574   4.128  15.611  0.0174  0.0831 -0.5354
  156DOPC   H9R18754   4.627   4.224  15.600 -0.1574  0.1167 -1.1609
  156DOPC  C21018755   4.534   4.070  15.497  0.0162  0.3109  0.4740
  156DOPC  H10R18756   4.567   4.101  15.397  1.2228 -0.9604  0.4465
  156DOPC  C21118757   4.414   3.978  15.492  0.1690  1.0218  0.0958
  156DOPC  H11R18758   4.334   4.032  15.437 -2.3240 -0.5312  1.9872
  156DOPC  H11S18759   4.361   3.973  15.589 -0.6987  0.3594 -0.4015
  156DOPC  C21218760   4.443   3.836  15.438 -0.0837 -0.3236 -0.0418
  156DOPC  H12R18761   4.342   3.788  15.435 -0.1712 -0.1088 -1.0202
  156DOPC  H12S18762   4.512   3.784  15.507  1.1667  1.6765  0.2752
  156DOPC  C21318763   4.483   3.834  15.292 -0.4426 -0.4833  0.2645
  156DOPC  H13R18764   4.509   3.730  15.263 -0.8757 -0.4731 -0.1774
  156DOPC  H13S18765   4.567   3.905  15.279  0.0204 -1.1441 -0.4801
  156DOPC  C21418766   4.381   3.887  15.195  0.0631  0.5710 -0.3585
  156DOPC  H14R18767   4.343   3.983  15.236  0.1732  0.2817  0.4496
  156DOPC  H14S18768   4.306   3.807  15.178  0.5454 -0.0585  0.4136
  156DOPC  C21518769   4.428   3.915  15.050 -0.1003 -0.2749 -0.3832
  156DOPC  H15R18770   4.475   3.829  14.998 -0.8351 -0.1458 -1.2949
  156DOPC  H15S18771   4.499   3.999  15.036 -1.8764  1.2801 -0.4709
  156DOPC  C21618772   4.306   3.960  14.965  0.6818  0.0647 -0.0618
  156DOPC  H16R18773   4.268   4.051  15.016 -0.3556 -0.9150  0.9698
  156DOPC  H16S18774   4.229   3.881  14.979  1.0094 -0.1035  0.9342
  156DOPC  C21718775   4.333   3.973  14.815 -0.6114  0.2846  0.1124
  156DOPC  H17R18776   4.245   3.965  14.748 -0.4607 -1.1209  0.0656
  156DOPC  H17S18777   4.396   3.886  14.790 -2.4628 -1.2566  0.5864
  156DOPC  C21818778   4.408   4.105  14.778  0.1882  0.3326 -0.2437
  156DOPC  H18R18779   4.350   4.181  14.835  0.1221 -1.0616  1.6253
  156DOPC  H18S18780   4.407   4.143  14.673 -0.9992 -1.5971 -0.9765
  156DOPC  H18T18781   4.510   4.098  14.822 -1.0452 -0.3243  2.6994
  156DOPC   C3318782   4.238   3.771  16.237 -0.4410  0.5164  0.3483
  156DOPC   H3X18783   4.204   3.870  16.274  1.7667  1.6015 -0.3283
  156DOPC   H3Y18784   4.150   3.704  16.248  0.4079 -0.4836  1.1788
  156DOPC   C3418785   4.284   3.794  16.096 -0.2261  0.4352  0.3635
  156DOPC   H4X18786   4.375   3.856  16.081  0.6530 -0.8909  0.0876
  156DOPC   H4Y18787   4.205   3.858  16.051  1.8739  2.3615 -0.7754
  156DOPC   C3518788   4.311   3.656  16.024  0.3062 -0.1778 -0.2754
  156DOPC   H5X18789   4.214   3.602  16.028 -1.6302  3.0610  0.5457
  156DOPC   H5Y18790   4.383   3.606  16.091  0.0787  0.1485  0.2202
  156DOPC   C3618791   4.363   3.675  15.881 -0.1155  0.3018  0.8502
  156DOPC   H6X18792   4.292   3.725  15.812 -1.1614  1.7239  2.8312
  156DOPC   H6Y18793   4.452   3.742  15.873 -0.7178  1.0775  0.4757
  156DOPC   C3718794   4.400   3.544  15.817  0.7531 -0.3651  0.6125
  156DOPC   H7X18795   4.466   3.494  15.892  0.5654  1.4727  2.0950
  156DOPC   H7Y18796   4.305   3.487  15.808 -0.2678  1.3436  0.1901
  156DOPC   C3818797   4.456   3.540  15.677  0.0212  0.4441 -0.5896
  156DOPC   H8X18798   4.550   3.596  15.692 -0.7532  1.9523 -1.1224
  156DOPC   H8Y18799   4.402   3.607  15.606 -0.9210 -0.4269 -0.7204
  156DOPC   C3918800   4.496   3.401  15.631 -0.3387 -0.2388 -0.0135
  156DOPC   H9X18801   4.542   3.345  15.713  1.7783  1.4375  0.0045
  156DOPC  C31018802   4.480   3.351  15.509  0.0808 -0.4896  0.0667
  156DOPC  H10X18803   4.489   3.242  15.494 -0.4510 -0.5459  0.1324
  156DOPC  C31118804   4.430   3.425  15.387 -0.5181  0.6441 -0.2876
  156DOPC  H11X18805   4.493   3.394  15.301 -1.5574  2.7810 -1.9377
  156DOPC  H11Y18806   4.438   3.535  15.393 -1.5803  0.6936  0.5504
  156DOPC  C31218807   4.282   3.392  15.348  0.0911 -0.6047  0.1510
  156DOPC  H12X18808   4.209   3.401  15.431 -0.2200 -0.2794 -0.1553
  156DOPC  H12Y18809   4.282   3.291  15.301 -0.4112 -1.6544  2.3056
  156DOPC  C31318810   4.235   3.491  15.239 -0.5098 -0.8361 -0.3510
  156DOPC  H13X18811   4.276   3.589  15.270 -1.4511 -0.7934  0.8067
  156DOPC  H13Y18812   4.277   3.459  15.141  2.9302 -0.9841  1.0656
  156DOPC  C31418813   4.078   3.510  15.223 -0.6456  0.2577  0.6044
  156DOPC  H14X18814   4.042   3.415  15.177  3.0892 -0.4205 -1.2769
  156DOPC  H14Y18815   4.049   3.529  15.329  0.4181  0.9064  0.7950
  156DOPC  C31518816   4.044   3.629  15.130  0.1542  0.2714 -0.5797
  156DOPC  H15X18817   4.097   3.721  15.164 -1.4210  0.3989  1.7469
  156DOPC  H15Y18818   3.935   3.651  15.137  0.0174 -0.9312  2.4599
  156DOPC  C31618819   4.069   3.599  14.982 -0.3494  0.5992  0.1977
  156DOPC  H16X18820   4.172   3.573  14.950 -0.5171 -1.7852  1.3439
  156DOPC  H16Y18821   4.019   3.503  14.958 -0.9003  1.0543 -0.5070
  156DOPC  C31718822   3.992   3.696  14.894 -0.8274 -0.2891  0.4906
  156DOPC  H17X18823   3.883   3.678  14.911 -0.4782 -3.5414  0.0930
  156DOPC  H17Y18824   4.011   3.800  14.927 -1.8396  0.5499 -1.3675
  156DOPC  C31818825   4.032   3.686  14.748 -0.5249  0.2947  0.4286
  156DOPC  H18X18826   4.130   3.735  14.728 -0.4305 -0.4172 -0.9880
  156DOPC  H18Y18827   4.048   3.583  14.711 -0.1541 -0.0259  1.4576
  156DOPC  H18Z18828   3.952   3.734  14.686 -0.1707 -0.1934 -0.4285
  157DOPC     N18829   4.743   0.247  17.343 -0.7293  0.0335 -0.6322
  157DOPC   C1218830   4.805   0.121  17.403  0.1375 -0.4017 -0.1376
  157DOPC  H12A18831   4.869   0.090  17.322  1.0070 -0.1467  0.4351
  157DOPC  H12B18832   4.727   0.048  17.394 -0.8122  0.6300 -0.4521
  157DOPC   C1318833   4.633   0.298  17.427 -0.4773  0.3446 -0.1528
  157DOPC  H13A18834   4.558   0.226  17.455 -0.9591  0.7990 -0.2613
  157DOPC  H13B18835   4.663   0.318  17.529  1.8204 -1.7467 -0.3465
  157DOPC  H13C18836   4.591   0.387  17.382 -0.2566  0.1645 -0.7119
  157DOPC   C1418837   4.700   0.217  17.203  0.7447  0.3328 -0.2641
  157DOPC  H14A18838   4.638   0.128  17.207  2.4687 -1.0285 -2.0157
  157DOPC  H14B18839   4.647   0.298  17.156 -0.3648 -1.4623 -2.3372
  157DOPC  H14C18840   4.779   0.187  17.136  1.1757  0.6225  0.1147
  157DOPC   C1518841   4.856   0.351  17.327  0.0206  0.2321 -0.1050
  157DOPC  H15A18842   4.938   0.302  17.278  0.2453  1.2699 -0.8021
  157DOPC  H15B18843   4.900   0.384  17.420 -0.2252  1.9951 -0.5729
  157DOPC  H15C18844   4.829   0.443  17.277 -0.7197  0.7544  1.1838
  157DOPC   C1118845   4.891   0.116  17.533  0.5569  0.3366  0.5683
  157DOPC  H11A18846   4.844   0.190  17.601 -0.7325  0.8088 -0.7926
  157DOPC  H11B18847   4.884   0.014  17.577  0.8724  0.8543  1.8705
  157DOPC     P18848   5.136   0.059  17.449 -0.2138  0.0438  0.5178
  157DOPC   O1318849   5.157  -0.058  17.541 -0.0309 -0.1590 -0.6917
  157DOPC   O1418850   5.254   0.136  17.402 -0.0226 -0.2205  0.0951
  157DOPC   O1218851   5.028   0.159  17.513  0.0447 -0.0045  0.2110
  157DOPC   O1118852   5.049   0.016  17.329  0.4253 -0.2169 -0.7112
  157DOPC    C118853   5.099  -0.073  17.227  0.2241 -0.1769 -0.0346
  157DOPC    HA18854   5.090  -0.182  17.248  1.6593 -0.2132  0.5139
  157DOPC    HB18855   5.209  -0.064  17.216  0.2168  2.6774  1.2959
  157DOPC    C218856   5.037  -0.031  17.090 -0.4869 -0.8088 -0.3394
  157DOPC    HS18857   5.110  -0.064  17.013 -0.7676 -1.1660 -0.4578
  157DOPC   O2118858   5.016   0.111  17.085 -0.4382 -0.5498  0.1377
  157DOPC   C2118859   5.123   0.181  17.052 -0.0997 -0.3349 -0.1686
  157DOPC   O2218860   5.236   0.133  17.043  0.2507 -0.1176 -0.3025
  157DOPC   C2218861   5.089   0.330  17.031  0.1716  0.4624  0.1670
  157DOPC   H2R18862   5.150   0.395  17.097  3.0084  0.8597 -2.6370
  157DOPC   H2S18863   4.980   0.343  17.049 -0.5795 -3.5320 -0.4715
  157DOPC    C318864   4.902  -0.093  17.055 -0.2599  0.5199  0.4651
  157DOPC    HX18865   4.828  -0.051  17.126  0.1397 -0.9104  1.7822
  157DOPC    HY18866   4.905  -0.202  17.076  1.5240  0.9184  2.6281
  157DOPC   O3118867   4.849  -0.068  16.920  0.1277 -0.2935 -0.0966
  157DOPC   C3118868   4.909  -0.152  16.829  0.5329 -0.2416 -0.0044
  157DOPC   O3218869   5.012  -0.211  16.846  0.2895 -0.4988 -0.0221
  157DOPC   C3218870   4.833  -0.133  16.697  0.4689 -0.3497  0.5738
  157DOPC   H2X18871   4.724  -0.126  16.719  0.6656 -1.0195  1.8839
  157DOPC   H2Y18872   4.870  -0.036  16.659 -0.2103 -0.3581 -0.1467
  157DOPC   C2318873   5.129   0.367  16.884 -0.5715  0.1703  0.0299
  157DOPC   H3R18874   5.053   0.332  16.810 -0.8694  0.7362  0.0675
  157DOPC   H3S18875   5.230   0.330  16.856  0.4658  2.1971  0.9150
  157DOPC   C2418876   5.131   0.514  16.867  0.1296  0.4324 -0.5326
  157DOPC   H4R18877   5.191   0.560  16.949 -1.6817  0.3962  0.8861
  157DOPC   H4S18878   5.034   0.567  16.879  0.7735  1.6779 -0.6764
  157DOPC   C2518879   5.175   0.572  16.735  0.1138 -0.3710  0.7740
  157DOPC   H5R18880   5.274   0.532  16.706  0.0046  0.8379 -1.4982
  157DOPC   H5S18881   5.193   0.682  16.736 -1.2445 -0.1218  0.5745
  157DOPC   C2618882   5.078   0.536  16.623 -0.0694 -0.8047 -0.5221
  157DOPC   H6R18883   4.974   0.570  16.641  0.1293 -0.5752  0.2105
  157DOPC   H6S18884   5.067   0.426  16.608 -0.7001 -0.8902  0.4873
  157DOPC   C2718885   5.131   0.599  16.494  0.4469  0.1451  0.0709
  157DOPC   H7R18886   5.221   0.545  16.457 -0.9748 -1.1742 -1.6645
  157DOPC   H7S18887   5.158   0.707  16.495  0.8095  0.0532  0.3121
  157DOPC   C2818888   5.018   0.593  16.387 -0.8753 -0.5059  0.4417
  157DOPC   H8R18889   5.061   0.632  16.293  0.7676 -0.2227  1.2835
  157DOPC   H8S18890   4.942   0.668  16.419  0.0858 -0.0155  1.6638
  157DOPC   C2918891   4.946   0.465  16.361 -0.5001  0.1064  0.2035
  157DOPC   H9R18892   4.847   0.462  16.408 -0.4057  0.0517  0.4006
  157DOPC  C21018893   4.983   0.362  16.287  0.3147  0.4042  0.3133
  157DOPC  H10R18894   4.920   0.272  16.280  1.4062 -0.4436  0.9478
  157DOPC  C21118895   5.111   0.364  16.203 -0.1059 -0.4278  0.4332
  157DOPC  H11R18896   5.170   0.272  16.222  0.2244 -0.0738  1.1349
  157DOPC  H11S18897   5.179   0.445  16.237  0.3377 -0.4620 -0.3680
  157DOPC  C21218898   5.085   0.387  16.048  0.3801  0.1189 -0.5870
  157DOPC  H12R18899   5.180   0.427  16.007  1.2142 -0.3524  0.8077
  157DOPC  H12S18900   5.002   0.460  16.034 -0.3635 -0.6338 -0.2511
  157DOPC  C21318901   5.060   0.255  15.975  0.5442  0.2300 -0.7896
  157DOPC  H13R18902   4.957   0.229  16.006 -0.1026  2.3882 -0.9575
  157DOPC  H13S18903   5.138   0.179  15.996  0.6749  0.7948  0.9336
  157DOPC  C21418904   5.063   0.258  15.822 -0.0051  0.4887  0.1845
  157DOPC  H14R18905   5.035   0.160  15.778  1.5517 -0.3968  1.0892
  157DOPC  H14S18906   5.165   0.274  15.780 -0.7098  0.8877 -1.4598
  157DOPC  C21518907   4.961   0.362  15.765 -0.8936  0.1757  0.1344
  157DOPC  H15R18908   4.985   0.468  15.789 -2.6365  1.6341 -3.6848
  157DOPC  H15S18909   4.863   0.335  15.811  0.0924 -0.3297  2.0471
  157DOPC  C21618910   4.942   0.353  15.613  0.7173  0.5992  0.6445
  157DOPC  H16R18911   4.860   0.425  15.590 -0.2030 -0.4404  0.5879
  157DOPC  H16S18912   4.924   0.251  15.573 -0.8724  1.2048 -0.2906
  157DOPC  C21718913   5.073   0.397  15.539 -0.2856  0.7110 -0.4754
  157DOPC  H17R18914   5.145   0.318  15.569 -1.3001  0.6019  1.8540
  157DOPC  H17S18915   5.108   0.494  15.580 -1.1194  0.4551  0.8862
  157DOPC  C21818916   5.070   0.405  15.390 -0.0411 -0.2665 -0.3018
  157DOPC  H18R18917   5.000   0.481  15.349  0.0666 -0.2943 -0.5388
  157DOPC  H18S18918   5.040   0.307  15.346  0.0335 -0.7210  0.6481
  157DOPC  H18T18919   5.167   0.437  15.347 -0.7165  0.8566 -1.0516
  157DOPC   C3318920   4.846  -0.243  16.595 -0.7760 -0.0098 -0.7751
  157DOPC   H3X18921   4.811  -0.334  16.648  2.7257 -0.0714  1.8636
  157DOPC   H3Y18922   4.956  -0.252  16.579 -1.1010 -3.5747 -1.7951
  157DOPC   C3418923   4.785  -0.212  16.466 -0.1349  0.3711 -0.0946
  157DOPC   H4X18924   4.803  -0.107  16.437  1.5150  0.8499  2.4148
  157DOPC   H4Y18925   4.675  -0.228  16.463 -0.3162  1.1831  1.3807
  157DOPC   C3518926   4.840  -0.296  16.349  0.0210 -0.6563 -0.2307
  157DOPC   H5X18927   4.806  -0.401  16.361  1.2739 -1.1473 -0.7832
  157DOPC   H5Y18928   4.951  -0.292  16.342  0.2305 -3.8864 -0.0456
  157DOPC   C3618929   4.769  -0.245  16.217  0.5730  0.1742  0.6599
  157DOPC   H6X18930   4.661  -0.234  16.244  0.9196  0.0599  2.1696
  157DOPC   H6Y18931   4.812  -0.149  16.180 -0.2082  1.2901  2.5023
  157DOPC   C3718932   4.777  -0.343  16.093 -0.9624 -0.1350 -0.1774
  157DOPC   H7X18933   4.769  -0.451  16.120 -1.8526 -0.1825 -0.5874
  157DOPC   H7Y18934   4.687  -0.313  16.035 -1.6199 -2.1805 -0.3070
  157DOPC   C3818935   4.904  -0.319  16.010 -0.3057 -0.1764 -0.7940
  157DOPC   H8X18936   4.986  -0.350  16.079 -2.4471 -2.6982  0.8379
  157DOPC   H8Y18937   4.918  -0.209  15.998 -0.2733 -0.2562 -1.4832
  157DOPC   C3918938   4.895  -0.388  15.881  0.4810  0.6506 -0.2308
  157DOPC   H9X18939   4.931  -0.492  15.882  1.0715  0.8444  1.2459
  157DOPC  C31018940   4.861  -0.335  15.764 -0.0253 -0.2379  0.4843
  157DOPC  H10X18941   4.846  -0.396  15.673 -0.9957  1.6005 -0.6492
  157DOPC  C31118942   4.831  -0.191  15.733  0.0629 -0.5484 -0.3405
  157DOPC  H11X18943   4.920  -0.128  15.756 -2.1646  2.4325  0.7942
  157DOPC  H11Y18944   4.745  -0.151  15.790 -0.6172  1.2656 -2.4608
  157DOPC  C31218945   4.794  -0.177  15.585  0.5341  0.1012  1.3779
  157DOPC  H12X18946   4.712  -0.247  15.557  1.3685 -0.0884 -0.8481
  157DOPC  H12Y18947   4.884  -0.211  15.530 -0.1774 -1.0831  0.9021
  157DOPC  C31318948   4.767  -0.032  15.534  0.3958  0.4036  1.2040
  157DOPC  H13X18949   4.669   0.004  15.573 -0.3479  0.1939 -0.3757
  157DOPC  H13Y18950   4.833   0.050  15.568  2.0732 -0.1162 -0.5655
  157DOPC  C31418951   4.759  -0.014  15.377  0.5891 -0.2693  0.1425
  157DOPC  H14X18952   4.857  -0.043  15.333 -0.8318 -1.4902 -2.4725
  157DOPC  H14Y18953   4.686  -0.081  15.327  1.3786  0.5160 -2.1660
  157DOPC  C31518954   4.724   0.137  15.345  0.4208  0.3904  0.4425
  157DOPC  H15X18955   4.817   0.194  15.369  2.2628 -1.6684 -1.3857
  157DOPC  H15Y18956   4.638   0.179  15.402 -0.5804  0.6568 -1.2197
  157DOPC  C31618957   4.700   0.149  15.189 -0.7759 -0.3857  0.2163
  157DOPC  H16X18958   4.791   0.124  15.130 -0.2646  1.2459  0.2510
  157DOPC  H16Y18959   4.623   0.074  15.162 -0.4562 -0.7592  0.3311
  157DOPC  C31718960   4.653   0.294  15.152  0.8219  0.8688 -0.0498
  157DOPC  H17X18961   4.549   0.300  15.191  1.3076  0.1890  1.4304
  157DOPC  H17Y18962   4.718   0.368  15.205  2.8019 -0.9316  0.1846
  157DOPC  C31818963   4.664   0.319  15.003 -0.1074 -0.4724 -0.0614
  157DOPC  H18X18964   4.652   0.428  14.984  0.5963 -0.6906 -1.9175
  157DOPC  H18Y18965   4.765   0.293  14.968  0.4806 -0.0093  1.2143
  157DOPC  H18Z18966   4.585   0.263  14.949 -0.8456  1.1570 -0.7744
  158DOPC     N18967   2.580   5.968  17.448  0.0265 -0.4799 -0.0025
  158DOPC   C1218968   2.572   5.847  17.356 -0.0469  0.2514 -0.3077
  158DOPC  H12A18969   2.480   5.792  17.371 -0.6485  0.9955 -1.2151
  158DOPC  H12B18970   2.657   5.784  17.379 -1.0409 -2.0970 -2.5369
  158DOPC   C1318971   2.454   6.045  17.445 -0.2036  0.0381  0.0637
  158DOPC  H13A18972   2.467   6.129  17.511 -1.1197  0.4331 -0.2521
  158DOPC  H13B18973   2.437   6.090  17.349  1.4637  5.2373  1.8820
  158DOPC  H13C18974   2.371   5.982  17.474 -0.1728 -0.0920 -0.1265
  158DOPC   C1418975   2.701   6.055  17.430  0.2386  0.4905 -0.2122
  158DOPC  H14A18976   2.792   6.000  17.450 -0.3493 -0.5037 -0.2035
  158DOPC  H14B18977   2.700   6.080  17.325  0.1298 -0.0657 -0.3481
  158DOPC  H14C18978   2.698   6.152  17.478 -1.8342  0.5480 -0.3841
  158DOPC   C1518979   2.577   5.907  17.590  0.1647 -0.6324 -0.3473
  158DOPC  H15A18980   2.481   5.860  17.601 -0.9087  0.7575 -2.8140
  158DOPC  H15B18981   2.577   5.985  17.665 -2.1346 -1.1810  0.2686
  158DOPC  H15C18982   2.652   5.832  17.609  0.8272 -0.1662 -1.0413
  158DOPC   C1118983   2.587   5.869  17.205  0.3473 -0.0205 -0.5844
  158DOPC  H11A18984   2.691   5.903  17.182  0.4758 -2.4381 -4.5355
  158DOPC  H11B18985   2.579   5.772  17.152 -0.9720  0.5366 -1.4502
  158DOPC     P18986   2.364   5.919  17.100 -0.3790 -0.1220  0.2197
  158DOPC   O1318987   2.266   6.033  17.099  0.2470 -0.2755 -0.0165
  158DOPC   O1418988   2.320   5.792  17.159 -0.2465 -0.0287  0.5692
  158DOPC   O1218989   2.505   5.970  17.152 -0.1797 -0.0813  0.0542
  158DOPC   O1118990   2.400   5.887  16.945 -0.5383 -0.0159 -0.5821
  158DOPC    C118991   2.291   5.867  16.852 -0.3521 -0.2610 -0.0454
  158DOPC    HA18992   2.189   5.879  16.897 -1.2939 -1.7717 -1.6432
  158DOPC    HB18993   2.290   5.760  16.822  1.8820 -0.3762  0.1892
  158DOPC    C218994   2.291   5.968  16.738 -0.2773 -0.1943  0.8074
  158DOPC    HS18995   2.213   5.941  16.663  0.8874 -0.7690 -0.2379
  158DOPC   O2118996   2.416   5.973  16.675  0.5455  0.0784 -0.2215
  158DOPC   C2118997   2.430   5.882  16.582  0.0903 -0.0093  0.3013
  158DOPC   O2218998   2.345   5.801  16.541  0.6134 -0.3598 -0.2821
  158DOPC   C2218999   2.575   5.887  16.523  0.0432 -0.0097  0.7579
  158DOPC   H2R19000   2.639   5.821  16.586 -0.8262 -0.1280  1.5454
  158DOPC   H2S19001   2.610   5.992  16.520 -1.6498  0.5743  0.6252
  158DOPC    C319002   2.254   6.109  16.780  0.0436  0.8226 -0.3325
  158DOPC    HX19003   2.335   6.144  16.847  1.0679  0.5828 -1.4274
  158DOPC    HY19004   2.159   6.102  16.838  0.1775 -0.4673 -0.2332
  158DOPC   O3119005   2.242   6.210  16.672 -0.5501 -0.3107  0.5923
  158DOPC   C3119006   2.144   6.186  16.582 -0.3144  0.0644 -0.3479
  158DOPC   O3219007   2.040   6.125  16.608  0.0653 -0.5755  0.4459
  158DOPC   C3219008   2.175   6.261  16.452  0.3398 -0.5212  0.1452
  158DOPC   H2X19009   2.082   6.318  16.429  1.6377  1.8605  0.4311
  158DOPC   H2Y19010   2.250   6.338  16.483  1.3983 -1.6929  0.5719
  158DOPC   C2319011   2.583   5.832  16.375  0.4967  0.0483 -0.2784
  158DOPC   H3R19012   2.488   5.781  16.348 -0.3172  0.1513  2.1671
  158DOPC   H3S19013   2.659   5.751  16.370 -1.7958 -2.2519 -0.1465
  158DOPC   C2419014   2.601   5.934  16.268  0.6471 -0.9507  0.3658
  158DOPC   H4R19015   2.669   6.012  16.308 -0.0253 -1.1101  1.8793
  158DOPC   H4S19016   2.509   5.990  16.241  2.3292  2.2813  0.8514
  158DOPC   C2519017   2.660   5.875  16.143 -0.3432  0.0665 -1.2374
  158DOPC   H5R19018   2.593   5.807  16.086  0.7644 -4.0463  1.8873
  158DOPC   H5S19019   2.750   5.813  16.164 -0.2164 -0.1053 -2.2296
  158DOPC   C2619020   2.706   5.994  16.055  0.6965 -0.1055 -0.1248
  158DOPC   H6R19021   2.787   6.049  16.108  3.6793 -1.7876 -2.5833
  158DOPC   H6S19022   2.621   6.063  16.035  0.6031 -0.2347 -0.1766
  158DOPC   C2719023   2.764   5.946  15.921  0.6423 -0.6373  0.1466
  158DOPC   H7R19024   2.676   5.904  15.868 -1.2772  0.3839  2.3392
  158DOPC   H7S19025   2.844   5.871  15.939  1.1363 -0.4006 -1.0000
  158DOPC   C2819026   2.810   6.073  15.843  0.1679 -0.2561 -0.3390
  158DOPC   H8R19027   2.884   6.047  15.765 -0.3350  0.4605 -1.0789
  158DOPC   H8S19028   2.865   6.137  15.915 -1.0466  1.1387 -0.6067
  158DOPC   C2919029   2.694   6.148  15.782 -0.4320 -0.2246  0.0267
  158DOPC   H9R19030   2.653   6.218  15.856  1.7522 -0.3311  1.3963
  158DOPC  C21019031   2.650   6.137  15.655  0.3097 -0.2933  0.0137
  158DOPC  H10R19032   2.566   6.198  15.620  0.0466  0.3064  1.6328
  158DOPC  C21119033   2.693   6.047  15.543 -0.2276 -0.1589 -0.1251
  158DOPC  H11R19034   2.604   5.981  15.533 -1.8735  1.8433  0.4767
  158DOPC  H11S19035   2.779   5.980  15.562  0.3184  0.1540 -1.4162
  158DOPC  C21219036   2.715   6.114  15.401  0.4482 -0.3620 -0.7889
  158DOPC  H12R19037   2.786   6.199  15.414 -0.4071  0.7560 -2.9168
  158DOPC  H12S19038   2.621   6.167  15.377 -1.0418 -2.0750  0.9114
  158DOPC  C21319039   2.752   6.018  15.292  0.3546  0.0258  0.6404
  158DOPC  H13R19040   2.676   5.936  15.283 -1.0241  1.3984 -0.7674
  158DOPC  H13S19041   2.852   5.978  15.317 -0.0769 -1.5258  0.0404
  158DOPC  C21419042   2.765   6.092  15.154 -0.0543 -0.1492 -0.7629
  158DOPC  H14R19043   2.834   6.179  15.162 -0.1973  0.1068 -2.0689
  158DOPC  H14S19044   2.671   6.144  15.128  0.0234  0.6836  0.5433
  158DOPC  C21519045   2.802   5.995  15.046 -0.4757  0.0165  0.5146
  158DOPC  H15R19046   2.887   5.927  15.069  0.2787  0.9567  0.5457
  158DOPC  H15S19047   2.842   6.060  14.965  2.2464  1.1462  2.6084
  158DOPC  C21619048   2.687   5.913  14.979  0.4211 -0.1776  0.5591
  158DOPC  H16R19049   2.589   5.966  14.979  1.3311  1.6039 -0.6760
  158DOPC  H16S19050   2.665   5.828  15.048  0.8961 -0.0759  0.8369
  158DOPC  C21719051   2.720   5.854  14.842  0.3725 -0.0032  0.1222
  158DOPC  H17R19052   2.825   5.817  14.843 -0.1259 -1.5881 -1.3423
  158DOPC  H17S19053   2.717   5.936  14.768 -0.5661  1.2572  1.5075
  158DOPC  C21819054   2.636   5.740  14.802  0.7331 -0.1620 -0.6429
  158DOPC  H18R19055   2.630   5.665  14.884 -0.5523  2.6345  2.0026
  158DOPC  H18S19056   2.686   5.680  14.723  0.7434 -3.0303  1.3699
  158DOPC  H18T19057   2.530   5.764  14.780  0.7310  0.7675  0.3378
  158DOPC   C3319058   2.225   6.170  16.336  0.3556  0.4780  0.1797
  158DOPC   H3X19059   2.149   6.092  16.314 -0.0221  0.5335  1.2371
  158DOPC   H3Y19060   2.320   6.119  16.363 -0.0381 -0.3800 -0.0214
  158DOPC   C3419061   2.245   6.251  16.208  0.1826 -0.3599 -0.6404
  158DOPC   H4X19062   2.329   6.320  16.233 -0.1128  0.6211 -2.2139
  158DOPC   H4Y19063   2.165   6.327  16.196  0.8049  0.5209  0.4753
  158DOPC   C3519064   2.290   6.165  16.092  0.2405 -0.5038  0.0278
  158DOPC   H5X19065   2.211   6.092  16.063  0.6959 -0.7021 -0.7412
  158DOPC   H5Y19066   2.389   6.131  16.130 -0.3331 -2.6759 -0.2507
  158DOPC   C3619067   2.326   6.242  15.962  0.0161  0.0926 -0.6031
  158DOPC   H6X19068   2.409   6.312  15.986 -0.9516  1.4125 -1.0039
  158DOPC   H6Y19069   2.361   6.171  15.884 -3.6779 -1.1442 -1.3833
  158DOPC   C3719070   2.214   6.336  15.899 -0.1368  0.5323  0.3131
  158DOPC   H7X19071   2.133   6.273  15.858 -0.1736  0.3216  0.6966
  158DOPC   H7Y19072   2.178   6.407  15.977  1.7699  1.6555  0.2364
  158DOPC   C3819073   2.281   6.423  15.788 -0.3816 -0.1410 -0.1839
  158DOPC   H8X19074   2.347   6.352  15.733  1.3665  1.4532 -0.2230
  158DOPC   H8Y19075   2.343   6.496  15.843  0.4106  0.2611 -1.5600
  158DOPC   C3919076   2.190   6.492  15.690 -0.0823 -0.4128 -0.0596
  158DOPC   H9X19077   2.113   6.550  15.744  1.4288 -1.0929  3.0207
  158DOPC  C31019078   2.182   6.468  15.552  0.1355 -0.3232 -0.0361
  158DOPC  H10X19079   2.097   6.520  15.505  0.7009 -0.2919 -1.0434
  158DOPC  C31119080   2.246   6.371  15.461 -0.7970  0.5009  0.3645
  158DOPC  H11X19081   2.185   6.285  15.425  0.2449  0.2971 -0.9728
  158DOPC  H11Y19082   2.328   6.324  15.520 -1.0775 -0.3421  0.1003
  158DOPC  C31219083   2.314   6.436  15.343  0.5674  0.1596  0.5432
  158DOPC  H12X19084   2.373   6.355  15.296  3.5249  0.9776  2.5831
  158DOPC  H12Y19085   2.380   6.524  15.355 -0.0066  0.7947 -0.7310
  158DOPC  C31319086   2.201   6.481  15.248  0.3840  0.2567  0.4170
  158DOPC  H13X19087   2.131   6.398  15.229 -0.9170  0.8049  2.4323
  158DOPC  H13Y19088   2.157   6.568  15.302  1.1484 -0.1720  1.8057
  158DOPC  C31419089   2.256   6.538  15.113  0.3569  0.1327 -0.4484
  158DOPC  H14X19090   2.349   6.596  15.138 -0.9098  1.2743  2.0454
  158DOPC  H14Y19091   2.299   6.454  15.055  0.3370 -0.2370  0.0631
  158DOPC  C31519092   2.161   6.634  15.037  0.7412 -0.0515 -0.2272
  158DOPC  H15X19093   2.126   6.702  15.118  3.2603  1.2400 -0.0854
  158DOPC  H15Y19094   2.082   6.582  14.981 -0.1266  0.1359  0.7928
  158DOPC  C31619095   2.249   6.724  14.951 -0.6800  0.2336 -0.2488
  158DOPC  H16X19096   2.212   6.821  14.913  1.5593 -0.0488 -3.5520
  158DOPC  H16Y19097   2.338   6.753  15.012 -0.4684 -0.4084 -0.2367
  158DOPC  C31719098   2.288   6.648  14.821  0.1309 -0.2155  0.0332
  158DOPC  H17X19099   2.348   6.562  14.858  1.0609 -0.1417 -1.2551
  158DOPC  H17Y19100   2.196   6.608  14.774 -2.6286  2.4959  2.6393
  158DOPC  C31819101   2.357   6.734  14.710 -0.0050 -0.4915  0.5049
  158DOPC  H18X19102   2.292   6.823  14.698 -2.5861 -2.3407 -0.1767
  158DOPC  H18Y19103   2.460   6.762  14.741  0.8365  1.3844 -3.3265
  158DOPC  H18Z19104   2.361   6.669  14.620  0.4949 -0.0510  0.2039
  159DOPC     N19105   5.505   0.947  17.397  0.0677 -0.1364  0.5247
  159DOPC   C1219106   5.527   0.811  17.337 -0.3299  0.9747  0.3808
  159DOPC  H12A19107   5.535   0.829  17.230 -0.6837 -0.7359  0.0387
  159DOPC  H12B19108   5.443   0.747  17.358 -0.7023  1.7267  1.2211
  159DOPC   C1319109   5.626   0.987  17.477  0.1794 -0.4312 -0.0577
  159DOPC  H13A19110   5.618   1.093  17.500 -0.6016 -0.5966  0.4701
  159DOPC  H13B19111   5.643   0.931  17.567  2.5104  1.3545  0.7185
  159DOPC  H13C19112   5.716   0.971  17.420  1.1884 -0.0532  1.3799
  159DOPC   C1419113   5.384   0.944  17.485  1.0945  0.6373 -0.0936
  159DOPC  H14A19114   5.404   0.880  17.569 -0.4817 -1.4513 -1.2103
  159DOPC  H14B19115   5.354   1.043  17.514  1.3188  0.0538  2.3827
  159DOPC  H14C19116   5.298   0.895  17.442  0.0336  1.2499  1.2893
  159DOPC   C1519117   5.482   1.050  17.287 -0.4223  0.1766  0.5037
  159DOPC  H15A19118   5.566   1.051  17.219 -0.8887 -1.4772 -0.1615
  159DOPC  H15B19119   5.454   1.146  17.329  0.2284  0.6733 -0.1868
  159DOPC  H15C19120   5.400   1.021  17.222 -0.5161  0.0637  0.6686
  159DOPC   C1119121   5.658   0.739  17.355 -0.0209  0.0752  0.3283
  159DOPC  H11A19122   5.694   0.749  17.460  0.3644 -1.1237  0.3225
  159DOPC  H11B19123   5.652   0.632  17.327 -0.5636  0.1200  0.2513
  159DOPC     P19124   5.793   0.755  17.136  0.1273  0.4609  0.0680
  159DOPC   O1319125   5.829   0.611  17.136 -0.4268  0.2187  0.5615
  159DOPC   O1419126   5.895   0.849  17.085 -0.5513  0.3742  0.1515
  159DOPC   O1219127   5.754   0.801  17.278 -0.1634 -0.3985 -0.3711
  159DOPC   O1119128   5.659   0.758  17.050  0.1924  0.0965 -0.3273
  159DOPC    C119129   5.582   0.640  17.028  0.1626  0.4860 -0.1175
  159DOPC    HA19130   5.477   0.672  17.007  0.1986 -0.2834 -1.5980
  159DOPC    HB19131   5.589   0.570  17.114  0.2730  0.4423 -0.1611
  159DOPC    C219132   5.625   0.568  16.897  0.3073  0.3035 -0.3562
  159DOPC    HS19133   5.736   0.559  16.894  0.3222 -0.7965  1.8772
  159DOPC   O2119134   5.575   0.654  16.791  0.5585  0.1659  0.0528
  159DOPC   C2119135   5.626   0.621  16.669  0.1882 -0.2594  0.2229
  159DOPC   O2219136   5.720   0.551  16.650  0.2942 -0.0117  0.1065
  159DOPC   C2219137   5.570   0.711  16.566  0.5767 -0.0107 -0.0516
  159DOPC   H2R19138   5.652   0.783  16.546  0.6917 -0.1955 -0.2504
  159DOPC   H2S19139   5.480   0.762  16.607  1.5628 -0.9208  3.6134
  159DOPC    C319140   5.556   0.426  16.891 -0.3261 -0.9510 -0.4396
  159DOPC    HX19141   5.449   0.456  16.892 -0.2182 -0.4839 -1.4292
  159DOPC    HY19142   5.589   0.366  16.978 -0.7156 -0.5373  0.0005
  159DOPC   O3119143   5.567   0.347  16.777  0.1374  0.9346  0.6263
  159DOPC   C3119144   5.665   0.260  16.758  0.5192 -0.4609  0.0930
  159DOPC   O3219145   5.736   0.212  16.849 -0.0782  0.2013 -0.0505
  159DOPC   C3219146   5.678   0.216  16.615  0.1595 -0.1676  0.7072
  159DOPC   H2X19147   5.779   0.248  16.580  0.6871 -2.3837  0.0830
  159DOPC   H2Y19148   5.665   0.106  16.614  1.2043 -0.3024 -0.5719
  159DOPC   C2319149   5.530   0.641  16.438 -0.1745  0.4218  0.4769
  159DOPC   H3R19150   5.455   0.560  16.438 -1.2458  1.3919  0.9579
  159DOPC   H3S19151   5.616   0.591  16.388 -1.7317 -1.4929 -0.4308
  159DOPC   C2419152   5.481   0.752  16.341 -0.4315  0.3336  0.3000
  159DOPC   H4R19153   5.564   0.824  16.330 -0.9161  1.1222  1.5954
  159DOPC   H4S19154   5.406   0.823  16.383 -1.0052  0.8110 -1.4209
  159DOPC   C2519155   5.435   0.698  16.208 -0.4440  0.5468  0.0912
  159DOPC   H5R19156   5.366   0.615  16.235  1.3819 -0.8511  0.6587
  159DOPC   H5S19157   5.509   0.642  16.148  0.5447  1.1849  0.6773
  159DOPC   C2619158   5.367   0.799  16.117 -0.1714 -0.4494 -0.2115
  159DOPC   H6R19159   5.446   0.867  16.079 -0.1773  0.6218  1.5333
  159DOPC   H6S19160   5.301   0.860  16.183 -1.3659 -1.2206 -0.6481
  159DOPC   C2719161   5.267   0.735  16.020 -0.0726  0.2291  0.5975
  159DOPC   H7R19162   5.204   0.660  16.073  2.4279 -2.3573  0.1434
  159DOPC   H7S19163   5.340   0.678  15.958  1.0272  1.1066  1.0486
  159DOPC   C2819164   5.184   0.841  15.940  0.6051 -0.4690 -0.2449
  159DOPC   H8R19165   5.253   0.910  15.887 -0.6652  2.1024  1.2637
  159DOPC   H8S19166   5.131   0.903  16.015 -1.3321 -1.2362 -0.9032
  159DOPC   C2919167   5.087   0.793  15.842 -0.6953  0.6258  0.2424
  159DOPC   H9R19168   4.978   0.800  15.854 -0.8298 -0.2995 -0.3143
  159DOPC  C21019169   5.125   0.731  15.727  0.2175  0.0028  0.1068
  159DOPC  H10R19170   5.052   0.691  15.654  1.8610  0.7402 -2.0502
  159DOPC  C21119171   5.267   0.714  15.679  0.0480 -0.1649 -0.1307
  159DOPC  H11R19172   5.299   0.610  15.658 -0.4538 -0.1892 -0.7904
  159DOPC  H11S19173   5.341   0.751  15.754 -1.9311  1.4468  1.1652
  159DOPC  C21219174   5.295   0.797  15.551 -0.6094 -0.1470 -0.7751
  159DOPC  H12R19175   5.404   0.797  15.533 -0.1686  0.9664  1.5078
  159DOPC  H12S19176   5.264   0.902  15.572  1.8627  1.0360 -2.4854
  159DOPC  C21319177   5.231   0.749  15.418 -0.2124 -0.5167 -0.6417
  159DOPC  H13R19178   5.126   0.717  15.438 -0.5438  1.0864  0.4309
  159DOPC  H13S19179   5.280   0.656  15.383 -0.1997 -0.3546 -1.0638
  159DOPC  C21419180   5.215   0.860  15.321  0.6188 -1.2197  0.8267
  159DOPC  H14R19181   5.318   0.885  15.286 -0.0227  1.3937  0.5970
  159DOPC  H14S19182   5.180   0.946  15.380 -0.3169 -1.0419  0.0474
  159DOPC  C21519183   5.112   0.831  15.206 -0.6546 -0.1476  0.4801
  159DOPC  H15R19184   5.115   0.918  15.137  1.4493 -1.6734 -1.5338
  159DOPC  H15S19185   5.012   0.824  15.252 -0.7765  0.0712  0.2544
  159DOPC  C21619186   5.147   0.705  15.126 -0.3500  0.7788  0.7220
  159DOPC  H16R19187   5.160   0.614  15.189  1.5013  0.0788 -0.5802
  159DOPC  H16S19188   5.243   0.720  15.073 -0.3297 -0.8339  0.2348
  159DOPC  C21719189   5.053   0.665  15.009  0.1134 -0.7593  0.1970
  159DOPC  H17R19190   5.105   0.583  14.954  1.5302 -0.9545  1.7553
  159DOPC  H17S19191   5.028   0.753  14.945 -1.7902 -0.8965  0.6778
  159DOPC  C21819192   4.933   0.596  15.068  0.1200 -0.2406 -0.4810
  159DOPC  H18R19193   4.853   0.573  14.995 -1.4308  2.2038  0.3278
  159DOPC  H18S19194   4.879   0.657  15.144 -2.7956  0.8055 -3.1652
  159DOPC  H18T19195   4.971   0.510  15.128  1.2972  1.9466  2.1014
  159DOPC   C3319196   5.582   0.272  16.500 -0.0762  0.0546 -0.0821
  159DOPC   H3X19197   5.589   0.383  16.497 -0.6658  0.0774 -0.8330
  159DOPC   H3Y19198   5.480   0.232  16.520  1.2315 -3.4141  0.3007
  159DOPC   C3419199   5.637   0.217  16.358  0.5926 -0.5271 -0.1954
  159DOPC   H4X19200   5.628   0.106  16.358  0.7960 -0.5635 -1.6975
  159DOPC   H4Y19201   5.746   0.235  16.356  0.2918  1.6370  0.4756
  159DOPC   C3519202   5.552   0.271  16.245 -0.4747  0.2398 -0.2126
  159DOPC   H5X19203   5.542   0.381  16.242  0.3713  0.3206 -0.0742
  159DOPC   H5Y19204   5.447   0.235  16.258 -0.1856 -0.8249 -0.7365
  159DOPC   C3619205   5.596   0.222  16.109  0.6098  0.3602  0.0932
  159DOPC   H6X19206   5.693   0.271  16.084  1.1110 -0.9433 -0.5919
  159DOPC   H6Y19207   5.605   0.112  16.102  1.5868  0.4031  0.4114
  159DOPC   C3719208   5.505   0.268  15.995  0.2805  0.4167 -0.2093
  159DOPC   H7X19209   5.414   0.204  16.002  0.9550 -0.4080  1.4620
  159DOPC   H7Y19210   5.482   0.376  16.008  2.4870  0.9574 -0.4739
  159DOPC   C3819211   5.566   0.256  15.859  0.5018  0.3866  0.2236
  159DOPC   H8X19212   5.620   0.159  15.854  2.5987  1.5011 -0.0012
  159DOPC   H8Y19213   5.651   0.327  15.857  3.0103 -2.4076  0.3535
  159DOPC   C3919214   5.462   0.279  15.747  0.3843 -0.6253 -0.5632
  159DOPC   H9X19215   5.375   0.215  15.766  1.3311 -1.3694  1.6315
  159DOPC  C31019216   5.463   0.373  15.647 -0.1981  1.0013 -0.5894
  159DOPC  H10X19217   5.379   0.355  15.579  0.1944 -2.0155 -0.4059
  159DOPC  C31119218   5.574   0.463  15.599 -0.2205  0.6525  0.4364
  159DOPC  H11X19219   5.666   0.438  15.655 -1.6759 -2.7162  1.5682
  159DOPC  H11Y19220   5.543   0.570  15.593 -1.6036  0.1844 -1.6346
  159DOPC  C31219221   5.585   0.418  15.452 -0.0662  0.5466  0.3788
  159DOPC  H12X19222   5.582   0.307  15.452 -3.0025  0.5378 -0.6292
  159DOPC  H12Y19223   5.686   0.454  15.421  0.2437 -1.3949 -1.0545
  159DOPC  C31319224   5.481   0.464  15.352  0.5818 -0.2231  0.3240
  159DOPC  H13X19225   5.376   0.436  15.375 -0.0241 -0.6745 -2.6389
  159DOPC  H13Y19226   5.477   0.575  15.351 -1.5895 -0.2542  1.2954
  159DOPC  C31419227   5.507   0.415  15.203  0.4373 -0.0121  0.2362
  159DOPC  H14X19228   5.438   0.478  15.144  2.3751  2.0298  0.0202
  159DOPC  H14Y19229   5.611   0.447  15.181  0.3171  0.3332  0.1736
  159DOPC  C31519230   5.487   0.272  15.166  0.6098  0.0993 -0.3399
  159DOPC  H15X19231   5.379   0.250  15.180  0.1774  1.3593 -1.4387
  159DOPC  H15Y19232   5.536   0.208  15.243 -0.5303 -0.6947 -0.2480
  159DOPC  C31619233   5.534   0.245  15.025 -0.1196 -0.5172 -0.5076
  159DOPC  H16X19234   5.474   0.318  14.967 -0.2327 -1.2668 -1.3409
  159DOPC  H16Y19235   5.643   0.263  15.010 -0.3364  0.2678 -1.1997
  159DOPC  C31719236   5.494   0.109  14.977  0.1475  0.0780 -0.2555
  159DOPC  H17X19237   5.531   0.034  15.050 -2.1922  0.8618  1.8441
  159DOPC  H17Y19238   5.385   0.089  14.978  0.2069 -0.6568 -2.5412
  159DOPC  C31819239   5.543   0.073  14.839 -0.3335 -0.7032 -0.4474
  159DOPC  H18X19240   5.514  -0.032  14.816  0.8559 -1.5664  1.6959
  159DOPC  H18Y19241   5.510   0.155  14.772 -0.2609  1.5188  2.0901
  159DOPC  H18Z19242   5.654   0.074  14.831 -0.3332  0.5863 -0.3888
  160DOPC     N19243   0.765   4.856  16.715  0.3537 -0.4107 -0.3991
  160DOPC   C1219244   0.879   4.941  16.658  0.7715  0.4384 -0.0667
  160DOPC  H12A19245   0.937   4.870  16.601  0.5207  0.2894 -0.1369
  160DOPC  H12B19246   0.928   4.980  16.745 -0.5936 -2.7289  2.3384
  160DOPC   C1319247   0.826   4.770  16.824 -0.5262  0.0672 -0.5072
  160DOPC  H13A19248   0.888   4.689  16.790 -0.7550 -1.1766  1.8178
  160DOPC  H13B19249   0.870   4.833  16.899 -1.6777 -0.5164  0.7141
  160DOPC  H13C19250   0.751   4.707  16.871 -0.1918 -1.0517 -1.4185
  160DOPC   C1419251   0.702   4.761  16.623  0.7127 -0.0260  0.1553
  160DOPC  H14A19252   0.698   4.796  16.521  1.2480 -1.0890 -0.2555
  160DOPC  H14B19253   0.751   4.664  16.626  2.8416  1.0239  2.6502
  160DOPC  H14C19254   0.599   4.741  16.645  0.3277  0.2708 -1.2539
  160DOPC   C1519255   0.656   4.948  16.760 -0.1967 -0.0753 -0.4353
  160DOPC  H15A19256   0.568   4.892  16.787 -0.1662  0.4066  0.7656
  160DOPC  H15B19257   0.626   5.016  16.682  1.0823 -0.1736 -1.0305
  160DOPC  H15C19258   0.696   5.006  16.842  0.0565 -0.8689  0.0193
  160DOPC   C1119259   0.845   5.052  16.561 -0.4815  0.5010 -0.0729
  160DOPC  H11A19260   0.941   5.085  16.515  0.5898  0.0012  1.6966
  160DOPC  H11B19261   0.779   5.012  16.481 -0.6690  1.0164 -0.1773
  160DOPC     P19262   0.719   5.278  16.559  0.0174 -0.0342  0.2199
  160DOPC   O1319263   0.752   5.406  16.624 -0.1953  0.1796 -0.0408
  160DOPC   O1419264   0.579   5.232  16.551  0.5384  0.0875 -0.1906
  160DOPC   O1219265   0.794   5.169  16.631 -0.0636  0.7335 -0.4571
  160DOPC   O1119266   0.779   5.274  16.411 -0.4910 -0.0360  0.0791
  160DOPC    C119267   0.754   5.367  16.305  0.5263 -0.1712  0.2367
  160DOPC    HA19268   0.828   5.449  16.310  0.2516  0.0099  1.6769
  160DOPC    HB19269   0.657   5.418  16.324  0.9619  0.1855  1.6120
  160DOPC    C219270   0.773   5.300  16.168 -0.1565  0.0493 -0.1550
  160DOPC    HS19271   0.877   5.263  16.161  1.6055  4.3082  0.3976
  160DOPC   O2119272   0.749   5.398  16.066 -0.2526 -0.3426 -0.1531
  160DOPC   C2119273   0.825   5.383  15.959 -0.2243  0.0931 -0.6523
  160DOPC   O2219274   0.928   5.318  15.955  0.2543  0.1910 -0.3219
  160DOPC   C2219275   0.766   5.442  15.835  0.6745 -0.0199  0.2556
  160DOPC   H2R19276   0.692   5.518  15.868  0.6703  0.3090 -0.5004
  160DOPC   H2S19277   0.707   5.356  15.797  0.2748 -0.3652  1.6197
  160DOPC    C319278   0.664   5.191  16.165  0.2455  0.4980 -0.2963
  160DOPC    HX19279   0.565   5.240  16.181  0.1335  0.4671 -0.8622
  160DOPC    HY19280   0.666   5.126  16.255 -0.6486  0.4370 -0.3094
  160DOPC   O3119281   0.665   5.115  16.049 -0.2630 -0.4821  0.0422
  160DOPC   C3119282   0.750   5.020  16.048 -0.3984  0.4007 -0.1762
  160DOPC   O3219283   0.802   4.978  16.152 -0.6610 -0.1706 -0.8584
  160DOPC   C3219284   0.791   4.978  15.908 -0.0554  0.2199  0.7214
  160DOPC   H2X19285   0.819   5.074  15.859 -0.1305 -0.1403 -0.0490
  160DOPC   H2Y19286   0.872   4.902  15.912 -0.7294 -0.5331  0.3845
  160DOPC   C2319287   0.865   5.497  15.723 -0.2382 -0.1596 -1.0764
  160DOPC   H3R19288   0.943   5.423  15.692 -2.6481 -2.5318 -1.9269
  160DOPC   H3S19289   0.911   5.590  15.762 -0.2518 -0.1532 -1.0767
  160DOPC   C2419290   0.797   5.549  15.587  0.0540  1.2694  0.3685
  160DOPC   H4R19291   0.724   5.630  15.610  0.2769  0.6840  3.5470
  160DOPC   H4S19292   0.734   5.466  15.550  2.4488 -1.6148  2.3601
  160DOPC   C2519293   0.910   5.587  15.483 -0.0246 -0.5017  0.0093
  160DOPC   H5R19294   0.963   5.490  15.473  1.6078  0.2755  0.6853
  160DOPC   H5S19295   0.980   5.655  15.536 -0.5219  0.5063 -0.6012
  160DOPC   C2619296   0.864   5.649  15.352  0.4927 -0.3451  0.3435
  160DOPC   H6R19297   0.803   5.740  15.373  2.9507  1.6279 -0.4778
  160DOPC   H6S19298   0.786   5.580  15.311 -2.2815  2.4072  0.5638
  160DOPC   C2719299   0.969   5.673  15.240  0.2110  0.3038 -0.5075
  160DOPC   H7R19300   1.026   5.579  15.226  0.2566  0.3204 -0.4352
  160DOPC   H7S19301   1.038   5.754  15.273  1.3495 -1.5497  1.9696
  160DOPC   C2819302   0.905   5.702  15.106  0.5815  0.1726  0.2986
  160DOPC   H8R19303   0.827   5.780  15.118  0.4942  0.1547 -0.1437
  160DOPC   H8S19304   0.838   5.618  15.077  2.9131 -0.9145 -2.3724
  160DOPC   C2919305   1.005   5.717  14.998 -0.1709  0.0203  0.3190
  160DOPC   H9R19306   1.110   5.705  15.029 -0.0547  0.7399  0.2125
  160DOPC  C21019307   0.980   5.732  14.867  0.5166  0.3596 -0.4349
  160DOPC  H10R19308   1.066   5.736  14.799  0.6338  0.6642 -0.2719
  160DOPC  C21119309   0.845   5.748  14.803 -0.4684 -0.2726  0.8487
  160DOPC  H11R19310   0.854   5.852  14.763  0.2667 -0.7281 -0.2083
  160DOPC  H11S19311   0.765   5.743  14.880  1.2628 -0.0189  2.7658
  160DOPC  C21219312   0.803   5.642  14.697 -0.3436 -0.6425  0.0126
  160DOPC  H12R19313   0.707   5.671  14.649  0.3527  0.7724 -0.5699
  160DOPC  H12S19314   0.812   5.541  14.743 -1.4663 -1.8540 -2.2487
  160DOPC  C21319315   0.899   5.652  14.580  1.0899  0.3424 -0.1073
  160DOPC  H13R19316   0.999   5.623  14.621  0.7747  1.2464  1.3663
  160DOPC  H13S19317   0.902   5.748  14.525  0.6514 -0.6349 -1.9141
  160DOPC  C21419318   0.858   5.546  14.474 -0.0972  0.4822  0.2243
  160DOPC  H14R19319   0.761   5.587  14.438 -1.4198 -1.5976  1.2251
  160DOPC  H14S19320   0.835   5.447  14.520  0.2359 -0.8997 -2.3340
  160DOPC  C21519321   0.950   5.528  14.354  0.0566  0.2447 -0.4442
  160DOPC  H15R19322   0.983   5.626  14.314  0.2507  0.7678  0.9343
  160DOPC  H15S19323   0.918   5.458  14.273  1.3577 -0.6236 -0.2437
  160DOPC  C21619324   1.067   5.450  14.400 -0.5226  0.2995 -0.3055
  160DOPC  H16R19325   1.048   5.359  14.461  0.0171 -0.3820 -1.1363
  160DOPC  H16S19326   1.121   5.521  14.467 -1.2973  0.6233 -0.0079
  160DOPC  C21719327   1.169   5.412  14.287 -0.1099  0.0902 -0.3719
  160DOPC  H17R19328   1.128   5.328  14.227  1.2044 -1.0290  0.2621
  160DOPC  H17S19329   1.257   5.375  14.343 -0.1196 -2.5233 -1.9292
  160DOPC  C21819330   1.215   5.519  14.186 -0.0406  0.0942  0.6894
  160DOPC  H18R19331   1.250   5.612  14.235 -1.0957  0.3226  1.0331
  160DOPC  H18S19332   1.132   5.529  14.112 -0.0469 -0.6254  0.5904
  160DOPC  H18T19333   1.293   5.479  14.118  1.0765  0.0537  1.9603
  160DOPC   C3319334   0.665   4.920  15.830  0.6237  0.3264  0.6232
  160DOPC   H3X19335   0.577   4.982  15.855  0.3681 -0.4189  1.6457
  160DOPC   H3Y19336   0.638   4.824  15.879 -1.3129 -0.6783 -2.1150
  160DOPC   C3419337   0.687   4.897  15.681 -0.5707 -0.5836  0.6195
  160DOPC   H4X19338   0.600   4.849  15.631  0.4959 -0.7665 -1.1543
  160DOPC   H4Y19339   0.769   4.822  15.671 -0.2325 -0.1137 -0.2890
  160DOPC   C3519340   0.727   5.026  15.608 -0.2219  0.0566 -0.8082
  160DOPC   H5X19341   0.825   5.061  15.646  1.6099 -2.8018 -2.5405
  160DOPC   H5Y19342   0.646   5.101  15.622 -1.4702 -1.8132  3.7866
  160DOPC   C3619343   0.752   4.992  15.468  0.4387  0.1912  1.3683
  160DOPC   H6X19344   0.837   4.920  15.466  0.2268 -0.0493  0.0743
  160DOPC   H6Y19345   0.663   4.938  15.428  0.7385  0.5772  0.1332
  160DOPC   C3719346   0.778   5.114  15.375 -0.6568  0.2636  0.6382
  160DOPC   H7X19347   0.702   5.195  15.374 -0.3208  0.6228  1.9711
  160DOPC   H7Y19348   0.873   5.165  15.402 -0.9427  0.5134  1.1690
  160DOPC   C3819349   0.805   5.083  15.226  0.2879 -0.1199 -0.1230
  160DOPC   H8X19350   0.882   5.003  15.218  1.4505  0.9517  0.0187
  160DOPC   H8Y19351   0.843   5.165  15.161  0.2706 -0.7972 -1.0102
  160DOPC   C3919352   0.682   5.032  15.158  0.2799 -0.5432  0.8821
  160DOPC   H9X19353   0.619   4.970  15.224 -0.8448 -0.5789 -0.1791
  160DOPC  C31019354   0.634   5.067  15.035 -0.2118 -0.6461 -0.8301
  160DOPC  H10X19355   0.547   5.014  14.993 -2.1258  1.4572  0.2440
  160DOPC  C31119356   0.700   5.167  14.947  0.2676 -0.6960  0.5996
  160DOPC  H11X19357   0.746   5.255  14.997 -1.5152 -0.2247  1.5041
  160DOPC  H11Y19358   0.621   5.205  14.878  0.8749  1.2842  0.9328
  160DOPC  C31219359   0.814   5.102  14.866  0.3206  0.0158  0.6590
  160DOPC  H12X19360   0.766   5.016  14.815  0.5881  0.5717 -0.5764
  160DOPC  H12Y19361   0.899   5.050  14.913 -1.0090 -0.7138  2.3706
  160DOPC  C31319362   0.846   5.200  14.753 -0.2396 -0.8563  0.2822
  160DOPC  H13X19363   0.802   5.298  14.780 -2.0263 -1.0609 -1.5964
  160DOPC  H13Y19364   0.953   5.230  14.756 -0.6873  1.0199 -0.9004
  160DOPC  C31419365   0.796   5.160  14.613  0.2059  0.3985 -0.1761
  160DOPC  H14X19366   0.870   5.208  14.544 -1.4724 -0.9582 -3.1367
  160DOPC  H14Y19367   0.806   5.052  14.591  1.4609  0.5577 -0.5160
  160DOPC  C31519368   0.659   5.215  14.582 -0.2805 -0.4732 -0.6717
  160DOPC  H15X19369   0.629   5.309  14.632  2.0128 -0.8785  1.6737
  160DOPC  H15Y19370   0.592   5.138  14.626 -0.9340 -0.0510 -0.9140
  160DOPC  C31619371   0.652   5.239  14.430 -0.0930 -0.2643 -0.2135
  160DOPC  H16X19372   0.544   5.258  14.414  0.1791  1.5539  0.0045
  160DOPC  H16Y19373   0.712   5.326  14.397  0.9049 -0.5958  0.6916
  160DOPC  C31719374   0.679   5.120  14.339 -0.0790 -0.2343  0.0338
  160DOPC  H17X19375   0.677   5.160  14.236 -0.9946 -1.2430 -0.3612
  160DOPC  H17Y19376   0.782   5.081  14.351  0.4332  0.6028 -1.4177
  160DOPC  C31819377   0.586   4.999  14.358  0.3046 -0.2461  0.3801
  160DOPC  H18X19378   0.587   4.933  14.269  1.1850  1.5993 -1.0455
  160DOPC  H18Y19379   0.627   4.943  14.445  2.2521 -1.6842 -1.3454
  160DOPC  H18Z19380   0.484   5.037  14.376  0.4349 -0.0357  0.6781
  161DOPC     N19381   1.896   6.658  17.716 -0.7279  0.1143  0.8310
  161DOPC   C1219382   1.962   6.686  17.581  0.3749  0.9065 -0.4510
  161DOPC  H12A19383   1.886   6.687  17.505  0.1498  2.0295 -0.2405
  161DOPC  H12B19384   2.024   6.601  17.556 -1.1364 -0.2157 -0.4844
  161DOPC   C1319385   1.799   6.767  17.752 -0.2719 -0.1896  0.2265
  161DOPC  H13A19386   1.755   6.746  17.849  1.7459 -3.5019  0.5671
  161DOPC  H13B19387   1.852   6.862  17.750  1.4977 -1.1471 -1.9485
  161DOPC  H13C19388   1.707   6.773  17.695 -1.7329  0.2511  2.4569
  161DOPC   C1419389   2.004   6.651  17.816 -0.3994 -0.6608  0.0326
  161DOPC  H14A19390   1.957   6.627  17.910 -1.1974  0.1974 -0.1303
  161DOPC  H14B19391   2.077   6.578  17.785 -0.0566  0.2533 -1.4369
  161DOPC  H14C19392   2.060   6.743  17.821  0.7930 -1.3976  0.4032
  161DOPC   C1519393   1.817   6.528  17.703 -0.1821  0.1143  0.2214
  161DOPC  H15A19394   1.743   6.542  17.625 -1.7507 -0.3253  1.5673
  161DOPC  H15B19395   1.773   6.511  17.800  2.2478  0.0483  1.3742
  161DOPC  H15C19396   1.878   6.442  17.681 -0.8673 -0.0646 -1.1256
  161DOPC   C1119397   2.060   6.805  17.556  0.7532 -0.3286  0.2402
  161DOPC  H11A19398   2.147   6.786  17.622  1.1573  1.1038  0.1412
  161DOPC  H11B19399   2.090   6.801  17.449 -0.0953  1.0543 -0.0805
  161DOPC     P19400   2.063   7.038  17.676  0.3839  0.1307  0.2999
  161DOPC   O1319401   2.150   6.960  17.767 -0.9978 -0.1393 -0.4515
  161DOPC   O1419402   1.956   7.119  17.730 -0.1392  0.1752  0.0829
  161DOPC   O1219403   1.993   6.932  17.575 -0.3059  0.9804 -0.0846
  161DOPC   O1119404   2.159   7.128  17.584  0.5357 -0.7168 -0.2582
  161DOPC    C119405   2.111   7.228  17.495 -0.5226  0.1826  0.4018
  161DOPC    HA19406   2.189   7.305  17.476 -0.6802 -0.1526 -1.8110
  161DOPC    HB19407   2.012   7.263  17.529 -0.8560 -0.0459 -0.3253
  161DOPC    C219408   2.095   7.174  17.348 -0.8680  0.4930 -0.1021
  161DOPC    HS19409   2.029   7.085  17.363  1.1759 -1.6862 -3.0651
  161DOPC   O2119410   2.226   7.132  17.298 -0.0178 -0.5040  0.4246
  161DOPC   C2119411   2.228   7.015  17.223 -0.3083  0.4653 -0.0625
  161DOPC   O2219412   2.131   6.945  17.198  0.2405 -0.2537  0.6354
  161DOPC   C2219413   2.363   6.979  17.165  0.0093  0.0297 -0.2836
  161DOPC   H2R19414   2.414   6.903  17.228  1.5983 -0.1520 -1.7254
  161DOPC   H2S19415   2.426   7.070  17.171  1.0553 -0.7176  0.4229
  161DOPC    C319416   2.029   7.270  17.248  0.4535 -1.0757  0.2037
  161DOPC    HX19417   2.082   7.366  17.269  1.1193 -1.4369  0.2230
  161DOPC    HY19418   1.925   7.288  17.283 -0.1456 -0.7499 -1.6594
  161DOPC   O3119419   2.052   7.237  17.111 -0.0224 -0.4445  0.0015
  161DOPC   C3119420   1.953   7.191  17.041 -0.0115  0.0586 -0.8338
  161DOPC   O3219421   1.847   7.161  17.091  0.5478  0.0560 -0.0134
  161DOPC   C3219422   1.996   7.156  16.905 -0.4719  0.4406 -0.1897
  161DOPC   H2X19423   2.002   7.251  16.847 -1.7740  0.6844  0.0295
  161DOPC   H2Y19424   2.089   7.097  16.912 -1.6438 -1.3049  1.6212
  161DOPC   C2319425   2.364   6.931  17.020 -0.0965 -0.2855  0.5750
  161DOPC   H3R19426   2.317   7.010  16.957  2.5373  1.4473  0.6244
  161DOPC   H3S19427   2.305   6.837  17.016 -1.6384  0.6720 -0.8772
  161DOPC   C2419428   2.496   6.895  16.966 -0.7152 -0.6963  1.0452
  161DOPC   H4R19429   2.538   6.827  17.043  2.4974  2.9645  2.8074
  161DOPC   H4S19430   2.563   6.982  16.952 -2.9465  0.8284 -0.8741
  161DOPC   C2519431   2.491   6.828  16.831 -0.1053 -0.0368 -0.6434
  161DOPC   H5R19432   2.434   6.902  16.771 -1.9384 -1.0939 -0.2729
  161DOPC   H5S19433   2.424   6.739  16.834  1.7282 -1.4779 -0.9030
  161DOPC   C2619434   2.621   6.817  16.763 -0.2189 -1.0382  0.1905
  161DOPC   H6R19435   2.677   6.726  16.794 -0.0480 -0.8968  0.2982
  161DOPC   H6S19436   2.682   6.908  16.784  0.8401 -2.0732  1.8338
  161DOPC   C2719437   2.588   6.798  16.612 -0.5811  0.1138  0.0901
  161DOPC   H7R19438   2.547   6.891  16.568  0.4279  0.2607 -0.5802
  161DOPC   H7S19439   2.507   6.723  16.603 -1.3280  0.8884  0.2194
  161DOPC   C2819440   2.705   6.754  16.522  0.5609 -0.1650 -0.0097
  161DOPC   H8R19441   2.671   6.697  16.433  1.3126 -0.9243  0.1785
  161DOPC   H8S19442   2.755   6.666  16.569  1.6104  0.3607 -0.1086
  161DOPC   C2919443   2.814   6.853  16.495  0.5774  0.0438  0.1928
  161DOPC   H9R19444   2.893   6.864  16.570 -0.1073 -0.4165  1.0077
  161DOPC  C21019445   2.828   6.928  16.386 -0.3132  0.7365 -0.4698
  161DOPC  H10R19446   2.917   6.992  16.374 -0.4798  1.7476  2.7629
  161DOPC  C21119447   2.729   6.926  16.271 -0.3913 -0.5141  0.6748
  161DOPC  H11R19448   2.652   7.003  16.290 -0.4513 -0.8247  1.7315
  161DOPC  H11S19449   2.686   6.824  16.262  1.0562 -1.2030  1.1801
  161DOPC  C21219450   2.801   6.965  16.138  0.2197 -0.0711 -0.7228
  161DOPC  H12R19451   2.863   6.876  16.117 -0.2566 -0.7365  0.5717
  161DOPC  H12S19452   2.865   7.055  16.150  1.9409 -1.2996 -0.3494
  161DOPC  C21319453   2.719   6.993  16.018 -0.0668  0.0475  0.2761
  161DOPC  H13R19454   2.671   7.093  16.029  0.2336  0.1150  1.0302
  161DOPC  H13S19455   2.641   6.914  16.020  0.6707 -0.7573 -1.0147
  161DOPC  C21419456   2.795   6.996  15.891 -0.4928 -0.1507  0.3558
  161DOPC  H14R19457   2.812   6.892  15.856 -1.0611 -0.3398  0.6258
  161DOPC  H14S19458   2.899   7.033  15.903  0.4218 -1.4875 -2.4449
  161DOPC  C21519459   2.722   7.069  15.782 -0.2931 -0.2535  0.3477
  161DOPC  H15R19460   2.731   7.179  15.797  0.0472 -0.2608  0.2146
  161DOPC  H15S19461   2.617   7.035  15.778  0.2792 -2.0028 -0.9405
  161DOPC  C21619462   2.795   7.057  15.647  0.9041  0.4529 -0.2241
  161DOPC  H16R19463   2.906   7.052  15.643  0.9688  0.9591  0.6980
  161DOPC  H16S19464   2.757   7.138  15.581 -1.9668 -1.3388 -0.9721
  161DOPC  C21719465   2.755   6.914  15.584 -0.0055 -0.2051  0.4705
  161DOPC  H17R19466   2.645   6.900  15.593  0.3119 -2.9465  0.9205
  161DOPC  H17S19467   2.803   6.824  15.628  1.8521  0.9406  0.9059
  161DOPC  C21819468   2.772   6.907  15.430 -0.4441  0.3414 -0.5925
  161DOPC  H18R19469   2.735   7.000  15.382 -0.4154  0.1697 -0.9496
  161DOPC  H18S19470   2.733   6.813  15.385 -0.0215 -0.4333  0.6338
  161DOPC  H18T19471   2.882   6.915  15.414  0.0103  1.9624  2.5770
  161DOPC   C3319472   1.897   7.063  16.838 -0.3774 -0.3868  0.0241
  161DOPC   H3X19473   1.794   7.105  16.837 -0.7087 -1.1942 -0.9687
  161DOPC   H3Y19474   1.898   6.961  16.882  0.9456 -0.2359  0.3781
  161DOPC   C3419475   1.927   7.048  16.689 -0.3707  0.3081 -0.4299
  161DOPC   H4X19476   2.028   7.009  16.662  0.7737  2.4773  0.3656
  161DOPC   H4Y19477   1.911   7.142  16.632 -1.1491 -1.8776 -4.1273
  161DOPC   C3519478   1.824   6.950  16.621  0.7216 -0.5465 -0.1439
  161DOPC   H5X19479   1.726   6.976  16.666 -0.0833 -3.1465 -0.2710
  161DOPC   H5Y19480   1.848   6.846  16.651 -0.2364  0.0166  2.9512
  161DOPC   C3619481   1.820   6.953  16.469  0.2689 -0.9407 -0.1086
  161DOPC   H6X19482   1.926   6.967  16.439  0.1149  0.8385  0.0687
  161DOPC   H6Y19483   1.778   6.856  16.434 -0.4317 -1.2155  1.4108
  161DOPC   C3719484   1.723   7.058  16.410 -0.0511  0.3910  0.2885
  161DOPC   H7X19485   1.659   7.121  16.476 -1.4079  0.1704 -0.7650
  161DOPC   H7Y19486   1.784   7.132  16.354  0.0141  1.1253  1.2920
  161DOPC   C3819487   1.635   6.992  16.299 -0.4716  0.5646 -0.1420
  161DOPC   H8X19488   1.565   6.924  16.353 -1.2112 -0.3632 -2.1938
  161DOPC   H8Y19489   1.707   6.928  16.243 -1.7373  0.2677 -1.4695
  161DOPC   C3919490   1.558   7.087  16.206  0.3063  0.0153 -0.2547
  161DOPC   H9X19491   1.459   7.118  16.242  1.0825 -0.5060  2.5821
  161DOPC  C31019492   1.604   7.136  16.087  0.5190  1.0598  0.5791
  161DOPC  H10X19493   1.538   7.213  16.044  0.0312  0.5308  0.3854
  161DOPC  C31119494   1.734   7.113  16.024  0.3897 -0.9077 -0.0872
  161DOPC  H11X19495   1.800   7.045  16.081  0.3425 -0.8209  0.0711
  161DOPC  H11Y19496   1.791   7.208  16.018  0.5377 -1.0199 -0.5520
  161DOPC  C31219497   1.716   7.069  15.876 -0.0006  0.0822 -0.6300
  161DOPC  H12X19498   1.690   6.961  15.879 -0.2144  0.1514  0.0356
  161DOPC  H12Y19499   1.816   7.086  15.831  0.1752  0.1588 -0.2085
  161DOPC  C31319500   1.612   7.145  15.792  0.3805  0.3226 -0.1936
  161DOPC  H13X19501   1.511   7.129  15.835  1.2115 -0.6080  1.4949
  161DOPC  H13Y19502   1.636   7.254  15.795 -0.4590  0.5054  0.1588
  161DOPC  C31419503   1.607   7.112  15.641 -0.0454 -0.2032  0.3821
  161DOPC  H14X19504   1.605   7.002  15.622 -1.1990 -0.1021 -0.1919
  161DOPC  H14Y19505   1.502   7.136  15.611 -0.0761 -1.1724 -0.3483
  161DOPC  C31519506   1.715   7.158  15.548 -0.4460 -0.0561  0.0652
  161DOPC  H15X19507   1.809   7.124  15.597 -0.3253 -1.8104 -1.3075
  161DOPC  H15Y19508   1.739   7.267  15.551  2.5700 -0.5086 -2.6848
  161DOPC  C31619509   1.710   7.102  15.403  0.2510  0.9076 -0.1385
  161DOPC  H16X19510   1.802   7.113  15.342  1.0426 -1.8524  0.4195
  161DOPC  H16Y19511   1.710   6.991  15.415  0.5199  0.9792  0.5788
  161DOPC  C31719512   1.597   7.157  15.327 -0.8795 -0.3781 -0.0378
  161DOPC  H17X19513   1.504   7.170  15.387 -1.4367  0.4229 -1.0332
  161DOPC  H17Y19514   1.617   7.262  15.297 -2.0473 -0.1596 -0.1206
  161DOPC  C31819515   1.569   7.072  15.200  0.5630 -0.0023 -0.0557
  161DOPC  H18X19516   1.556   6.963  15.216 -2.0877  0.0184 -1.4826
  161DOPC  H18Y19517   1.473   7.102  15.153 -0.0558  0.0696  1.2112
  161DOPC  H18Z19518   1.648   7.083  15.123  1.1058 -2.9378 -0.0310
  162DOPC     N19519   0.042   4.481  16.556  0.0328  0.2958 -0.5817
  162DOPC   C1219520   0.085   4.336  16.553 -0.5298  0.6821  0.3136
  162DOPC  H12A19521  -0.009   4.282  16.549  0.2820 -0.8399  1.0818
  162DOPC  H12B19522   0.143   4.309  16.639  0.7990  0.4601 -0.6248
  162DOPC   C1319523   0.159   4.574  16.585  0.1659 -0.0164  0.4731
  162DOPC  H13A19524   0.124   4.672  16.612 -0.3700  0.0374 -0.3851
  162DOPC  H13B19525   0.224   4.532  16.661  0.2142 -1.8818 -0.5416
  162DOPC  H13C19526   0.212   4.567  16.491 -0.4303 -1.1068  0.2078
  162DOPC   C1419527  -0.066   4.506  16.656  0.3012  0.0373 -0.2091
  162DOPC  H14A19528  -0.092   4.611  16.655  0.1800  0.0021 -0.5593
  162DOPC  H14B19529  -0.146   4.440  16.629  1.0003 -0.7305 -0.4514
  162DOPC  H14C19530  -0.038   4.497  16.760 -1.3029  1.8802  0.4423
  162DOPC   C1519531  -0.010   4.509  16.418 -0.2652  0.6792  0.5873
  162DOPC  H15A19532  -0.098   4.452  16.395  0.0165  0.5636 -0.2533
  162DOPC  H15B19533   0.061   4.473  16.345 -1.0696 -0.1155  0.1888
  162DOPC  H15C19534  -0.030   4.616  16.415 -0.2676  0.6733  0.3573
  162DOPC   C1119535   0.160   4.291  16.424 -0.1950 -0.5665  0.5425
  162DOPC  H11A19536   0.169   4.181  16.436 -3.3026 -0.6928  2.9693
  162DOPC  H11B19537   0.105   4.293  16.327 -0.6129 -0.6003  0.7796
  162DOPC     P19538   0.417   4.328  16.434  0.2145  0.0392 -0.0982
  162DOPC   O1319539   0.420   4.190  16.376 -0.2181  0.3176 -0.2241
  162DOPC   O1419540   0.446   4.344  16.576  0.1726 -0.3520 -0.1040
  162DOPC   O1219541   0.272   4.383  16.401 -0.3902  0.3037 -0.0102
  162DOPC   O1119542   0.514   4.431  16.351  0.7953  0.6950  0.0714
  162DOPC    C119543   0.486   4.571  16.350 -0.6903  0.3106 -0.0947
  162DOPC    HA19544   0.589   4.613  16.355 -0.7175  0.4618 -0.7504
  162DOPC    HB19545   0.426   4.610  16.435 -1.3021  1.6774 -1.1216
  162DOPC    C219546   0.402   4.614  16.224 -0.7481  0.1834 -0.2495
  162DOPC    HS19547   0.312   4.551  16.207 -1.4582  0.7454  1.2901
  162DOPC   O2119548   0.491   4.610  16.107 -0.2619  0.0854 -0.6347
  162DOPC   C2119549   0.488   4.505  16.043 -0.5279  0.8129 -0.0694
  162DOPC   O2219550   0.407   4.406  16.057 -0.4329 -0.1280  0.3319
  162DOPC   C2219551   0.593   4.513  15.935 -0.5933  0.5695 -0.3643
  162DOPC   H2R19552   0.671   4.434  15.944 -0.3177  0.7535 -1.0631
  162DOPC   H2S19553   0.651   4.607  15.948  0.9552 -0.2245 -1.2152
  162DOPC    C319554   0.355   4.756  16.241  0.1401 -0.6702  1.1401
  162DOPC    HX19555   0.442   4.820  16.269  0.0371  0.5400 -1.0505
  162DOPC    HY19556   0.271   4.771  16.312 -2.3139  2.1794 -2.0070
  162DOPC   O3119557   0.308   4.811  16.112  0.3402  0.1426  0.0484
  162DOPC   C3119558   0.178   4.788  16.083  0.3878  0.1906  0.3650
  162DOPC   O3219559   0.099   4.717  16.145 -0.0194  0.0978  0.3125
  162DOPC   C3219560   0.149   4.831  15.932  0.3632 -0.8588 -0.3298
  162DOPC   H2X19561   0.115   4.738  15.882 -1.3025 -0.3043 -0.3085
  162DOPC   H2Y19562   0.066   4.904  15.945  0.0247 -1.3593  0.4042
  162DOPC   C2319563   0.528   4.517  15.799  0.2195 -0.0701  0.4034
  162DOPC   H3R19564   0.453   4.599  15.791 -0.4058 -0.7226 -0.7057
  162DOPC   H3S19565   0.478   4.420  15.782  1.6606 -0.9304  0.8314
  162DOPC   C2419566   0.615   4.534  15.680 -0.0767  0.3511  0.0731
  162DOPC   H4R19567   0.679   4.444  15.677 -0.7221 -0.0949 -0.6172
  162DOPC   H4S19568   0.681   4.620  15.705  1.6111 -0.1320 -2.3177
  162DOPC   C2519569   0.552   4.569  15.550  0.1066  0.4626  0.4180
  162DOPC   H5R19570   0.504   4.669  15.552 -2.9379 -0.7984 -1.7920
  162DOPC   H5S19571   0.464   4.506  15.523  0.4167 -0.1052  0.7278
  162DOPC   C2619572   0.665   4.577  15.439 -0.0173 -0.2305  0.2192
  162DOPC   H6R19573   0.741   4.495  15.438  0.8641  0.5618  0.2534
  162DOPC   H6S19574   0.729   4.666  15.455  2.0181 -1.3150 -1.4157
  162DOPC   C2719575   0.593   4.587  15.304 -0.0099  0.1411  0.5004
  162DOPC   H7R19576   0.556   4.690  15.287 -2.1015 -0.9908 -2.7876
  162DOPC   H7S19577   0.498   4.530  15.310  0.3241 -0.6476 -1.0989
  162DOPC   C2819578   0.688   4.545  15.187  0.6181 -0.1729 -0.0107
  162DOPC   H8R19579   0.609   4.523  15.112  0.0081 -0.4879  0.7135
  162DOPC   H8S19580   0.736   4.447  15.208  1.9822  0.2210 -1.1830
  162DOPC   C2919581   0.786   4.649  15.146  0.1097 -0.0575  0.2771
  162DOPC   H9R19582   0.864   4.667  15.222  0.6447 -1.6727  0.1636
  162DOPC  C21019583   0.791   4.714  15.029 -0.5696  0.4692 -0.4171
  162DOPC  H10R19584   0.854   4.804  15.030 -1.1210  0.9638  2.7736
  162DOPC  C21119585   0.700   4.694  14.911 -0.6626 -0.0095  0.8837
  162DOPC  H11R19586   0.655   4.794  14.892 -0.0656  0.2877  1.0221
  162DOPC  H11S19587   0.616   4.623  14.925 -2.0103  1.7774  2.4233
  162DOPC  C21219588   0.780   4.652  14.780 -0.7497  0.4892  0.0020
  162DOPC  H12R19589   0.855   4.572  14.801 -2.5824 -1.6411 -1.1882
  162DOPC  H12S19590   0.835   4.742  14.747 -0.5493  0.4062  0.1096
  162DOPC  C21319591   0.679   4.597  14.679  0.6083  0.1359 -0.2146
  162DOPC  H13R19592   0.583   4.649  14.664  0.9651  0.5161 -1.3285
  162DOPC  H13S19593   0.644   4.502  14.723 -2.5869  1.2608 -0.1177
  162DOPC  C21419594   0.735   4.562  14.543 -0.2790  0.2843  0.0815
  162DOPC  H14R19595   0.819   4.491  14.563 -0.2437 -0.3541 -2.0672
  162DOPC  H14S19596   0.782   4.644  14.485  1.7656 -0.4368  0.6187
  162DOPC  C21519597   0.640   4.490  14.444  0.0094  0.5987 -0.4982
  162DOPC  H15R19598   0.684   4.488  14.342  2.4397  0.0990  0.4998
  162DOPC  H15S19599   0.552   4.557  14.433 -0.1629  0.2716 -1.1538
  162DOPC  C21619600   0.613   4.344  14.479  0.6264  0.5424 -0.0315
  162DOPC  H16R19601   0.527   4.306  14.421  2.1405  0.1479 -2.1015
  162DOPC  H16S19602   0.578   4.341  14.585 -2.0109  2.1437 -0.7726
  162DOPC  C21719603   0.729   4.246  14.466 -0.0874 -0.5021  0.3368
  162DOPC  H17R19604   0.810   4.272  14.538  0.7070  0.3318 -0.8249
  162DOPC  H17S19605   0.783   4.238  14.369 -0.6810  0.8963 -0.1227
  162DOPC  C21819606   0.690   4.096  14.501 -0.0657 -0.1718  0.1994
  162DOPC  H18R19607   0.781   4.033  14.496  0.2457  0.3212 -0.5139
  162DOPC  H18S19608   0.612   4.049  14.437 -1.1808 -0.4553  1.6942
  162DOPC  H18T19609   0.657   4.089  14.607  0.4828  3.4225  0.7433
  162DOPC   C3319610   0.258   4.900  15.855 -0.6517  0.1537  0.7393
  162DOPC   H3X19611   0.345   4.833  15.837 -2.6184 -2.3103 -0.1053
  162DOPC   H3Y19612   0.294   4.995  15.899 -1.1594  0.0313  1.4248
  162DOPC   C3419613   0.195   4.944  15.718  0.1436  0.4283  0.4125
  162DOPC   H4X19614   0.125   5.030  15.726 -2.3938 -1.2615 -1.5709
  162DOPC   H4Y19615   0.124   4.863  15.689  0.7245 -0.1852  0.6792
  162DOPC   C3519616   0.296   4.957  15.601 -0.3578 -0.0093  0.1351
  162DOPC   H5X19617   0.358   4.867  15.586 -0.2500  0.1478 -0.3585
  162DOPC   H5Y19618   0.374   5.032  15.625  0.4641 -0.0016 -2.3686
  162DOPC   C3619619   0.238   4.985  15.464 -0.4449 -0.5095 -0.2672
  162DOPC   H6X19620   0.144   4.927  15.453 -0.2724 -0.8628  0.0761
  162DOPC   H6Y19621   0.206   5.091  15.456 -0.6607 -0.6910 -2.1737
  162DOPC   C3719622   0.341   4.949  15.350 -0.0870 -0.2466 -0.0750
  162DOPC   H7X19623   0.420   5.027  15.346 -1.1279  0.7865 -2.0374
  162DOPC   H7Y19624   0.392   4.851  15.361  2.8804  1.1044 -0.6825
  162DOPC   C3819625   0.257   4.948  15.218  0.0265  0.2307 -0.8293
  162DOPC   H8X19626   0.165   4.894  15.250  0.2336  1.4270  2.0686
  162DOPC   H8Y19627   0.306   4.887  15.139  2.1805  1.3179 -0.4217
  162DOPC   C3919628   0.242   5.084  15.165 -0.0309 -0.4780 -0.3276
  162DOPC   H9X19629   0.291   5.156  15.232 -0.5768  0.5341 -1.0044
  162DOPC  C31019630   0.191   5.111  15.043 -0.8118  0.2142  0.2184
  162DOPC  H10X19631   0.183   5.213  15.004  1.2598  0.0437 -0.7599
  162DOPC  C31119632   0.134   5.009  14.949  0.2554 -0.4680 -0.0893
  162DOPC  H11X19633   0.034   4.975  14.983 -0.0327  2.1824  2.0801
  162DOPC  H11Y19634   0.194   4.915  14.944  0.2954 -0.5846  2.0227
  162DOPC  C31219635   0.126   5.078  14.801 -0.2668 -0.4614  0.2171
  162DOPC  H12X19636   0.077   5.175  14.823  0.1607 -0.0922 -0.4347
  162DOPC  H12Y19637   0.059   5.014  14.739  0.1124 -2.3801  1.7013
  162DOPC  C31319638   0.253   5.102  14.729 -0.4136  0.4788 -0.3592
  162DOPC  H13X19639   0.239   5.147  14.629 -0.3273  0.6246 -0.3058
  162DOPC  H13Y19640   0.324   5.169  14.783  1.0992 -0.1689 -1.4928
  162DOPC  C31419641   0.342   4.972  14.712  0.2681 -0.1757 -0.3234
  162DOPC  H14X19642   0.435   5.006  14.661  0.5108 -0.4267 -0.0463
  162DOPC  H14Y19643   0.375   4.937  14.812  0.4552  1.3637  0.1789
  162DOPC  C31519644   0.275   4.852  14.639  0.0822 -0.3773 -0.0147
  162DOPC  H15X19645   0.194   4.810  14.702  0.1917  0.2518  0.5561
  162DOPC  H15Y19646   0.361   4.783  14.630  0.1596 -0.6588  2.2631
  162DOPC  C31619647   0.211   4.898  14.503  0.3146 -0.1557  0.1941
  162DOPC  H16X19648   0.134   4.976  14.519 -0.5638 -1.3947  2.6608
  162DOPC  H16Y19649   0.290   4.948  14.443  0.6160  0.8454  1.3741
  162DOPC  C31719650   0.143   4.787  14.413 -0.3076 -0.3236 -0.5207
  162DOPC  H17X19651   0.217   4.706  14.395 -1.1517 -1.6373  1.5744
  162DOPC  H17Y19652   0.059   4.741  14.470 -1.3891  1.1584 -0.8503
  162DOPC  C31819653   0.081   4.841  14.285  0.4986  0.5832 -0.0823
  162DOPC  H18X19654   0.020   4.757  14.246  1.2224  0.7045 -1.5455
  162DOPC  H18Y19655   0.013   4.928  14.302 -0.5236  0.2983 -2.3282
  162DOPC  H18Z19656   0.164   4.875  14.220  1.1490 -1.6378 -0.4730
  163DOPC     N19657   6.305   2.495  16.881 -0.7829 -0.2459 -0.7468
  163DOPC   C1219658   6.313   2.446  16.734 -0.2407  0.0456 -0.4736
  163DOPC  H12A19659   6.209   2.439  16.708 -0.4556 -0.4198  0.4605
  163DOPC  H12B19660   6.335   2.340  16.738 -1.1497 -0.1420 -0.2358
  163DOPC   C1319661   6.262   2.636  16.876 -0.0844  0.1731  0.1778
  163DOPC  H13A19662   6.178   2.655  16.811 -0.7270  0.8441  1.1754
  163DOPC  H13B19663   6.232   2.662  16.976  0.5344 -1.8146  0.9211
  163DOPC  H13C19664   6.346   2.700  16.852  0.1413 -0.0680  0.3119
  163DOPC   C1419665   6.435   2.483  16.960  0.5161  0.4044 -0.6198
  163DOPC  H14A19666   6.429   2.498  17.067  0.7186  0.0770 -0.5619
  163DOPC  H14B19667   6.470   2.382  16.952 -2.4151 -0.9195  1.4133
  163DOPC  H14C19668   6.511   2.539  16.908 -0.7673  1.2051 -1.6877
  163DOPC   C1519669   6.202   2.413  16.955 -0.1167  0.8282  0.8469
  163DOPC  H15A19670   6.175   2.454  17.052  4.7355  0.5902  2.5782
  163DOPC  H15B19671   6.234   2.312  16.979 -0.8053  0.1261 -0.9955
  163DOPC  H15C19672   6.117   2.400  16.890  2.0966  1.8837 -2.5278
  163DOPC   C1119673   6.406   2.520  16.635 -0.1514  0.2338  0.4830
  163DOPC  H11A19674   6.395   2.484  16.531  1.3887  1.2431 -0.0651
  163DOPC  H11B19675   6.377   2.626  16.624 -1.2859 -0.0284  0.8417
  163DOPC     P19676   6.626   2.360  16.637  0.2649  0.0350 -0.0552
  163DOPC   O1319677   6.552   2.246  16.699 -0.1215 -0.1513 -0.5494
  163DOPC   O1419678   6.764   2.371  16.677 -0.6193 -0.0466  0.1440
  163DOPC   O1219679   6.545   2.499  16.672 -0.0408 -0.4515  0.7305
  163DOPC   O1119680   6.608   2.333  16.483 -0.4294 -0.5351  0.3229
  163DOPC    C119681   6.648   2.438  16.390 -0.9084  0.1195  0.4066
  163DOPC    HA19682   6.756   2.462  16.397 -1.0010  0.6104  0.1429
  163DOPC    HB19683   6.598   2.532  16.419 -2.8368 -0.5465 -0.5541
  163DOPC    C219684   6.609   2.405  16.244 -0.0283  0.3162  0.0912
  163DOPC    HS19685   6.617   2.504  16.194 -0.6491  1.0807  1.4360
  163DOPC   O2119686   6.472   2.344  16.229 -0.4578 -0.9114 -0.1034
  163DOPC   C2119687   6.375   2.416  16.255 -0.2552  0.3455 -0.3308
  163DOPC   O2219688   6.388   2.532  16.290  0.0177 -0.0427  0.2264
  163DOPC   C2219689   6.242   2.349  16.249 -0.5253  1.0348  0.3072
  163DOPC   H2R19690   6.164   2.428  16.251 -0.2467  1.3556 -0.8291
  163DOPC   H2S19691   6.234   2.306  16.350 -3.1054  0.6169 -0.0161
  163DOPC    C319692   6.714   2.296  16.180  0.0541 -0.7963  0.3228
  163DOPC    HX19693   6.731   2.212  16.250 -0.4635  0.7512  2.3888
  163DOPC    HY19694   6.810   2.351  16.177  0.0834 -0.7482  1.8158
  163DOPC   O3119695   6.661   2.253  16.053 -0.1887  0.1037 -0.1478
  163DOPC   C3119696   6.743   2.166  15.986  0.4712  0.2258 -0.2151
  163DOPC   O3219697   6.850   2.124  16.026 -0.3317 -0.1390 -0.1830
  163DOPC   C3219698   6.678   2.146  15.855  0.8745  0.4884  0.3035
  163DOPC   H2X19699   6.586   2.085  15.868 -0.0889  1.4915 -1.4713
  163DOPC   H2Y19700   6.644   2.241  15.809 -2.6328  0.0717  1.7446
  163DOPC   C2319701   6.214   2.240  16.143 -0.2389  0.6679 -0.5367
  163DOPC   H3R19702   6.113   2.196  16.152  0.0599 -0.0939 -0.8183
  163DOPC   H3S19703   6.281   2.158  16.179  0.0105  0.5863 -1.1607
  163DOPC   C2419704   6.238   2.286  16.000 -0.0220  0.2632 -0.1838
  163DOPC   H4R19705   6.335   2.339  15.992  0.7361 -0.7907  1.5488
  163DOPC   H4S19706   6.148   2.347  15.976 -0.0733  0.7792  1.1844
  163DOPC   C2519707   6.245   2.164  15.911  0.2798  0.8187 -0.3215
  163DOPC   H5R19708   6.153   2.108  15.938 -0.1757  2.1209  0.8894
  163DOPC   H5S19709   6.339   2.107  15.931 -0.2008  0.2780  0.4471
  163DOPC   C2619710   6.239   2.205  15.762 -0.4609  0.5732 -0.2993
  163DOPC   H6R19711   6.313   2.288  15.751 -1.9004  2.4937  3.0328
  163DOPC   H6S19712   6.144   2.259  15.743  0.6074  2.3209 -0.9737
  163DOPC   C2719713   6.271   2.088  15.668 -0.0181  0.6439  0.4074
  163DOPC   H7R19714   6.206   2.000  15.688  2.5902 -1.1318  1.6882
  163DOPC   H7S19715   6.372   2.054  15.698 -0.7869 -1.5129  0.7815
  163DOPC   C2819716   6.261   2.124  15.520  0.0017 -0.8187  0.1371
  163DOPC   H8R19717   6.336   2.202  15.493 -2.3104  1.3296 -0.4944
  163DOPC   H8S19718   6.162   2.170  15.496  0.3101 -0.9437 -1.4825
  163DOPC   C2919719   6.287   2.013  15.417 -0.2433  0.2482  0.0268
  163DOPC   H9R19720   6.320   1.922  15.470 -1.0014 -0.3640 -0.5279
  163DOPC  C21019721   6.264   2.020  15.287  0.3614  0.4380  0.0628
  163DOPC  H10R19722   6.265   1.928  15.227  0.0950  1.4955 -1.6165
  163DOPC  C21119723   6.231   2.137  15.208 -0.0418  0.0021  0.8998
  163DOPC  H11R19724   6.232   2.229  15.270  1.4850  1.7527 -1.5105
  163DOPC  H11S19725   6.126   2.128  15.171 -0.9200 -1.1168  3.4402
  163DOPC  C21219726   6.333   2.164  15.090  0.1865 -0.0840 -0.4439
  163DOPC  H12R19727   6.432   2.166  15.140  0.3403  3.6525 -0.6360
  163DOPC  H12S19728   6.312   2.269  15.061  0.9984  0.5409  1.1099
  163DOPC  C21319729   6.330   2.063  14.975  0.4841  0.2105  0.2894
  163DOPC  H13R19730   6.337   1.957  15.009 -2.4925 -1.5887 -3.8107
  163DOPC  H13S19731   6.414   2.080  14.905  0.1529 -0.7895 -0.3849
  163DOPC  C21419732   6.200   2.079  14.894  0.5775  0.5184 -0.2919
  163DOPC  H14R19733   6.187   2.187  14.869 -1.2126  1.0399  2.4529
  163DOPC  H14S19734   6.102   2.061  14.943 -0.0240  2.2302 -0.7886
  163DOPC  C21519735   6.194   2.008  14.756 -0.7628 -0.8328 -0.2405
  163DOPC  H15R19736   6.296   2.025  14.713 -0.9206  1.2698  0.1078
  163DOPC  H15S19737   6.113   2.049  14.691 -0.8958 -0.8607 -0.0908
  163DOPC  C21619738   6.167   1.861  14.775  0.6783  1.2473 -0.2005
  163DOPC  H16R19739   6.073   1.842  14.832  0.9219 -0.4092 -0.3034
  163DOPC  H16S19740   6.253   1.815  14.829 -0.9511  0.4196  1.8705
  163DOPC  C21719741   6.140   1.784  14.638  0.7190 -0.6600 -0.3685
  163DOPC  H17R19742   6.227   1.808  14.574  1.9100  0.0716  1.4288
  163DOPC  H17S19743   6.051   1.834  14.595  1.4994  2.6586  1.5222
  163DOPC  C21819744   6.107   1.642  14.654  0.2841 -0.3607 -0.1775
  163DOPC  H18R19745   6.020   1.634  14.723  0.7087 -1.3593  0.2506
  163DOPC  H18S19746   6.177   1.565  14.692 -0.4105 -1.7981 -1.7239
  163DOPC  H18T19747   6.064   1.606  14.559  0.3097  0.7046 -0.6114
  163DOPC   C3319748   6.776   2.077  15.760 -0.3848  0.2899  0.1886
  163DOPC   H3X19749   6.817   1.977  15.786  0.0401 -0.4256 -2.8094
  163DOPC   H3Y19750   6.869   2.139  15.756 -0.1516 -0.0592  0.1588
  163DOPC   C3419751   6.723   2.067  15.621  0.4960  0.5182 -0.0063
  163DOPC   H4X19752   6.684   2.165  15.589  0.8771  0.0202 -2.1057
  163DOPC   H4Y19753   6.631   2.005  15.623 -0.7165  2.2532  0.4408
  163DOPC   C3519754   6.819   2.018  15.507  0.4139  0.2109  0.1881
  163DOPC   H5X19755   6.879   1.929  15.537 -0.0074 -0.3497 -0.5934
  163DOPC   H5Y19756   6.887   2.100  15.475 -0.0283  0.0770 -1.1724
  163DOPC   C3619757   6.735   1.966  15.388  0.3102 -0.0741 -0.0369
  163DOPC   H6X19758   6.661   1.894  15.430 -0.4889  0.2769 -0.7955
  163DOPC   H6Y19759   6.674   2.046  15.340 -2.3856 -2.0808 -0.2012
  163DOPC   C3719760   6.830   1.905  15.281 -0.1642 -0.2148  0.2585
  163DOPC   H7X19761   6.888   1.994  15.250 -3.5337  2.4162  0.9910
  163DOPC   H7Y19762   6.904   1.833  15.323  0.9831 -0.0784 -1.4418
  163DOPC   C3819763   6.762   1.845  15.155  0.1332 -1.0110  0.3269
  163DOPC   H8X19764   6.723   1.752  15.200 -0.3877 -1.2321 -0.5629
  163DOPC   H8Y19765   6.841   1.820  15.080  1.3383 -1.5872  1.7503
  163DOPC   C3919766   6.653   1.936  15.107  0.2658 -0.4691  0.2487
  163DOPC   H9X19767   6.552   1.921  15.147  0.2008  1.4541  0.9247
  163DOPC  C31019768   6.689   2.036  15.015 -1.1116  0.7289  0.3873
  163DOPC  H10X19769   6.630   2.123  14.983  1.7037  1.9333 -1.9181
  163DOPC  C31119770   6.832   2.057  14.966 -0.5305  0.0378 -0.3315
  163DOPC  H11X19771   6.905   1.988  15.014 -0.5607 -0.0737 -0.4438
  163DOPC  H11Y19772   6.861   2.160  14.996  1.5012 -1.0306  1.6074
  163DOPC  C31219773   6.855   2.046  14.814  0.6581 -0.2945  0.1325
  163DOPC  H12X19774   6.811   2.137  14.767 -0.0125 -0.7497 -0.1374
  163DOPC  H12Y19775   6.786   1.967  14.776  0.1623  0.1607  0.0722
  163DOPC  C31319776   7.000   2.020  14.771 -0.3394  0.2373  0.0167
  163DOPC  H13X19777   7.077   2.044  14.848  0.7339 -1.1653 -0.5840
  163DOPC  H13Y19778   7.021   1.913  14.753 -1.1652  0.0416  0.1607
  163DOPC  C31419779   7.029   2.086  14.633  0.6149  0.3261 -0.0949
  163DOPC  H14X19780   6.946   2.060  14.564  0.2870  0.5693  0.2043
  163DOPC  H14Y19781   7.029   2.196  14.647  1.7303  0.3330 -0.1290
  163DOPC  C31519782   7.158   2.042  14.565 -0.7926 -0.1285 -0.5434
  163DOPC  H15X19783   7.161   1.932  14.579  0.5208  0.0083  0.3564
  163DOPC  H15Y19784   7.245   2.082  14.619 -1.3156  0.6338 -0.2550
  163DOPC  C31619785   7.168   2.072  14.413 -0.6754 -0.4628 -0.3502
  163DOPC  H16X19786   7.107   1.995  14.361 -1.5337  1.3882 -2.2146
  163DOPC  H16Y19787   7.121   2.171  14.391  0.2599 -0.0734 -0.6427
  163DOPC  C31719788   7.316   2.068  14.376  0.2063  0.1818 -0.2871
  163DOPC  H17X19789   7.361   2.159  14.420 -1.7548  0.2379  1.7157
  163DOPC  H17Y19790   7.375   1.986  14.422  0.4771  0.6967  0.2922
  163DOPC  C31819791   7.344   2.046  14.227 -0.1759 -0.0703  0.0712
  163DOPC  H18X19792   7.297   2.117  14.156  0.7274 -0.5874 -1.0985
  163DOPC  H18Y19793   7.452   2.053  14.202  0.0608  4.5504  1.5225
  163DOPC  H18Z19794   7.293   1.951  14.199 -0.9471  0.4360 -0.2636
  164DOPC     N19795   1.524   0.138  17.169 -0.3521 -0.0641  0.4252
  164DOPC   C1219796   1.456   0.181  17.043 -0.0777 -0.5124  0.3790
  164DOPC  H12A19797   1.349   0.181  17.057 -0.1123  0.8612  0.2665
  164DOPC  H12B19798   1.477   0.105  16.969  0.2099  0.6436 -0.7673
  164DOPC   C1319799   1.672   0.146  17.157 -0.3795  0.2065 -0.0146
  164DOPC  H13A19800   1.702   0.085  17.073  1.4614 -0.8065  1.2983
  164DOPC  H13B19801   1.712   0.244  17.136  1.1079 -0.6234 -1.3439
  164DOPC  H13C19802   1.726   0.108  17.242 -0.1466 -1.5105 -0.8793
  164DOPC   C1419803   1.487  -0.003  17.207  0.3096 -0.2712  0.5842
  164DOPC  H14A19804   1.512  -0.069  17.125  0.9759  1.1968 -0.4355
  164DOPC  H14B19805   1.538  -0.034  17.297  1.8035  0.6397  0.0912
  164DOPC  H14C19806   1.383  -0.025  17.228 -0.0091 -0.1742 -0.8203
  164DOPC   C1519807   1.492   0.221  17.285  0.6037 -0.4824  0.0443
  164DOPC  H15A19808   1.389   0.204  17.312  0.0653  0.9519 -0.9419
  164DOPC  H15B19809   1.497   0.327  17.265  0.0464 -0.0554  1.9215
  164DOPC  H15C19810   1.560   0.205  17.368  1.8365  0.5768 -0.7178
  164DOPC   C1119811   1.495   0.319  16.988 -0.3571  0.3155  0.1192
  164DOPC  H11A19812   1.605   0.329  16.997  0.0780 -2.6759 -0.9384
  164DOPC  H11B19813   1.460   0.336  16.884 -2.7296 -1.2320  0.5943
  164DOPC     P19814   1.284   0.449  17.052  0.0685 -0.1136 -0.3208
  164DOPC   O1319815   1.260   0.581  17.113  0.1869 -0.1175 -0.0493
  164DOPC   O1419816   1.204   0.334  17.099 -0.0259 -0.2325 -0.8663
  164DOPC   O1219817   1.441   0.419  17.067 -0.0723  0.1320 -0.1855
  164DOPC   O1119818   1.245   0.456  16.901 -0.0364 -0.1398  0.3902
  164DOPC    C119819   1.298   0.567  16.828  0.9067  0.2285  0.0627
  164DOPC    HA19820   1.405   0.583  16.857  0.9612  1.0730 -0.5646
  164DOPC    HB19821   1.241   0.658  16.855  0.6001  0.1247 -0.2379
  164DOPC    C219822   1.275   0.540  16.680  0.6451  0.2088  0.6847
  164DOPC    HS19823   1.337   0.613  16.623 -1.6702  0.5057 -1.6581
  164DOPC   O2119824   1.135   0.549  16.641 -0.0434 -0.1431 -0.7267
  164DOPC   C2119825   1.080   0.675  16.649  0.2726  0.4010  0.4463
  164DOPC   O2219826   1.150   0.770  16.665 -0.0610 -0.4670  0.6288
  164DOPC   C2219827   0.932   0.659  16.608 -0.4096 -0.0240  0.4019
  164DOPC   H2R19828   0.875   0.618  16.694 -0.5376 -2.5922 -0.7898
  164DOPC   H2S19829   0.939   0.584  16.526  3.2750  1.6815 -1.0683
  164DOPC    C319830   1.321   0.396  16.639 -0.9872 -0.2058  0.1369
  164DOPC    HX19831   1.254   0.320  16.686 -0.6418 -0.0819  0.8369
  164DOPC    HY19832   1.428   0.393  16.669 -1.0942  3.1443  1.2957
  164DOPC   O3119833   1.317   0.382  16.491 -0.3443  0.0332 -0.2648
  164DOPC   C3119834   1.204   0.324  16.449  0.1905 -0.0016 -0.0938
  164DOPC   O3219835   1.104   0.299  16.515 -0.1010  0.2668 -0.4761
  164DOPC   C3219836   1.209   0.280  16.307 -0.2611 -0.1148  0.4856
  164DOPC   H2X19837   1.307   0.232  16.286 -0.9606 -0.5958 -1.9184
  164DOPC   H2Y19838   1.129   0.205  16.293 -0.5111  0.0715  0.8904
  164DOPC   C2319839   0.868   0.788  16.562 -0.1349 -0.4977  0.5681
  164DOPC   H3R19840   0.936   0.875  16.574 -1.4621  0.3637  2.2627
  164DOPC   H3S19841   0.782   0.792  16.633 -0.5450 -0.2747  0.0749
  164DOPC   C2419842   0.814   0.790  16.421 -0.2235 -0.5198  0.4721
  164DOPC   H4R19843   0.731   0.717  16.429  0.9053 -1.6962  1.9123
  164DOPC   H4S19844   0.881   0.745  16.345 -2.1821 -1.4889 -0.7752
  164DOPC   C2519845   0.763   0.929  16.359  0.3686  0.3776 -0.2841
  164DOPC   H5R19846   0.842   0.959  16.288 -0.1478 -0.0882 -1.0714
  164DOPC   H5S19847   0.762   1.003  16.442  0.2398  0.0644 -0.0003
  164DOPC   C2619848   0.633   0.911  16.282 -0.1213 -0.4594  0.2558
  164DOPC   H6R19849   0.552   0.879  16.350  0.7801 -1.7355  0.7417
  164DOPC   H6S19850   0.654   0.828  16.211  1.6866  0.2716 -0.1339
  164DOPC   C2719851   0.590   1.040  16.208  0.5445  0.2504  0.2218
  164DOPC   H7R19852   0.675   1.072  16.145 -0.0777  0.8675 -0.3271
  164DOPC   H7S19853   0.574   1.123  16.281 -2.3664  0.3662 -0.4186
  164DOPC   C2819854   0.453   1.026  16.133 -0.5172 -0.8074 -0.5448
  164DOPC   H8R19855   0.376   1.004  16.210 -0.2033 -0.9526 -0.2682
  164DOPC   H8S19856   0.456   0.932  16.072 -1.7646 -1.6721  0.6682
  164DOPC   C2919857   0.430   1.157  16.055  0.6553  0.7682  0.3013
  164DOPC   H9R19858   0.428   1.247  16.117  1.9976  1.3857 -0.5079
  164DOPC  C21019859   0.412   1.171  15.917  0.3761  0.4889 -1.5164
  164DOPC  H10R19860   0.401   1.276  15.885  2.4754  1.0432 -0.5614
  164DOPC  C21119861   0.416   1.065  15.802  0.3444  0.9408 -0.3420
  164DOPC  H11R19862   0.345   0.981  15.818 -1.1118  1.9650 -1.1789
  164DOPC  H11S19863   0.518   1.028  15.777  0.6340  2.3299 -1.3536
  164DOPC  C21219864   0.365   1.136  15.670  0.5718 -0.1935  0.3079
  164DOPC  H12R19865   0.437   1.216  15.643  0.6190 -0.0442  0.8553
  164DOPC  H12S19866   0.269   1.188  15.693  1.6920  2.0825  0.0893
  164DOPC  C21319867   0.355   1.037  15.554 -0.0059  0.8195  0.2851
  164DOPC  H13R19868   0.264   0.975  15.568  0.2277  0.4459  0.1619
  164DOPC  H13S19869   0.452   0.983  15.558  0.5896  1.7665 -0.7039
  164DOPC  C21419870   0.358   1.098  15.411  0.6479 -0.0519  0.4029
  164DOPC  H14R19871   0.378   1.022  15.333 -0.2352  0.7726 -0.6682
  164DOPC  H14S19872   0.446   1.165  15.403 -0.0339  0.9757  1.1998
  164DOPC  C21519873   0.228   1.182  15.382 -0.1884 -0.1100 -0.2862
  164DOPC  H15R19874   0.215   1.255  15.465  1.5784 -0.0557 -0.0073
  164DOPC  H15S19875   0.136   1.121  15.380 -0.6026  0.5112 -0.3337
  164DOPC  C21619876   0.243   1.271  15.258  0.1665  0.5491  0.5401
  164DOPC  H16R19877   0.223   1.206  15.170  0.0793 -0.0206  0.9767
  164DOPC  H16S19878   0.348   1.307  15.259 -0.2053  1.7685  2.8722
  164DOPC  C21719879   0.141   1.389  15.250 -0.5958  0.3191 -0.1006
  164DOPC  H17R19880   0.153   1.457  15.337  0.2742 -1.5901  1.3319
  164DOPC  H17S19881   0.042   1.342  15.263 -0.2346 -0.5025 -0.2600
  164DOPC  C21819882   0.155   1.476  15.120 -0.1881 -0.3750  0.2999
  164DOPC  H18R19883   0.174   1.419  15.027 -0.2688  1.3937 -0.8409
  164DOPC  H18S19884   0.228   1.559  15.128 -0.0878 -0.3286 -1.0125
  164DOPC  H18T19885   0.058   1.529  15.124 -0.3910 -0.7775  1.0431
  164DOPC   C3319886   1.183   0.396  16.208  0.3304  0.2476  0.7971
  164DOPC   H3X19887   1.250   0.482  16.231  0.5083  0.2624  0.2220
  164DOPC   H3Y19888   1.079   0.432  16.222  0.3455  1.9356 -2.4543
  164DOPC   C3419889   1.208   0.349  16.064 -0.6535 -0.1818  0.2398
  164DOPC   H4X19890   1.127   0.278  16.037 -0.8250  0.4624 -1.0163
  164DOPC   H4Y19891   1.308   0.302  16.057 -0.9957 -1.1952  1.7608
  164DOPC   C3519892   1.191   0.470  15.969 -0.2119 -0.0044 -0.0311
  164DOPC   H5X19893   1.282   0.533  15.967 -0.8403  1.1305  2.5928
  164DOPC   H5Y19894   1.105   0.532  16.003 -1.2358 -1.8637  0.9521
  164DOPC   C3619895   1.149   0.420  15.829 -0.2479  0.7690 -0.5662
  164DOPC   H6X19896   1.237   0.361  15.795 -0.2222  1.5813 -1.9780
  164DOPC   H6Y19897   1.053   0.365  15.823 -0.0061  0.2680 -0.0109
  164DOPC   C3719898   1.143   0.535  15.727  0.2784 -0.5503  0.1793
  164DOPC   H7X19899   1.081   0.611  15.778  0.9208  0.8331 -1.0489
  164DOPC   H7Y19900   1.244   0.578  15.710  0.7973 -1.6354  0.4105
  164DOPC   C3819901   1.069   0.506  15.594  0.4693  0.1422  0.3463
  164DOPC   H8X19902   1.082   0.599  15.534  0.7036 -0.2514 -0.2305
  164DOPC   H8Y19903   0.961   0.480  15.606  0.5339 -0.0879  0.4329
  164DOPC   C3919904   1.138   0.405  15.503 -0.3356  1.1703 -0.0988
  164DOPC   H9X19905   1.139   0.306  15.552 -0.0110  1.2739  0.1044
  164DOPC  C31019906   1.188   0.417  15.378  0.2986  0.6827 -0.5489
  164DOPC  H10X19907   1.222   0.325  15.329 -0.6702 -0.7621  1.3399
  164DOPC  C31119908   1.205   0.547  15.301  0.0206  0.2206  0.1441
  164DOPC  H11X19909   1.311   0.541  15.268  0.1212 -0.2652  0.5384
  164DOPC  H11Y19910   1.182   0.638  15.361  2.4273  0.8917  0.1917
  164DOPC  C31219911   1.113   0.550  15.177  0.4671  0.2478  0.5061
  164DOPC  H12X19912   1.128   0.649  15.130  1.0202 -1.0506 -2.2801
  164DOPC  H12Y19913   1.009   0.529  15.210  0.3250  2.0222  1.2682
  164DOPC  C31319914   1.153   0.443  15.068 -0.1207 -0.4121  0.4983
  164DOPC  H13X19915   1.260   0.437  15.042  0.2615 -0.9407  2.0375
  164DOPC  H13Y19916   1.120   0.340  15.094  2.4392 -1.5971 -0.6649
  164DOPC  C31419917   1.079   0.496  14.939 -0.1812  0.5209  0.0045
  164DOPC  H14X19918   1.113   0.597  14.908  0.2601  0.5206  0.4822
  164DOPC  H14Y19919   0.970   0.492  14.958 -0.2603 -2.3348 -0.5286
  164DOPC  C31519920   1.107   0.395  14.823  0.1910  0.2257 -0.0711
  164DOPC  H15X19921   1.103   0.301  14.881 -2.0161  2.1178  3.1819
  164DOPC  H15Y19922   1.209   0.422  14.788  1.2392 -1.4472  1.5648
  164DOPC  C31619923   1.008   0.401  14.699  0.0188  0.1581  0.8109
  164DOPC  H16X19924   1.022   0.309  14.639  1.0987  1.2372 -0.6815
  164DOPC  H16Y19925   0.900   0.414  14.724 -0.1973  3.5160 -1.2380
  164DOPC  C31719926   1.066   0.517  14.605  0.2151 -0.1559  0.0991
  164DOPC  H17X19927   1.060   0.609  14.667  0.7105  0.8141 -1.2394
  164DOPC  H17Y19928   1.174   0.504  14.582  0.8313  3.4860  0.3960
  164DOPC  C31819929   0.982   0.536  14.478 -0.1866  0.3544  0.0377
  164DOPC  H18X19930   0.998   0.638  14.436  2.8883  0.5520  1.4013
  164DOPC  H18Y19931   1.007   0.462  14.400 -1.5610 -0.9270  0.7628
  164DOPC  H18Z19932   0.877   0.517  14.510  0.1962 -2.4563 -0.1553
  165DOPC     N19933   4.210   5.840  17.149 -0.0773 -0.8228  0.0602
  165DOPC   C1219934   4.318   5.916  17.075  0.1801  0.2809 -0.0712
  165DOPC  H12A19935   4.278   5.936  16.976  0.4545  1.1422 -0.0137
  165DOPC  H12B19936   4.400   5.846  17.066  1.4336  1.7797 -0.6115
  165DOPC   C1319937   4.253   5.807  17.287  0.0523 -0.1001  0.5467
  165DOPC  H13A19938   4.179   5.755  17.346  2.0390 -1.9836  1.5174
  165DOPC  H13B19939   4.332   5.735  17.271 -0.7574 -1.3642  1.9351
  165DOPC  H13C19940   4.293   5.893  17.340  0.6175  0.4325 -0.7203
  165DOPC   C1419941   4.176   5.719  17.070  0.0317 -0.0320  0.3317
  165DOPC  H14A19942   4.263   5.660  17.044 -0.8920 -1.0309 -0.6061
  165DOPC  H14B19943   4.110   5.648  17.118 -0.4699 -0.7432 -1.3123
  165DOPC  H14C19944   4.133   5.742  16.973  1.6644 -0.8112 -0.6192
  165DOPC   C1519945   4.095   5.929  17.163  0.1663  0.1179  0.5727
  165DOPC  H15A19946   4.045   5.961  17.072 -0.7390  1.0491  1.3775
  165DOPC  H15B19947   4.133   6.021  17.205 -4.0550  1.5604  1.6721
  165DOPC  H15C19948   4.022   5.891  17.232 -3.6118  2.2192 -1.8798
  165DOPC   C1119949   4.381   6.041  17.127  0.1748  0.0052 -0.0149
  165DOPC  H11A19950   4.456   6.074  17.052 -0.0568  0.5163 -0.0261
  165DOPC  H11B19951   4.306   6.124  17.133  1.6337  1.2796  2.0194
  165DOPC     P19952   4.590   5.980  17.275 -0.1146  0.2375  0.1510
  165DOPC   O1319953   4.596   5.876  17.386 -0.5307 -0.2600  0.2708
  165DOPC   O1419954   4.671   6.106  17.290 -1.0100 -0.0542  0.3016
  165DOPC   O1219955   4.433   6.014  17.260 -0.1129  0.0742 -1.0549
  165DOPC   O1119956   4.615   5.906  17.142  0.3683  0.1669 -0.1717
  165DOPC    C119957   4.744   5.862  17.101 -0.0368  0.7740  0.2775
  165DOPC    HA19958   4.793   5.789  17.170  1.7947  0.1586 -1.5646
  165DOPC    HB19959   4.825   5.937  17.094  2.0305 -1.1566  1.8568
  165DOPC    C219960   4.737   5.803  16.954 -0.5024  0.0563  0.0890
  165DOPC    HS19961   4.838   5.761  16.933 -0.5499  0.4350 -0.9782
  165DOPC   O2119962   4.707   5.906  16.854  0.2039  0.4006 -0.3422
  165DOPC   C2119963   4.810   5.970  16.813 -0.0520 -0.0345  0.4546
  165DOPC   O2219964   4.926   5.936  16.829  0.4633 -0.2939  0.1309
  165DOPC   C2219965   4.769   6.093  16.736  0.4968 -0.5016 -0.1847
  165DOPC   H2R19966   4.839   6.179  16.745  1.3207 -1.1042 -0.8477
  165DOPC   H2S19967   4.681   6.132  16.793 -0.3187 -1.3882 -0.8159
  165DOPC    C319968   4.651   5.680  16.943  0.3261  0.0200 -0.0583
  165DOPC    HX19969   4.560   5.694  17.005 -0.1395 -0.1869 -0.6824
  165DOPC    HY19970   4.717   5.603  16.987  0.0499  0.0789  0.4631
  165DOPC   O3119971   4.630   5.641  16.807 -0.3258  0.0784  0.6220
  165DOPC   C3119972   4.516   5.679  16.764  1.0226 -0.0038 -0.0752
  165DOPC   O3219973   4.417   5.724  16.819  0.5689 -0.0982 -0.3342
  165DOPC   C3219974   4.516   5.647  16.608 -0.0607  0.1255  0.0503
  165DOPC   H2X19975   4.620   5.664  16.573  0.5170  1.3420  2.1474
  165DOPC   H2Y19976   4.479   5.543  16.602  0.6269 -0.0713 -1.0305
  165DOPC   C2319977   4.752   6.065  16.585  0.3231 -0.2495 -0.2080
  165DOPC   H3R19978   4.714   6.157  16.534 -2.5246 -1.3123 -0.2311
  165DOPC   H3S19979   4.669   5.993  16.563  1.1272 -1.3757  0.3585
  165DOPC   C2419980   4.880   6.007  16.513  0.3900 -0.4302 -0.3728
  165DOPC   H4R19981   4.912   5.914  16.565 -2.8365 -0.8239  1.1084
  165DOPC   H4S19982   4.964   6.076  16.535  1.4676 -2.0028  0.6829
  165DOPC   C2519983   4.877   5.990  16.364  0.1106 -0.1663 -0.5228
  165DOPC   H5R19984   4.977   5.973  16.317  1.3831  3.5383  0.4409
  165DOPC   H5S19985   4.846   6.092  16.332 -0.7099 -0.1667  0.2361
  165DOPC   C2619986   4.776   5.903  16.300  0.1821 -0.0344 -0.4031
  165DOPC   H6R19987   4.668   5.922  16.320  0.5119 -0.2499  1.9076
  165DOPC   H6S19988   4.786   5.797  16.331 -0.2925 -0.2620 -1.0121
  165DOPC   C2719989   4.786   5.890  16.146 -0.0822 -0.1403 -0.7738
  165DOPC   H7R19990   4.885   5.843  16.129  0.3684 -0.1909  1.6778
  165DOPC   H7S19991   4.793   5.993  16.105 -0.0057 -0.0529 -0.5379
  165DOPC   C2819992   4.683   5.801  16.080 -0.1753  0.5766 -0.5605
  165DOPC   H8R19993   4.662   5.721  16.154  0.6681  0.3382 -0.5704
  165DOPC   H8S19994   4.723   5.744  15.993 -1.6462 -0.7569 -0.4172
  165DOPC   C2919995   4.554   5.857  16.046  0.7751  0.4791  0.8584
  165DOPC   H9R19996   4.466   5.828  16.106 -0.1103  1.0389 -0.1503
  165DOPC  C21019997   4.538   5.936  15.936  0.4091  1.1093 -0.1203
  165DOPC  H10R19998   4.438   5.954  15.894  0.3983  1.7253  0.1525
  165DOPC  C21119999   4.643   5.984  15.833 -1.0563  0.0971  0.4605
  165DOPC  H11R20000   4.733   5.920  15.825 -1.0238  0.2875 -0.9008
  165DOPC  H11S20001   4.692   6.083  15.845 -0.7404  0.3030 -1.9839
  165DOPC  C21220002   4.591   5.993  15.687  0.1403  0.0078  0.2129
  165DOPC  H12R20003   4.517   6.076  15.680 -1.1431 -0.8992  2.1636
  165DOPC  H12S20004   4.538   5.902  15.653  0.3162  0.3358 -1.0161
  165DOPC  C21320005   4.687   6.022  15.573  0.3295  0.0895 -0.4869
  165DOPC  H13R20006   4.750   5.931  15.576  0.8292  0.4478  0.3731
  165DOPC  H13S20007   4.748   6.113  15.594  0.5482  0.1612 -1.4024
  165DOPC  C21420008   4.623   6.040  15.439  0.3893 -0.5513  0.4288
  165DOPC  H14R20009   4.557   6.129  15.444 -1.6907 -1.9679 -0.3695
  165DOPC  H14S20010   4.563   5.949  15.421 -0.4185  0.3007 -1.5797
  165DOPC  C21520011   4.734   6.059  15.336 -0.1576 -0.5343 -0.3583
  165DOPC  H15R20012   4.678   6.082  15.243 -2.3344  1.1258  1.2463
  165DOPC  H15S20013   4.809   5.977  15.323  0.0831 -0.2508 -0.7839
  165DOPC  C21620014   4.822   6.183  15.363  0.1421  0.3924 -0.7950
  165DOPC  H16R20015   4.907   6.151  15.428  1.0930  2.1817 -1.0970
  165DOPC  H16S20016   4.765   6.261  15.417  1.6353 -0.6091  2.5252
  165DOPC  C21720017   4.892   6.245  15.244 -0.4196  0.9618 -0.1820
  165DOPC  H17R20018   4.832   6.217  15.155  0.6739 -3.6252  0.2224
  165DOPC  H17S20019   4.986   6.187  15.228 -0.5313  1.0727 -1.3612
  165DOPC  C21820020   4.909   6.395  15.249  0.2037 -0.1662  0.1402
  165DOPC  H18R20021   4.934   6.437  15.149  2.0936  0.2961  0.7609
  165DOPC  H18S20022   4.980   6.424  15.330 -1.0859 -0.2855  1.3673
  165DOPC  H18T20023   4.806   6.431  15.273 -0.2439 -2.2207  1.5915
  165DOPC   C3320024   4.418   5.732  16.527  0.4200 -0.7722 -0.4421
  165DOPC   H3X20025   4.447   5.836  16.552 -1.2796 -0.4445  0.2650
  165DOPC   H3Y20026   4.313   5.724  16.563 -0.0742  0.2112 -1.6214
  165DOPC   C3420027   4.422   5.709  16.377  0.2170  0.1247 -0.1828
  165DOPC   H4X20028   4.530   5.700  16.351  0.6936  2.5146  0.7144
  165DOPC   H4Y20029   4.382   5.796  16.322 -0.4035  0.2804  0.5023
  165DOPC   C3520030   4.338   5.589  16.344 -0.4543  0.1177  0.1977
  165DOPC   H5X20031   4.233   5.586  16.380 -1.5808 -1.4924 -2.8647
  165DOPC   H5Y20032   4.381   5.491  16.375  2.8697  1.2483 -0.4819
  165DOPC   C3620033   4.336   5.584  16.184 -0.2690 -0.1106 -0.5698
  165DOPC   H6X20034   4.303   5.685  16.151 -3.0591 -0.3471  1.1287
  165DOPC   H6Y20035   4.440   5.558  16.154  0.3917 -1.2264  2.3265
  165DOPC   C3720036   4.245   5.481  16.126 -0.3059 -0.3189 -0.1992
  165DOPC   H7X20037   4.138   5.495  16.155 -0.0354 -0.7967  1.1022
  165DOPC   H7Y20038   4.279   5.391  16.181 -1.9344 -0.9469 -0.1599
  165DOPC   C3820039   4.249   5.458  15.978 -0.0616  0.0692 -0.5370
  165DOPC   H8X20040   4.214   5.545  15.918 -3.1937 -1.2605 -0.8642
  165DOPC   H8Y20041   4.163   5.392  15.953 -1.7794  2.7183 -2.1857
  165DOPC   C3920042   4.381   5.403  15.924 -0.5517  0.6051  0.4073
  165DOPC   H9X20043   4.417   5.309  15.968 -0.5116  0.5129  0.1770
  165DOPC  C31020044   4.463   5.469  15.837  0.5021 -0.0607 -0.2127
  165DOPC  H10X20045   4.556   5.422  15.802  0.5154 -0.4812  0.3568
  165DOPC  C31120046   4.445   5.610  15.785 -0.1421 -0.4310 -0.1462
  165DOPC  H11X20047   4.545   5.656  15.774 -0.0701 -0.1417  1.6069
  165DOPC  H11Y20048   4.393   5.669  15.863 -1.4783 -3.2341  1.2259
  165DOPC  C31220049   4.364   5.607  15.654  0.2401  0.0364  0.1937
  165DOPC  H12X20050   4.330   5.711  15.637 -0.6840 -0.5002 -1.4076
  165DOPC  H12Y20051   4.270   5.550  15.671 -0.2835  0.7300 -0.3285
  165DOPC  C31320052   4.440   5.570  15.534  0.5740 -0.2665  0.0476
  165DOPC  H13X20053   4.531   5.633  15.534 -0.4748  1.3283  0.9010
  165DOPC  H13Y20054   4.474   5.464  15.536 -0.1677 -0.5172  2.0204
  165DOPC  C31420055   4.375   5.605  15.402 -0.5781  0.0812  0.2240
  165DOPC  H14X20056   4.284   5.541  15.391 -0.0290 -0.7227  0.3056
  165DOPC  H14Y20057   4.347   5.713  15.395  1.0816  0.4719 -0.9471
  165DOPC  C31520058   4.458   5.570  15.277 -0.2995 -0.5271 -0.3576
  165DOPC  H15X20059   4.499   5.467  15.281 -0.6896 -0.7942 -2.2246
  165DOPC  H15Y20060   4.551   5.630  15.281  0.7375 -2.0825 -0.2409
  165DOPC  C31620061   4.378   5.591  15.148 -0.0269 -0.2036 -0.1692
  165DOPC  H16X20062   4.287   5.528  15.156 -0.3015  0.2439  0.2859
  165DOPC  H16Y20063   4.354   5.700  15.151 -0.3280 -0.2779  2.3119
  165DOPC  C31720064   4.454   5.553  15.016  0.3632 -0.2766  0.7439
  165DOPC  H17X20065   4.539   5.624  15.006 -0.9560  1.2390 -0.0870
  165DOPC  H17Y20066   4.491   5.449  15.029 -3.2970 -1.4868  2.9291
  165DOPC  C31820067   4.359   5.562  14.892  0.4471  0.6550 -0.5492
  165DOPC  H18X20068   4.292   5.651  14.902 -0.3817 -0.2155  3.0964
  165DOPC  H18Y20069   4.406   5.550  14.792  0.9824  1.1463 -0.3683
  165DOPC  H18Z20070   4.294   5.473  14.901  2.5977 -1.2284 -2.3252
  166DOPC     N20071   0.013   1.911  16.736  0.3652 -0.2672 -0.8834
  166DOPC   C1220072  -0.086   1.881  16.629 -0.2978  0.3021 -0.4600
  166DOPC  H12A20073  -0.049   1.915  16.533 -2.4051 -0.0822 -1.4854
  166DOPC  H12B20074  -0.180   1.933  16.641 -0.2792  0.7513 -1.9612
  166DOPC   C1320075   0.077   2.043  16.717  0.2964  0.6687  0.5321
  166DOPC  H13A20076   0.150   2.072  16.792  1.1052 -0.7987  0.3609
  166DOPC  H13B20077   0.124   2.042  16.620 -0.5532 -0.9140  0.1160
  166DOPC  H13C20078  -0.000   2.117  16.706  0.1496  0.5377  0.6793
  166DOPC   C1420079   0.107   1.806  16.740  0.1845  0.2065  0.1887
  166DOPC  H14A20080   0.059   1.709  16.735  0.7514 -0.0362 -0.8233
  166DOPC  H14B20081   0.173   1.812  16.656 -0.4059 -0.2399 -0.3166
  166DOPC  H14C20082   0.161   1.809  16.833 -0.1955  1.1672  0.3830
  166DOPC   C1520083  -0.057   1.918  16.871  0.0449 -0.7086 -0.5437
  166DOPC  H15A20084   0.012   1.942  16.952 -1.3730 -0.1763  0.5462
  166DOPC  H15B20085  -0.101   1.820  16.888 -1.0042 -0.8923 -3.7664
  166DOPC  H15C20086  -0.140   1.986  16.876 -0.4617 -1.2957 -0.8001
  166DOPC   C1120087  -0.131   1.732  16.616 -0.2198  0.5823 -0.5236
  166DOPC  H11A20088  -0.175   1.732  16.514  1.1951  0.2974 -1.1606
  166DOPC  H11B20089  -0.046   1.661  16.609 -1.7606 -1.2074 -2.3007
  166DOPC     P20090  -0.373   1.707  16.705  0.5351 -0.4485  0.4505
  166DOPC   O1320091  -0.426   1.838  16.745  0.0335 -0.1908 -0.8003
  166DOPC   O1420092  -0.440   1.589  16.759  0.1430  0.0635  0.1403
  166DOPC   O1220093  -0.216   1.691  16.719 -0.1080 -0.7206 -0.0659
  166DOPC   O1120094  -0.395   1.692  16.544  0.1197  0.4726  0.6903
  166DOPC    C120095  -0.484   1.785  16.487  1.1050 -0.0392  0.3811
  166DOPC    HA20096  -0.448   1.890  16.493 -0.0488  0.3368  1.0590
  166DOPC    HB20097  -0.583   1.779  16.537  1.3870 -1.4214  0.8186
  166DOPC    C220098  -0.500   1.771  16.333  0.3839 -0.4569  0.5243
  166DOPC    HS20099  -0.590   1.834  16.313  1.4825  0.7099 -0.9711
  166DOPC   O2120100  -0.522   1.632  16.307 -1.0992 -0.6786 -0.3176
  166DOPC   C2120101  -0.630   1.579  16.351 -0.7790 -0.4294  0.2861
  166DOPC   O2220102  -0.718   1.639  16.411  0.4159 -0.0032 -0.1047
  166DOPC   C2220103  -0.639   1.423  16.343 -0.5055 -0.0528 -0.4617
  166DOPC   H2R20104  -0.710   1.384  16.419 -0.6946  1.7936  0.3651
  166DOPC   H2S20105  -0.539   1.386  16.372 -0.6175 -1.7354 -2.0540
  166DOPC    C320106  -0.384   1.829  16.251  0.6192 -0.0359 -0.3546
  166DOPC    HX20107  -0.289   1.785  16.289  0.6472 -0.5462 -0.9898
  166DOPC    HY20108  -0.379   1.936  16.279 -0.9515 -0.1781  0.5900
  166DOPC   O3120109  -0.397   1.813  16.105  0.0370  0.2219  0.2386
  166DOPC   C3120110  -0.293   1.858  16.042  0.2982 -0.3614  0.3494
  166DOPC   O3220111  -0.202   1.911  16.103 -0.2127 -0.4108 -0.6781
  166DOPC   C3220112  -0.298   1.819  15.895  0.6332  0.9178 -0.4031
  166DOPC   H2X20113  -0.402   1.820  15.857  0.0283  2.3600  1.1363
  166DOPC   H2Y20114  -0.233   1.890  15.839  0.4306 -0.4618 -2.4884
  166DOPC   C2320115  -0.676   1.363  16.204 -0.5366 -0.5018 -0.6026
  166DOPC   H3R20116  -0.622   1.415  16.122 -2.5609  4.2784  0.7918
  166DOPC   H3S20117  -0.784   1.384  16.192 -0.2291  1.9044  0.3247
  166DOPC   C2420118  -0.650   1.213  16.207  0.0030  0.8802 -0.0734
  166DOPC   H4R20119  -0.702   1.172  16.296  1.4500 -0.5238  0.1653
  166DOPC   H4S20120  -0.539   1.206  16.214  0.0922  1.5504 -0.7052
  166DOPC   C2520121  -0.699   1.142  16.088  0.4197  0.9638  0.3493
  166DOPC   H5R20122  -0.807   1.167  16.076  0.3965  1.3238  1.2489
  166DOPC   H5S20123  -0.709   1.032  16.088  0.3128  0.9743  0.5946
  166DOPC   C2620124  -0.618   1.187  15.956  0.0070 -0.0731  0.1924
  166DOPC   H6R20125  -0.509   1.183  15.972  0.3481  2.7088 -0.8546
  166DOPC   H6S20126  -0.651   1.292  15.938 -0.2850 -0.2760 -0.4907
  166DOPC   C2720127  -0.669   1.114  15.829 -0.9426  1.0259 -0.1412
  166DOPC   H7R20128  -0.776   1.135  15.809 -1.1657  1.5968  1.4782
  166DOPC   H7S20129  -0.664   1.003  15.844 -1.0027  0.7028 -2.2903
  166DOPC   C2820130  -0.584   1.162  15.711  0.6518  0.8449 -0.8923
  166DOPC   H8R20131  -0.591   1.087  15.630 -0.2516  2.0447 -1.9664
  166DOPC   H8S20132  -0.478   1.155  15.743 -0.3102  1.7931  2.9787
  166DOPC   C2920133  -0.621   1.306  15.674  0.1931  0.4460 -0.0439
  166DOPC   H9R20134  -0.590   1.374  15.756  2.1823 -1.6465  1.0568
  166DOPC  C21020135  -0.677   1.355  15.565  0.8194  0.2363  0.2363
  166DOPC  H10R20136  -0.710   1.459  15.554  0.3197 -0.1098 -2.1334
  166DOPC  C21120137  -0.724   1.279  15.444  0.1191 -0.2869 -0.3003
  166DOPC  H11R20138  -0.834   1.284  15.430  0.3085 -2.7131 -4.0175
  166DOPC  H11S20139  -0.701   1.170  15.455  1.9155 -0.0787 -1.4584
  166DOPC  C21220140  -0.682   1.330  15.301 -0.2773 -0.1906  0.5767
  166DOPC  H12R20141  -0.572   1.321  15.293 -0.2719 -1.6547  1.9109
  166DOPC  H12S20142  -0.711   1.434  15.272  0.6525 -0.6219 -2.2058
  166DOPC  C21320143  -0.734   1.244  15.181  0.4761  0.0035  0.3212
  166DOPC  H13R20144  -0.844   1.244  15.196  0.6676  0.4560  1.9314
  166DOPC  H13S20145  -0.685   1.147  15.198  0.9054  0.0379 -0.6497
  166DOPC  C21420146  -0.682   1.293  15.047 -0.7485  0.0538 -0.1443
  166DOPC  H14R20147  -0.572   1.312  15.053 -0.8080  0.0635  1.4138
  166DOPC  H14S20148  -0.711   1.400  15.038 -0.6753  0.1854  0.9306
  166DOPC  C21520149  -0.724   1.212  14.923 -0.5429  0.5532  0.3471
  166DOPC  H15R20150  -0.651   1.130  14.909 -0.1363  1.3405 -2.9822
  166DOPC  H15S20151  -0.727   1.279  14.834  0.3405  0.0007 -0.1084
  166DOPC  C21620152  -0.864   1.152  14.929 -0.0158  0.6712 -0.4612
  166DOPC  H16R20153  -0.939   1.228  14.957 -0.2110  0.4345 -0.3333
  166DOPC  H16S20154  -0.869   1.074  15.008 -2.1826 -0.2469 -1.3983
  166DOPC  C21720155  -0.910   1.091  14.797  0.3589 -0.6793  0.0314
  166DOPC  H17R20156  -0.864   0.991  14.785 -2.2657 -1.9615 -0.1308
  166DOPC  H17S20157  -0.868   1.153  14.715 -0.6888  0.4200  0.2916
  166DOPC  C21820158  -1.065   1.070  14.786  0.0807  0.1514 -0.4631
  166DOPC  H18R20159  -1.120   1.166  14.780  1.4540  1.1173  1.5536
  166DOPC  H18S20160  -1.113   1.016  14.870 -0.2723  1.5761  0.2690
  166DOPC  H18T20161  -1.096   1.002  14.704  0.4769  0.8143 -1.1770
  166DOPC   C3320162  -0.238   1.677  15.864  0.3027 -0.1080  0.7734
  166DOPC   H3X20163  -0.291   1.598  15.923 -0.7595 -0.7798 -1.0022
  166DOPC   H3Y20164  -0.131   1.672  15.894  1.2709 -1.1818 -2.4438
  166DOPC   C3420165  -0.238   1.635  15.711  0.1776 -0.7539  0.8087
  166DOPC   H4X20166  -0.195   1.534  15.696 -0.0528 -0.4515 -2.5286
  166DOPC   H4Y20167  -0.181   1.703  15.644 -0.6028 -1.2996 -0.4389
  166DOPC   C3520168  -0.377   1.638  15.643  0.2049 -0.0974 -0.2584
  166DOPC   H5X20169  -0.409   1.744  15.628  0.2198  0.2228  1.6955
  166DOPC   H5Y20170  -0.439   1.589  15.720  0.9719 -0.7110 -0.0186
  166DOPC   C3620171  -0.382   1.566  15.513  0.6857  0.5924 -0.4804
  166DOPC   H6X20172  -0.371   1.457  15.532  3.3079  1.2576  2.5988
  166DOPC   H6Y20173  -0.486   1.575  15.472  1.1674 -1.3060 -2.3293
  166DOPC   C3720174  -0.284   1.628  15.416 -0.0748  0.1735 -0.4217
  166DOPC   H7X20175  -0.295   1.738  15.401 -0.0639  0.4813  1.5299
  166DOPC   H7Y20176  -0.183   1.600  15.452 -0.1084 -0.8403 -1.0582
  166DOPC   C3820177  -0.297   1.569  15.278 -0.8742 -0.2386  0.3413
  166DOPC   H8X20178  -0.305   1.459  15.286  0.6897 -0.2622  2.2488
  166DOPC   H8Y20179  -0.201   1.602  15.232 -0.1324 -3.8175 -1.0272
  166DOPC   C3920180  -0.406   1.633  15.195 -0.6088 -0.3335  0.6962
  166DOPC   H9X20181  -0.477   1.705  15.237  0.7316  1.1111  0.5984
  166DOPC  C31020182  -0.400   1.616  15.059 -0.1323 -0.5253 -0.0137
  166DOPC  H10X20183  -0.481   1.660  14.998  0.6225  2.0458  0.7225
  166DOPC  C31120184  -0.300   1.529  14.982  0.5053  0.5560 -0.1267
  166DOPC  H11X20185  -0.363   1.477  14.907  0.6173  1.7367 -1.0647
  166DOPC  H11Y20186  -0.257   1.447  15.043  0.0584  0.1250 -0.3853
  166DOPC  C31220187  -0.189   1.614  14.926 -0.7144  0.4317 -0.2416
  166DOPC  H12X20188  -0.106   1.638  14.995 -0.7820 -0.6951  0.2526
  166DOPC  H12Y20189  -0.234   1.714  14.913 -0.8273  0.9260  3.1512
  166DOPC  C31320190  -0.150   1.578  14.783  0.0417 -0.8417 -0.8559
  166DOPC  H13X20191  -0.145   1.467  14.778 -0.4776 -0.8451 -1.3639
  166DOPC  H13Y20192  -0.218   1.607  14.701 -1.1863  0.9768  0.7242
  166DOPC  C31420193  -0.020   1.641  14.747  0.2897 -0.8476 -0.4070
  166DOPC  H14X20194  -0.035   1.751  14.737  0.2773 -0.7228  0.8010
  166DOPC  H14Y20195   0.045   1.637  14.837 -1.7871  1.4162  1.3395
  166DOPC  C31520196   0.039   1.606  14.614  0.2698 -0.1512 -0.1033
  166DOPC  H15X20197  -0.038   1.628  14.537  1.6899 -0.5567 -1.7061
  166DOPC  H15Y20198   0.079   1.503  14.617  3.8246  1.0787 -0.7694
  166DOPC  C31620199   0.157   1.705  14.578  0.3085 -0.1939  0.8740
  166DOPC  H16X20200   0.120   1.810  14.575  2.6009  0.6517 -1.8133
  166DOPC  H16Y20201   0.230   1.698  14.662  1.6917 -3.6503 -0.4334
  166DOPC  C31720202   0.240   1.673  14.449  0.4371 -0.5865  0.1400
  166DOPC  H17X20203   0.346   1.705  14.461 -0.4024  2.2142  0.8678
  166DOPC  H17Y20204   0.239   1.562  14.448  0.4254 -0.5945  0.5783
  166DOPC  C31820205   0.159   1.736  14.340  0.9892 -0.2179 -0.0665
  166DOPC  H18X20206   0.206   1.724  14.240  0.3526 -2.1824 -0.1749
  166DOPC  H18Y20207   0.060   1.685  14.337  0.4429  0.8646 -1.1491
  166DOPC  H18Z20208   0.139   1.842  14.366 -1.1564 -0.6017  0.0716
  167DOPC     N20209   6.722   1.108  17.376 -0.4938  0.5152 -0.7693
  167DOPC   C1220210   6.654   1.237  17.330 -0.3513  0.4415  0.1519
  167DOPC  H12A20211   6.673   1.238  17.224 -0.8942 -3.1637 -0.1130
  167DOPC  H12B20212   6.704   1.321  17.376  0.0064  1.0294 -1.2646
  167DOPC   C1320213   6.872   1.116  17.349  0.1152 -0.3717  0.3321
  167DOPC  H13A20214   6.923   1.021  17.363  0.5120 -0.3121 -0.6608
  167DOPC  H13B20215   6.890   1.146  17.247  2.2953  3.1448  1.5513
  167DOPC  H13C20216   6.928   1.174  17.421 -0.4520 -0.3089  0.7303
  167DOPC   C1420217   6.675   0.985  17.294  0.6238  0.0821 -0.6537
  167DOPC  H14A20218   6.719   0.892  17.328  1.2087  0.8928  0.8920
  167DOPC  H14B20219   6.568   0.978  17.304  0.7726 -0.6117  0.6762
  167DOPC  H14C20220   6.692   0.995  17.188 -1.9317  0.4446 -1.0815
  167DOPC   C1520221   6.695   1.088  17.522 -0.4738 -0.5933  0.7220
  167DOPC  H15A20222   6.732   0.989  17.547  0.4385 -0.6100 -0.6117
  167DOPC  H15B20223   6.591   1.077  17.546 -0.5151 -1.7875  0.0513
  167DOPC  H15C20224   6.740   1.170  17.577  1.0420 -0.5668 -0.4840
  167DOPC   C1120225   6.506   1.266  17.357 -0.2493 -0.5638 -0.5142
  167DOPC  H11A20226   6.493   1.270  17.467  0.2702  1.3785 -0.4853
  167DOPC  H11B20227   6.477   1.367  17.321 -0.0758 -0.3533 -0.0736
  167DOPC     P20228   6.293   1.191  17.216  0.2139 -0.0898 -0.0896
  167DOPC   O1320229   6.227   1.310  17.269  0.2787  0.3402 -0.3560
  167DOPC   O1420230   6.215   1.062  17.218  0.6491 -0.3736 -0.0818
  167DOPC   O1220231   6.418   1.168  17.307 -0.2481 -0.2328 -0.1811
  167DOPC   O1120232   6.351   1.217  17.072  0.2069  0.1569 -0.0799
  167DOPC    C120233   6.381   1.107  16.981 -0.7839  0.1939 -0.9130
  167DOPC    HA20234   6.376   1.006  17.025 -0.6254 -0.0043 -1.3424
  167DOPC    HB20235   6.489   1.116  16.956  0.2819 -0.6677  2.8166
  167DOPC    C220236   6.297   1.112  16.849  0.4188 -0.3311  0.6654
  167DOPC    HS20237   6.307   1.007  16.814 -3.1813 -0.5525 -0.0738
  167DOPC   O2120238   6.342   1.209  16.754 -0.3170 -0.0141  0.3282
  167DOPC   C2120239   6.460   1.185  16.697 -0.4243  0.1819 -0.0256
  167DOPC   O2220240   6.514   1.074  16.706  0.7891 -0.1181 -0.8222
  167DOPC   C2220241   6.515   1.307  16.612 -0.2481 -0.1325  0.3609
  167DOPC   H2R20242   6.603   1.350  16.664  0.3178 -0.6037 -0.1907
  167DOPC   H2S20243   6.444   1.392  16.609 -0.1648 -0.0820 -0.7025
  167DOPC    C320244   6.142   1.123  16.870 -0.4764 -0.8693  0.5830
  167DOPC    HX20245   6.131   1.220  16.921  0.1975 -1.3372  1.6544
  167DOPC    HY20246   6.109   1.043  16.941 -0.0198 -0.5431  1.1710
  167DOPC   O3120247   6.071   1.137  16.747 -0.0035 -0.4026 -0.2206
  167DOPC   C3120248   6.038   1.021  16.697 -0.1906 -0.1726  0.0905
  167DOPC   O3220249   6.077   0.913  16.738 -0.7895 -0.3791  0.0465
  167DOPC   C3220250   5.964   1.033  16.570 -0.2318 -0.1816 -0.5051
  167DOPC   H2X20251   5.858   1.061  16.588  0.1072  0.2111  1.0450
  167DOPC   H2Y20252   6.016   1.113  16.514  0.8736 -0.9530 -0.6174
  167DOPC   C2320253   6.556   1.257  16.474 -1.0606 -0.4336 -0.4358
  167DOPC   H3R20254   6.484   1.181  16.437 -0.5151 -1.3018  0.2280
  167DOPC   H3S20255   6.665   1.234  16.475 -0.8139  0.6037 -1.2790
  167DOPC   C2420256   6.551   1.370  16.369  0.3044  0.5060 -0.2642
  167DOPC   H4R20257   6.605   1.461  16.402  1.7056 -0.6637  0.8396
  167DOPC   H4S20258   6.443   1.388  16.350 -0.3184 -1.6698  0.8549
  167DOPC   C2520259   6.607   1.322  16.233 -0.0557  0.1316  0.1543
  167DOPC   H5R20260   6.696   1.265  16.267  0.8073  0.6143 -1.2418
  167DOPC   H5S20261   6.653   1.404  16.175 -2.7396  0.1789 -2.1493
  167DOPC   C2620262   6.521   1.239  16.142  0.2083 -0.5511 -0.0966
  167DOPC   H6R20263   6.439   1.310  16.118  1.7000  0.7677 -1.5986
  167DOPC   H6S20264   6.481   1.161  16.210  0.8859 -1.8675 -1.1535
  167DOPC   C2720265   6.598   1.170  16.028  0.0617  0.7582 -0.5192
  167DOPC   H7R20266   6.527   1.107  15.972  1.9567 -0.6035 -1.5253
  167DOPC   H7S20267   6.662   1.096  16.080  0.9204  0.2438 -2.2214
  167DOPC   C2820268   6.691   1.247  15.932 -0.3359 -0.1190  0.7679
  167DOPC   H8R20269   6.777   1.287  15.990  1.9373 -1.7930 -1.2850
  167DOPC   H8S20270   6.641   1.334  15.882 -0.7296 -1.5326 -1.4342
  167DOPC   C2920271   6.749   1.156  15.828 -0.2430 -0.3416  0.7639
  167DOPC   H9R20272   6.853   1.124  15.847 -0.6720 -2.1729  0.2782
  167DOPC  C21020273   6.689   1.126  15.713 -0.0905 -0.2193 -0.5817
  167DOPC  H10R20274   6.740   1.048  15.654  0.9299 -0.1379  0.1480
  167DOPC  C21120275   6.552   1.171  15.668  1.0016  0.2736  0.1981
  167DOPC  H11R20276   6.502   1.260  15.712  0.6956  0.0406  0.3209
  167DOPC  H11S20277   6.475   1.097  15.699  1.0636 -0.4951 -1.3998
  167DOPC  C21220278   6.549   1.206  15.518 -0.6721 -0.6634 -0.3217
  167DOPC  H12R20279   6.455   1.259  15.493  1.3880  2.5731 -1.9081
  167DOPC  H12S20280   6.635   1.271  15.493 -0.9787  0.1874  0.7514
  167DOPC  C21320281   6.553   1.075  15.435  0.3847  0.1238 -0.3634
  167DOPC  H13R20282   6.492   0.991  15.473  0.5288 -0.9053 -2.2992
  167DOPC  H13S20283   6.658   1.038  15.442 -0.1162 -1.0368  2.7053
  167DOPC  C21420284   6.524   1.094  15.287 -0.6147 -0.4612 -0.5582
  167DOPC  H14R20285   6.574   1.183  15.244  0.9148 -0.8482  0.3418
  167DOPC  H14S20286   6.415   1.113  15.281 -0.2889  2.3573  0.5842
  167DOPC  C21520287   6.563   0.968  15.207 -0.2856 -0.1735 -0.3543
  167DOPC  H15R20288   6.497   0.891  15.253 -0.5197 -0.0333 -0.4563
  167DOPC  H15S20289   6.666   0.939  15.240 -1.5863 -2.6282  2.0291
  167DOPC  C21620290   6.535   0.987  15.056 -0.1304 -0.2192 -0.4720
  167DOPC  H16R20291   6.615   1.059  15.030 -1.4268  1.5880  0.2999
  167DOPC  H16S20292   6.435   1.035  15.050  0.8013  1.5568 -3.0534
  167DOPC  C21720293   6.545   0.861  14.960  0.2276 -0.0161 -1.0434
  167DOPC  H17R20294   6.472   0.789  15.005  1.5550  0.4856  2.1974
  167DOPC  H17S20295   6.648   0.821  14.972 -0.1267 -0.8009 -0.4985
  167DOPC  C21820296   6.507   0.912  14.820 -0.5948  0.1699 -0.1671
  167DOPC  H18R20297   6.399   0.934  14.814 -0.5648  0.9653  1.5629
  167DOPC  H18S20298   6.545   0.833  14.752  0.5747 -1.7393  2.5332
  167DOPC  H18T20299   6.558   1.009  14.802 -0.4103  0.4952  1.8810
  167DOPC   C3320300   5.959   0.907  16.481 -0.2647  0.4647  0.3364
  167DOPC   H3X20301   5.907   0.838  16.550  0.2544 -0.6231 -0.3449
  167DOPC   H3Y20302   6.061   0.868  16.459 -0.6574  0.1419 -1.0007
  167DOPC   C3420303   5.867   0.926  16.358  0.1521 -0.0691 -0.0968
  167DOPC   H4X20304   5.916   1.000  16.292 -0.1585 -1.3793 -1.8652
  167DOPC   H4Y20305   5.769   0.962  16.396  0.5032  0.7778  0.0414
  167DOPC   C3520306   5.858   0.789  16.286  0.0926 -0.5138 -0.2573
  167DOPC   H5X20307   5.811   0.712  16.350  0.4746 -1.0505 -0.6124
  167DOPC   H5Y20308   5.959   0.743  16.279  0.6590  0.8594 -1.9398
  167DOPC   C3620309   5.793   0.790  16.144 -0.6071 -0.0216  0.0150
  167DOPC   H6X20310   5.684   0.812  16.143 -0.8160 -1.0104  0.1861
  167DOPC   H6Y20311   5.829   0.868  16.074 -0.3953 -0.4179 -0.3251
  167DOPC   C3720312   5.796   0.650  16.080 -0.1819 -0.7772  0.0982
  167DOPC   H7X20313   5.896   0.603  16.096  1.2944  2.1797  0.2806
  167DOPC   H7Y20314   5.721   0.583  16.127 -1.6799  0.4645 -0.4295
  167DOPC   C3820315   5.771   0.649  15.935 -1.1024 -0.2159 -0.2010
  167DOPC   H8X20316   5.759   0.542  15.907  0.5375 -0.4213 -0.2287
  167DOPC   H8Y20317   5.865   0.685  15.888 -0.2906 -1.6878  0.2212
  167DOPC   C3920318   5.648   0.729  15.886 -0.7247 -0.3804  0.7967
  167DOPC   H9X20319   5.561   0.699  15.945 -1.8711  0.3910 -0.4362
  167DOPC  C31020320   5.642   0.834  15.799  0.0876 -0.2085  0.6333
  167DOPC  H10X20321   5.542   0.874  15.779  1.1028  2.0261 -0.2288
  167DOPC  C31120322   5.759   0.889  15.718  0.0596 -0.5965  0.2424
  167DOPC  H11X20323   5.857   0.881  15.770  0.2506 -0.8202 -0.1414
  167DOPC  H11Y20324   5.755   1.000  15.721  2.2149 -0.4900  0.6020
  167DOPC  C31220325   5.781   0.825  15.583 -0.1538  0.3693  1.0989
  167DOPC  H12X20326   5.686   0.820  15.527  1.5363 -0.4083 -1.9367
  167DOPC  H12Y20327   5.814   0.719  15.593 -0.1372  0.0841 -1.3949
  167DOPC  C31320328   5.882   0.880  15.481  0.0940  0.0107  0.6856
  167DOPC  H13X20329   5.860   0.988  15.469  0.5376  0.1488  1.0774
  167DOPC  H13Y20330   5.983   0.869  15.526  0.8848  1.2839 -0.7159
  167DOPC  C31420331   5.876   0.791  15.358  0.0918 -0.0560  0.1348
  167DOPC  H14X20332   5.979   0.794  15.317 -0.1328  2.3058 -0.4384
  167DOPC  H14Y20333   5.860   0.685  15.387  0.9074 -0.3531 -0.4647
  167DOPC  C31520334   5.779   0.839  15.247  0.3528 -0.0502  0.4129
  167DOPC  H15X20335   5.815   0.933  15.199  1.2812 -1.4311 -1.7966
  167DOPC  H15Y20336   5.680   0.864  15.290 -1.2679 -0.8075 -2.5515
  167DOPC  C31620337   5.744   0.727  15.146  0.6742 -0.4841  0.9220
  167DOPC  H16X20338   5.828   0.680  15.090  1.1009  0.3150  0.8737
  167DOPC  H16Y20339   5.687   0.650  15.202 -0.0985  0.4097  1.4014
  167DOPC  C31720340   5.647   0.778  15.037  0.6019  0.3866  0.7201
  167DOPC  H17X20341   5.552   0.821  15.077  1.2965  0.5383  2.2944
  167DOPC  H17Y20342   5.694   0.861  14.981  2.0761 -0.4499  0.6873
  167DOPC  C31820343   5.597   0.671  14.943  0.1850  0.0356  0.0858
  167DOPC  H18X20344   5.559   0.705  14.845 -0.5482  0.2402  0.4359
  167DOPC  H18Y20345   5.680   0.600  14.920 -0.9950 -0.7834 -1.8796
  167DOPC  H18Z20346   5.527   0.604  14.998  2.1509 -0.4902  2.0962
  168DOPC     N20347   0.570   6.132  16.884  0.5365  0.3356 -0.0348
  168DOPC   C1220348   0.583   6.108  17.033  0.3745 -0.2539 -0.0318
  168DOPC  H12A20349   0.611   6.004  17.043  3.0370  0.0121 -3.1036
  168DOPC  H12B20350   0.491   6.127  17.086  1.5354  0.8539  1.6654
  168DOPC   C1320351   0.563   6.279  16.857 -0.3828  0.2512  0.1105
  168DOPC  H13A20352   0.654   6.336  16.869  0.4627 -0.9041 -0.5680
  168DOPC  H13B20353   0.544   6.288  16.751  0.8878 -1.2539 -0.2820
  168DOPC  H13C20354   0.482   6.330  16.906 -0.8452  0.6112 -0.9887
  168DOPC   C1420355   0.448   6.059  16.821 -0.4905  0.7173 -0.4712
  168DOPC  H14A20356   0.427   6.105  16.726 -2.4989 -0.3284 -0.5956
  168DOPC  H14B20357   0.474   5.958  16.795  0.9934  1.0802 -0.4872
  168DOPC  H14C20358   0.358   6.056  16.882 -0.1034 -1.4975  0.0980
  168DOPC   C1520359   0.697   6.077  16.817 -0.1731 -0.0508  0.2779
  168DOPC  H15A20360   0.686   6.078  16.709  2.7878  0.3109 -0.1105
  168DOPC  H15B20361   0.724   5.978  16.850  1.7059  0.0237 -0.8903
  168DOPC  H15C20362   0.782   6.140  16.839 -0.5987  0.1832  1.3108
  168DOPC   C1120363   0.694   6.191  17.102  0.7419  0.0549  0.1896
  168DOPC  H11A20364   0.676   6.299  17.085  3.8399  0.7348  0.6396
  168DOPC  H11B20365   0.664   6.184  17.208 -0.8884  0.9981 -0.1710
  168DOPC     P20366   0.952   6.234  17.119 -0.1182  0.4165  0.2470
  168DOPC   O1320367   0.981   6.188  17.257  0.6080 -0.0599 -0.5027
  168DOPC   O1420368   0.935   6.379  17.097 -0.5748  0.2468 -0.4634
  168DOPC   O1220369   0.832   6.151  17.066  0.2689  0.6768 -0.1728
  168DOPC   O1120370   1.066   6.185  17.015  0.2281 -0.0389 -0.5792
  168DOPC    C120371   1.190   6.247  16.991 -0.0593 -0.0600  0.6146
  168DOPC    HA20372   1.264   6.172  16.956 -1.0026 -1.6789  1.9706
  168DOPC    HB20373   1.236   6.277  17.087  2.8989  0.6879 -0.9049
  168DOPC    C220374   1.187   6.363  16.897  0.1746  0.4431 -0.0203
  168DOPC    HS20375   1.098   6.428  16.915  1.1743  1.6601  0.7413
  168DOPC   O2120376   1.186   6.301  16.764 -0.8140 -0.1848 -0.5555
  168DOPC   C2120377   1.057   6.287  16.719 -0.0083  0.6512  0.8744
  168DOPC   O2220378   0.952   6.302  16.779 -0.0897  0.1550 -0.3436
  168DOPC   C2220379   1.057   6.258  16.573 -0.3088 -0.5154  0.7676
  168DOPC   H2R20380   1.102   6.157  16.556 -1.7805 -0.9439 -0.7998
  168DOPC   H2S20381   1.111   6.343  16.527 -0.3863 -0.3541  0.9726
  168DOPC    C320382   1.314   6.459  16.908  0.1885 -0.2047 -0.0355
  168DOPC    HX20383   1.393   6.381  16.908 -1.0371 -1.5119 -1.4205
  168DOPC    HY20384   1.328   6.506  17.007  1.3891 -0.1617 -0.2033
  168DOPC   O3120385   1.328   6.548  16.794  0.2700  0.2092 -0.3648
  168DOPC   C3120386   1.410   6.645  16.799  0.1472  0.2941  0.0922
  168DOPC   O3220387   1.480   6.674  16.894 -0.3166 -0.1241 -0.3558
  168DOPC   C3220388   1.408   6.722  16.662  0.3712  0.3761  0.2382
  168DOPC   H2X20389   1.323   6.795  16.661 -0.6598 -0.8035 -0.7460
  168DOPC   H2Y20390   1.512   6.758  16.650  0.3145 -0.1993 -2.2994
  168DOPC   C2320391   0.922   6.246  16.499 -0.2084  0.3696  0.6394
  168DOPC   H3R20392   0.873   6.346  16.495 -0.8095  0.0485 -0.2402
  168DOPC   H3S20393   0.856   6.179  16.558 -0.4695 -0.1998 -0.2748
  168DOPC   C2420394   0.922   6.177  16.360 -0.2009 -0.5633 -0.1285
  168DOPC   H4R20395   0.817   6.181  16.324 -0.2457  1.3896  0.1349
  168DOPC   H4S20396   0.951   6.069  16.364  1.5006 -0.1440 -0.2086
  168DOPC   C2520397   1.018   6.261  16.269  0.8837  0.3160  0.1745
  168DOPC   H5R20398   1.116   6.277  16.317  1.1260 -0.4195 -0.0467
  168DOPC   H5S20399   0.967   6.359  16.257 -0.6826 -0.4439  0.3382
  168DOPC   C2620400   1.028   6.202  16.119 -0.0040 -0.4069  0.5342
  168DOPC   H6R20401   0.929   6.190  16.071  0.1945  0.1466 -0.0331
  168DOPC   H6S20402   1.085   6.107  16.117 -0.4299 -0.6770 -1.9936
  168DOPC   C2720403   1.091   6.307  16.028  0.3015 -0.1354 -0.0149
  168DOPC   H7R20404   1.196   6.310  16.065  0.0044 -0.3994  0.8877
  168DOPC   H7S20405   1.037   6.404  16.038  1.7855  0.7787 -0.4826
  168DOPC   C2820406   1.108   6.253  15.882 -0.2752  0.4270 -0.1457
  168DOPC   H8R20407   1.007   6.216  15.857 -0.8547  0.2715  2.2196
  168DOPC   H8S20408   1.169   6.161  15.876  2.5509  2.2245 -1.1349
  168DOPC   C2920409   1.159   6.350  15.781  0.0685  0.4788 -0.4711
  168DOPC   H9R20410   1.238   6.417  15.818  1.4066  0.4886 -3.0582
  168DOPC  C21020411   1.108   6.366  15.654  0.0686 -0.0632 -0.5327
  168DOPC  H10R20412   1.152   6.433  15.579 -0.3958  0.3328 -0.4590
  168DOPC  C21120413   0.995   6.271  15.602 -0.2112 -0.4290 -0.7887
  168DOPC  H11R20414   0.899   6.304  15.647  1.4114  1.4730  1.6053
  168DOPC  H11S20415   1.019   6.171  15.643 -0.2949 -0.0660  0.1818
  168DOPC  C21220416   1.005   6.292  15.449  0.7890  0.6632 -0.3983
  168DOPC  H12R20417   1.103   6.258  15.408  0.2352 -3.1383  1.0102
  168DOPC  H12S20418   0.982   6.397  15.420  0.4298  0.5705 -0.4402
  168DOPC  C21320419   0.898   6.214  15.371 -0.1550  0.0967 -0.1261
  168DOPC  H13R20420   0.791   6.240  15.386 -0.1559 -0.6725  1.3735
  168DOPC  H13S20421   0.901   6.104  15.384 -0.4154 -0.2264 -2.3478
  168DOPC  C21420422   0.909   6.240  15.217  0.3615 -0.0124  0.2972
  168DOPC  H14R20423   1.016   6.260  15.192  0.1910  1.1461  0.4858
  168DOPC  H14S20424   0.856   6.335  15.199  0.2835 -0.0372  0.3945
  168DOPC  C21520425   0.861   6.124  15.133  0.2110 -0.6552  0.4158
  168DOPC  H15R20426   0.753   6.112  15.156  0.3406 -0.1943  1.2941
  168DOPC  H15S20427   0.907   6.026  15.155  0.2726 -0.7800 -0.2246
  168DOPC  C21620428   0.892   6.135  14.981 -0.1178 -0.1479  0.4875
  168DOPC  H16R20429   0.840   6.057  14.922  1.3751  0.3195 -1.5752
  168DOPC  H16S20430   0.999   6.117  14.956  0.0326  1.2703  0.0169
  168DOPC  C21720431   0.863   6.272  14.920 -0.0195 -0.6522 -0.3564
  168DOPC  H17R20432   0.927   6.354  14.959  0.3327 -2.4790  3.3616
  168DOPC  H17S20433   0.758   6.291  14.953  0.9096  2.3712  1.2052
  168DOPC  C21820434   0.877   6.267  14.766  0.1135 -0.0487 -0.4972
  168DOPC  H18R20435   0.865   6.370  14.724 -0.1550 -0.6597 -2.0088
  168DOPC  H18S20436   0.796   6.203  14.725 -0.3210 -0.1127  0.4420
  168DOPC  H18T20437   0.978   6.229  14.740  0.3205  1.1571 -1.5883
  168DOPC   C3320438   1.376   6.618  16.554  0.1529  0.5008 -0.1334
  168DOPC   H3X20439   1.280   6.565  16.574 -0.8218  1.5045 -1.8701
  168DOPC   H3Y20440   1.455   6.541  16.547 -0.4217 -0.2588  1.3017
  168DOPC   C3420441   1.358   6.695  16.428 -0.3565  0.1662  0.0571
  168DOPC   H4X20442   1.447   6.758  16.411  0.6947 -1.3482 -0.2414
  168DOPC   H4Y20443   1.287   6.780  16.440  0.3325  0.4927  2.1336
  168DOPC   C3520444   1.332   6.612  16.306 -0.1218 -0.9416 -0.0027
  168DOPC   H5X20445   1.230   6.645  16.275  0.6818  1.5308 -0.2284
  168DOPC   H5Y20446   1.332   6.502  16.324  1.0928 -1.0630 -0.6060
  168DOPC   C3620447   1.429   6.641  16.193 -0.0136 -0.1715  0.8063
  168DOPC   H6X20448   1.454   6.749  16.191  0.6096 -0.2774 -1.8900
  168DOPC   H6Y20449   1.526   6.588  16.208  1.2081  1.0969 -1.9692
  168DOPC   C3720450   1.371   6.586  16.064 -0.0478  0.1187 -0.3578
  168DOPC   H7X20451   1.366   6.476  16.081  0.3806 -0.0373 -1.1462
  168DOPC   H7Y20452   1.269   6.626  16.051 -0.9508 -1.8524  0.2081
  168DOPC   C3820453   1.457   6.623  15.941  0.0941 -0.3574  0.5379
  168DOPC   H8X20454   1.417   6.582  15.846  2.0251  1.2741 -1.0652
  168DOPC   H8Y20455   1.555   6.573  15.959  0.2644 -0.2782 -0.1491
  168DOPC   C3920456   1.481   6.768  15.913  0.5498 -0.2714  1.0190
  168DOPC   H9X20457   1.575   6.811  15.949  1.4455 -0.6444 -0.7591
  168DOPC  C31020458   1.400   6.842  15.842 -0.0265  0.5135  0.5896
  168DOPC  H10X20459   1.444   6.941  15.822  1.2574  0.2840  2.0768
  168DOPC  C31120460   1.271   6.802  15.782 -0.9505 -0.0585 -0.1173
  168DOPC  H11X20461   1.194   6.875  15.814  0.7671  2.1828 -0.7783
  168DOPC  H11Y20462   1.234   6.705  15.821 -2.7238 -0.2737 -2.1787
  168DOPC  C31220463   1.269   6.781  15.624  0.3593  0.7928 -0.0313
  168DOPC  H12X20464   1.291   6.875  15.569  1.7449  0.6838  0.3031
  168DOPC  H12Y20465   1.171   6.741  15.591 -0.0421  0.3385  1.6059
  168DOPC  C31320466   1.356   6.665  15.579  0.0335 -0.5138 -0.3655
  168DOPC  H13X20467   1.460   6.704  15.574 -0.3925  1.0025  1.4384
  168DOPC  H13Y20468   1.344   6.578  15.647 -2.4837 -0.1537 -0.2578
  168DOPC  C31420469   1.336   6.612  15.437  0.2033 -0.2122  0.0726
  168DOPC  H14X20470   1.401   6.526  15.412  0.7930  0.5742 -1.2450
  168DOPC  H14Y20471   1.233   6.572  15.430  0.1493 -0.1768  0.5793
  168DOPC  C31520472   1.353   6.714  15.329  0.0374  0.1779 -0.4864
  168DOPC  H15X20473   1.456   6.754  15.335  0.3587 -0.5084 -1.2565
  168DOPC  H15Y20474   1.288   6.803  15.346 -0.1169  0.3325 -1.7293
  168DOPC  C31620475   1.312   6.676  15.192  0.1327  0.4022  0.3135
  168DOPC  H16X20476   1.404   6.638  15.144 -1.4818 -1.2120 -1.6615
  168DOPC  H16Y20477   1.240   6.592  15.189  0.7120 -0.0708 -0.3889
  168DOPC  C31720478   1.250   6.797  15.113  0.0497 -0.7556 -0.7204
  168DOPC  H17X20479   1.169   6.832  15.181  0.5551 -1.7190  0.4078
  168DOPC  H17Y20480   1.319   6.884  15.113 -1.6451  0.6923  1.3406
  168DOPC  C31820481   1.219   6.761  14.965 -0.0649 -0.0160  0.2100
  168DOPC  H18X20482   1.122   6.707  14.963  0.2874 -0.6371 -0.1307
  168DOPC  H18Y20483   1.203   6.848  14.897 -1.7573 -1.0579 -0.8006
  168DOPC  H18Z20484   1.297   6.699  14.916  0.4392  0.6645  0.1315
  169DOPC     N20485   0.401   6.686  17.443  0.0982  0.5725  0.2580
  169DOPC   C1220486   0.490   6.680  17.324  0.3220  0.2261  0.2476
  169DOPC  H12A20487   0.593   6.676  17.357  0.5483  0.4307 -0.4118
  169DOPC  H12B20488   0.480   6.777  17.276 -2.8606 -0.6846 -1.1552
  169DOPC   C1320489   0.410   6.549  17.507 -0.0705  0.4827  0.1718
  169DOPC  H13A20490   0.392   6.477  17.428 -0.0524 -0.5155  1.0484
  169DOPC  H13B20491   0.506   6.531  17.552  1.2562  3.8886 -1.0282
  169DOPC  H13C20492   0.324   6.539  17.571 -1.1236 -1.3905 -1.4271
  169DOPC   C1420493   0.260   6.715  17.412  0.4794  0.4201  0.0495
  169DOPC  H14A20494   0.225   6.656  17.329  0.2241  0.1380  0.3588
  169DOPC  H14B20495   0.200   6.693  17.498  0.8922 -1.7796 -0.1658
  169DOPC  H14C20496   0.251   6.812  17.365  0.1169 -0.4116 -1.6967
  169DOPC   C1520497   0.453   6.786  17.529 -0.6684 -0.0850  0.2199
  169DOPC  H15A20498   0.458   6.884  17.484  1.4983 -0.8311 -1.3513
  169DOPC  H15B20499   0.558   6.773  17.548 -0.9375 -1.4320  0.8849
  169DOPC  H15C20500   0.396   6.797  17.620 -3.6617 -0.1324 -1.5314
  169DOPC   C1120501   0.473   6.571  17.214  0.6798 -0.7080  0.9260
  169DOPC  H11A20502   0.564   6.554  17.152  0.1148  1.5945 -0.6295
  169DOPC  H11B20503   0.453   6.470  17.256  1.2298 -1.3215 -0.2612
  169DOPC     P20504   0.328   6.524  17.015  0.3107  0.2247  0.4854
  169DOPC   O1320505   0.211   6.586  16.952  0.3119  0.3185  0.2445
  169DOPC   O1420506   0.320   6.379  17.038  0.3325  0.3123  0.0877
  169DOPC   O1220507   0.366   6.613  17.133 -0.3818 -0.2890 -0.1198
  169DOPC   O1120508   0.463   6.561  16.932 -0.1058 -0.7650  0.0903
  169DOPC    C120509   0.490   6.702  16.907 -0.3757 -0.7631 -0.4899
  169DOPC    HA20510   0.599   6.720  16.904 -0.4459 -0.2824 -0.1895
  169DOPC    HB20511   0.455   6.770  16.988  0.4098 -0.6510 -0.2453
  169DOPC    C220512   0.435   6.749  16.762  0.4677 -0.1290 -0.1426
  169DOPC    HS20513   0.492   6.842  16.739 -0.7623  0.4508 -0.9429
  169DOPC   O2120514   0.296   6.775  16.763 -0.2250 -0.6124  0.5279
  169DOPC   C2120515   0.257   6.880  16.836 -0.5519  0.4771  0.1178
  169DOPC   O2220516   0.327   6.967  16.883 -0.2760 -0.2033  0.0429
  169DOPC   C2220517   0.111   6.885  16.856  0.6933 -0.7288 -0.3939
  169DOPC   H2R20518   0.094   6.942  16.950  0.0534 -0.4995 -0.6450
  169DOPC   H2S20519   0.077   6.779  16.856 -3.2078  0.3821  0.5781
  169DOPC    C320520   0.467   6.643  16.658  0.4848  0.0379  1.1743
  169DOPC    HX20521   0.395   6.559  16.669 -0.0825  0.5696  1.6518
  169DOPC    HY20522   0.570   6.607  16.679  0.1926 -1.1010  0.7045
  169DOPC   O3120523   0.445   6.718  16.537  0.4441  0.5243 -0.2781
  169DOPC   C3120524   0.331   6.711  16.466  0.1484  0.2841 -0.0190
  169DOPC   O3220525   0.236   6.635  16.483 -0.1987  0.4028 -0.3690
  169DOPC   C3220526   0.356   6.817  16.360 -0.0633 -0.0795 -0.0955
  169DOPC   H2X20527   0.357   6.916  16.411  2.2235 -0.5789  0.9552
  169DOPC   H2Y20528   0.462   6.798  16.333  0.1193  0.8115 -0.0478
  169DOPC   C2320529   0.036   6.958  16.737 -0.1128  0.4842  0.2561
  169DOPC   H3R20530  -0.074   6.943  16.742  0.0344 -0.3100  2.2139
  169DOPC   H3S20531   0.075   6.922  16.640 -0.8882  0.2262  0.0323
  169DOPC   C2420532   0.059   7.112  16.732 -0.0826  0.2497 -0.3659
  169DOPC   H4R20533   0.169   7.112  16.720  0.1544  3.9026  0.5400
  169DOPC   H4S20534   0.038   7.168  16.826 -1.2643  0.4571 -0.7382
  169DOPC   C2520535  -0.004   7.186  16.618 -0.7857 -0.0726 -0.1838
  169DOPC   H5R20536   0.039   7.289  16.612 -0.3782 -0.3323 -3.4362
  169DOPC   H5S20537  -0.111   7.215  16.622 -0.9635 -0.8969  2.0189
  169DOPC   C2620538   0.019   7.122  16.477  0.1167  0.0072 -0.4847
  169DOPC   H6R20539  -0.054   7.041  16.458 -0.5745  0.4516  0.2202
  169DOPC   H6S20540   0.117   7.070  16.473 -0.9569 -2.4161  1.6410
  169DOPC   C2720541   0.012   7.229  16.363 -0.2082  0.0303  0.0204
  169DOPC   H7R20542   0.090   7.304  16.387 -0.4134 -0.0675  1.0223
  169DOPC   H7S20543  -0.089   7.274  16.365 -1.3385 -2.3145  1.6148
  169DOPC   C2820544   0.034   7.163  16.224  0.2857 -0.0871  0.1192
  169DOPC   H8R20545   0.119   7.094  16.244  0.2715 -0.4673 -1.0675
  169DOPC   H8S20546   0.051   7.241  16.147  0.0481  0.7194  0.8693
  169DOPC   C2920547  -0.083   7.079  16.180  1.4662  0.0431  0.2546
  169DOPC   H9R20548  -0.114   6.988  16.233  2.9296 -0.6510 -0.0345
  169DOPC  C21020549  -0.144   7.100  16.059  0.5452  0.1398  0.1719
  169DOPC  H10R20550  -0.227   7.035  16.027 -0.2909  1.2623 -0.0082
  169DOPC  C21120551  -0.099   7.196  15.944  0.0838 -0.0017  0.0798
  169DOPC  H11R20552   0.011   7.203  15.930  0.1615 -0.8605  0.2311
  169DOPC  H11S20553  -0.136   7.299  15.960  0.0084  0.0620 -0.4835
  169DOPC  C21220554  -0.177   7.151  15.818  0.4810 -0.2462  0.0237
  169DOPC  H12R20555  -0.285   7.174  15.815  0.7650  1.0638 -1.3090
  169DOPC  H12S20556  -0.159   7.042  15.817  1.0669 -0.1514 -0.5609
  169DOPC  C21320557  -0.119   7.209  15.687 -0.4671  0.4377 -0.6221
  169DOPC  H13R20558  -0.008   7.203  15.691 -0.2749  2.9097 -0.8142
  169DOPC  H13S20559  -0.141   7.317  15.671 -0.8490  0.6245  1.0348
  169DOPC  C21420560  -0.184   7.143  15.564 -0.0158  0.2553 -0.5156
  169DOPC  H14R20561  -0.288   7.182  15.564  0.3858  1.3996 -0.0364
  169DOPC  H14S20562  -0.183   7.033  15.572 -1.7524  0.2666  0.2956
  169DOPC  C21520563  -0.127   7.183  15.432  0.4772  0.1510  0.8539
  169DOPC  H15R20564  -0.029   7.132  15.425  1.6023  2.0971  1.6349
  169DOPC  H15S20565  -0.113   7.293  15.439  1.0628  0.0534  1.2635
  169DOPC  C21620566  -0.220   7.152  15.314  0.2369  0.2015 -0.3675
  169DOPC  H16R20567  -0.312   7.214  15.319  0.7402  0.9087  0.1831
  169DOPC  H16S20568  -0.235   7.044  15.335  0.0795 -0.0116 -1.5128
  169DOPC  C21720569  -0.159   7.187  15.175 -0.1999  0.1025 -0.9690
  169DOPC  H17R20570  -0.078   7.115  15.150  1.2179  1.6552 -1.0144
  169DOPC  H17S20571  -0.115   7.289  15.175 -1.2407  0.5649 -1.0952
  169DOPC  C21820572  -0.269   7.178  15.077 -0.2050 -0.6320  0.1756
  169DOPC  H18R20573  -0.301   7.072  15.074  2.7284 -1.5920  0.2093
  169DOPC  H18S20574  -0.237   7.203  14.973 -3.0179  1.7248 -0.2774
  169DOPC  H18T20575  -0.349   7.249  15.107  1.2139  1.6147 -1.0693
  169DOPC   C3320576   0.271   6.812  16.237  0.7586 -0.5081  0.1504
  169DOPC   H3X20577   0.186   6.883  16.248  0.1175 -1.3622  0.8606
  169DOPC   H3Y20578   0.233   6.710  16.212 -1.6419  0.7548 -1.8323
  169DOPC   C3420579   0.349   6.869  16.117 -0.1112  0.0358 -0.1576
  169DOPC   H4X20580   0.433   6.802  16.090  0.8590  1.3910 -0.5820
  169DOPC   H4Y20581   0.394   6.964  16.152  0.6670 -0.4773  0.2601
  169DOPC   C3520582   0.253   6.898  16.003  0.1490  0.5189  0.9679
  169DOPC   H5X20583   0.163   6.950  16.041 -2.4885 -1.5991 -1.9075
  169DOPC   H5Y20584   0.216   6.803  15.959  1.9768  0.4133 -0.4936
  169DOPC   C3620585   0.317   6.974  15.891 -0.2666 -0.4964 -0.0780
  169DOPC   H6X20586   0.340   7.079  15.917  2.2430 -0.2432 -2.8101
  169DOPC   H6Y20587   0.410   6.928  15.853 -0.2975 -0.6137 -0.0124
  169DOPC   C3720588   0.217   6.970  15.767  0.4982  0.5203 -0.7503
  169DOPC   H7X20589   0.204   6.867  15.727  0.1712  0.2957 -0.0730
  169DOPC   H7Y20590   0.123   7.001  15.817 -0.2169  1.2901 -2.4750
  169DOPC   C3820591   0.248   7.072  15.655 -0.4751 -0.1029 -0.4442
  169DOPC   H8X20592   0.222   7.172  15.696  0.3400  0.2053 -0.6684
  169DOPC   H8Y20593   0.183   7.054  15.566  1.6237 -3.7226 -1.4532
  169DOPC   C3920594   0.398   7.077  15.627 -0.1870 -0.5319  0.0807
  169DOPC   H9X20595   0.458   7.153  15.679  0.7264 -0.2796 -1.2871
  169DOPC  C31020596   0.464   6.999  15.538 -0.1326  0.4515 -0.0083
  169DOPC  H10X20597   0.571   7.012  15.518  0.1621 -0.1575  1.0886
  169DOPC  C31120598   0.422   6.882  15.449 -0.1108 -0.5354  0.2729
  169DOPC  H11X20599   0.323   6.836  15.467  0.3661 -0.5931  3.3277
  169DOPC  H11Y20600   0.498   6.801  15.447  0.2779 -0.2171  1.3640
  169DOPC  C31220601   0.429   6.937  15.300 -0.4350 -0.2187 -0.2175
  169DOPC  H12X20602   0.395   6.850  15.239  0.2062  0.0398 -0.9593
  169DOPC  H12Y20603   0.533   6.970  15.277 -0.7788  0.9039 -0.2347
  169DOPC  C31320604   0.332   7.058  15.273 -0.2596  0.3651 -0.3696
  169DOPC  H13X20605   0.232   7.013  15.291  0.1443 -0.6614 -0.5972
  169DOPC  H13Y20606   0.346   7.142  15.344  0.0868 -0.2119  0.2527
  169DOPC  C31420607   0.340   7.106  15.126 -0.1529  0.0641 -0.0597
  169DOPC  H14X20608   0.333   7.024  15.052  0.3830 -0.3993  0.3932
  169DOPC  H14Y20609   0.249   7.164  15.101 -2.0674 -2.7555  0.0118
  169DOPC  C31520610   0.468   7.185  15.099 -0.3642  0.0300 -0.4257
  169DOPC  H15X20611   0.556   7.120  15.118  0.0011  1.1208  2.0754
  169DOPC  H15Y20612   0.489   7.266  15.172 -0.1773 -1.7486  1.5913
  169DOPC  C31620613   0.486   7.266  14.969 -0.3651 -0.6605  0.3274
  169DOPC  H16X20614   0.415   7.226  14.893 -0.4530  0.3805 -0.1715
  169DOPC  H16Y20615   0.449   7.369  14.990  2.2384  0.0716  1.8076
  169DOPC  C31720616   0.636   7.270  14.939  0.8158 -0.5451 -0.0301
  169DOPC  H17X20617   0.690   7.305  15.030 -0.4738 -2.4779  1.5428
  169DOPC  H17Y20618   0.664   7.164  14.923 -0.7439 -1.2478  1.6188
  169DOPC  C31820619   0.678   7.353  14.814  0.2362 -0.4369  0.2406
  169DOPC  H18X20620   0.643   7.458  14.827  0.2642 -0.3278 -0.5293
  169DOPC  H18Y20621   0.788   7.355  14.802  0.1252  2.0479 -1.0477
  169DOPC  H18Z20622   0.628   7.311  14.725 -1.6989  1.9625  0.0812
  170DOPC     N20623   6.178   5.143  17.075 -0.4897  0.4997  0.2587
  170DOPC   C1220624   6.064   5.198  16.997 -0.1933 -0.8069  0.4233
  170DOPC  H12A20625   5.976   5.186  17.058 -1.5059 -3.7067 -1.8303
  170DOPC  H12B20626   6.035   5.145  16.908  0.1594  1.2851 -1.0136
  170DOPC   C1320627   6.204   5.234  17.195  0.0183 -0.1699 -0.0622
  170DOPC  H13A20628   6.297   5.216  17.247 -0.0141 -2.9343 -0.8254
  170DOPC  H13B20629   6.203   5.334  17.155  1.9611 -1.2107 -2.9940
  170DOPC  H13C20630   6.126   5.221  17.269  0.0956  1.3649  0.3184
  170DOPC   C1420631   6.299   5.135  16.989  0.1996  0.2032 -0.4611
  170DOPC  H14A20632   6.314   5.218  16.922 -0.2232 -0.4411 -1.3692
  170DOPC  H14B20633   6.382   5.131  17.059 -0.3810  1.6516  0.3487
  170DOPC  H14C20634   6.290   5.045  16.931 -1.5092 -0.6996  1.1197
  170DOPC   C1520635   6.140   5.009  17.128 -0.0349  0.0844  0.8566
  170DOPC  H15A20636   6.120   4.935  17.052  1.3691 -0.5317  1.0442
  170DOPC  H15B20637   6.060   5.005  17.201 -1.2447 -1.2999 -0.4643
  170DOPC  H15C20638   6.220   4.966  17.187  0.6740 -2.1876 -1.5536
  170DOPC   C1120639   6.064   5.353  16.952 -0.2190  0.1586  0.2066
  170DOPC  H11A20640   6.165   5.374  16.910  0.3282 -1.7598  0.4862
  170DOPC  H11B20641   5.982   5.360  16.877 -1.7030 -0.9282  1.6634
  170DOPC     P20642   6.090   5.588  17.059 -0.2388  0.0119  0.0624
  170DOPC   O1320643   6.227   5.585  17.123  0.4831 -0.1598  0.5412
  170DOPC   O1420644   5.990   5.671  17.128  0.0208  0.2565 -0.2034
  170DOPC   O1220645   6.040   5.430  17.067  0.4671 -0.0348  0.2996
  170DOPC   O1120646   6.093   5.622  16.906  0.3090  0.1184  0.3008
  170DOPC    C120647   5.980   5.649  16.828 -1.3142 -0.2562 -0.3673
  170DOPC    HA20648   5.949   5.746  16.873 -0.2501 -0.4712  0.8771
  170DOPC    HB20649   5.900   5.572  16.836 -2.1904  0.7361  0.6663
  170DOPC    C220650   6.008   5.671  16.679  0.2691  0.6238 -0.6346
  170DOPC    HS20651   6.064   5.765  16.663  1.7953 -0.4510 -1.9135
  170DOPC   O2120652   5.887   5.666  16.604  0.0740  0.0856  0.1352
  170DOPC   C2120653   5.807   5.762  16.624  0.0002  0.0208  0.2266
  170DOPC   O2220654   5.815   5.860  16.691  0.4747  0.2118 -0.2077
  170DOPC   C2220655   5.705   5.755  16.509 -0.4040  0.0340 -0.3716
  170DOPC   H2R20656   5.621   5.822  16.536  0.4857  0.8169  0.5019
  170DOPC   H2S20657   5.666   5.651  16.505  2.4103 -1.1114 -0.7776
  170DOPC    C320658   6.108   5.566  16.622 -0.3784 -0.5173  0.2554
  170DOPC    HX20659   6.055   5.469  16.633 -2.6084  0.6898  0.9173
  170DOPC    HY20660   6.203   5.586  16.676 -0.5510  1.4284 -0.0574
  170DOPC   O3120661   6.147   5.599  16.483 -0.2159 -0.0505  0.0514
  170DOPC   C3120662   6.245   5.529  16.436  0.0912 -0.7766  0.1407
  170DOPC   O3220663   6.310   5.455  16.499 -0.5797 -0.5260  0.0572
  170DOPC   C3220664   6.244   5.538  16.280 -0.1769 -0.3662  0.3029
  170DOPC   H2X20665   6.246   5.438  16.231  0.8524  0.1250 -0.7236
  170DOPC   H2Y20666   6.150   5.582  16.240  0.1857 -1.0478 -1.4054
  170DOPC   C2320667   5.755   5.797  16.372 -0.2932 -0.2546  0.0328
  170DOPC   H3R20668   5.849   5.740  16.357  0.5346  0.0160  3.3605
  170DOPC   H3S20669   5.796   5.900  16.366  0.7643 -0.6255  0.6522
  170DOPC   C2420670   5.655   5.794  16.260 -0.2303 -0.1849 -0.3943
  170DOPC   H4R20671   5.592   5.885  16.265  0.2059  0.1405 -0.7526
  170DOPC   H4S20672   5.593   5.702  16.269 -0.2295 -0.2540 -1.0783
  170DOPC   C2520673   5.718   5.818  16.128 -0.4263  0.4484  0.6779
  170DOPC   H5R20674   5.790   5.737  16.104  0.3491  1.5257 -0.7743
  170DOPC   H5S20675   5.768   5.916  16.132  0.7173 -0.0673 -0.3262
  170DOPC   C2620676   5.621   5.822  16.003 -0.0904  0.0802 -0.0386
  170DOPC   H6R20677   5.551   5.908  16.006 -1.9392 -1.3864  1.1713
  170DOPC   H6S20678   5.563   5.727  15.993 -1.9105  1.2751 -1.5788
  170DOPC   C2720679   5.704   5.837  15.865 -0.3303 -0.3648 -0.1607
  170DOPC   H7R20680   5.786   5.762  15.863  0.8099  0.8139 -2.5627
  170DOPC   H7S20681   5.742   5.941  15.862 -1.0502 -0.1179 -2.1566
  170DOPC   C2820682   5.623   5.811  15.736 -0.6628 -0.7357  0.0421
  170DOPC   H8R20683   5.538   5.882  15.732  0.4824  0.7281  0.6221
  170DOPC   H8S20684   5.588   5.706  15.736 -1.6331 -0.4247 -0.1281
  170DOPC   C2920685   5.711   5.829  15.613  0.2298  0.2296 -0.5349
  170DOPC   H9R20686   5.807   5.778  15.630 -1.4082 -2.9673 -0.0930
  170DOPC  C21020687   5.680   5.886  15.496 -0.5652  0.1681  0.7274
  170DOPC  H10R20688   5.750   5.873  15.413 -1.1280 -0.5531  0.3467
  170DOPC  C21120689   5.547   5.956  15.458 -1.0373 -0.2814  0.8924
  170DOPC  H11R20690   5.565   6.065  15.441  0.7525 -0.5363  0.9078
  170DOPC  H11S20691   5.474   5.953  15.541 -0.3047 -0.3724  1.5508
  170DOPC  C21220692   5.482   5.884  15.338 -0.2849  0.0919  0.1702
  170DOPC  H12R20693   5.381   5.928  15.324 -0.6673 -1.4419 -2.6237
  170DOPC  H12S20694   5.462   5.776  15.358  0.3875 -0.0046  0.3399
  170DOPC  C21320695   5.558   5.906  15.206 -0.1269  0.4514  0.1926
  170DOPC  H13R20696   5.655   5.854  15.214 -0.1264  0.3475 -0.4594
  170DOPC  H13S20697   5.556   6.015  15.182 -1.5283  0.3027 -0.4616
  170DOPC  C21420698   5.486   5.838  15.086 -0.1635  0.0398 -0.2400
  170DOPC  H14R20699   5.378   5.866  15.081  0.0412  1.1804  1.2255
  170DOPC  H14S20700   5.485   5.729  15.110 -0.2169  0.4295  1.6746
  170DOPC  C21520701   5.549   5.862  14.946  0.3663  0.1751  0.1153
  170DOPC  H15R20702   5.658   5.841  14.956  0.0823 -0.5606  2.5424
  170DOPC  H15S20703   5.528   5.969  14.928  1.4542  0.7988  2.1672
  170DOPC  C21620704   5.486   5.770  14.835 -0.6655  0.3832  0.3314
  170DOPC  H16R20705   5.376   5.779  14.840 -0.6306  2.2154 -1.0601
  170DOPC  H16S20706   5.510   5.663  14.848  0.9253  0.7785  0.9285
  170DOPC  C21720707   5.531   5.806  14.687  0.2589 -0.1693 -0.0548
  170DOPC  H17R20708   5.548   5.915  14.686 -1.2376  0.0817 -0.8355
  170DOPC  H17S20709   5.448   5.794  14.615 -0.7603 -1.0865  1.2200
  170DOPC  C21820710   5.662   5.730  14.639  0.5925 -0.0036  0.1842
  170DOPC  H18R20711   5.634   5.623  14.645 -0.5635  0.3457  1.3094
  170DOPC  H18S20712   5.749   5.753  14.705 -0.4352  2.1376  0.8812
  170DOPC  H18T20713   5.688   5.758  14.534  1.2254  1.3380  0.6660
  170DOPC   C3320714   6.362   5.625  16.241 -0.0272 -0.2636  0.2537
  170DOPC   H3X20715   6.459   5.582  16.274  0.3299 -1.1767 -1.8255
  170DOPC   H3Y20716   6.351   5.731  16.273  1.1066 -0.3379  0.9395
  170DOPC   C3420717   6.364   5.647  16.087  0.2175 -0.4761 -1.0587
  170DOPC   H4X20718   6.434   5.728  16.057 -0.0068  0.1864  0.1477
  170DOPC   H4Y20719   6.265   5.689  16.058  2.3504  4.1682 -2.5424
  170DOPC   C3520720   6.397   5.522  16.011 -0.6199 -0.3438 -0.0083
  170DOPC   H5X20721   6.357   5.430  16.057 -0.1820 -0.5006  0.0583
  170DOPC   H5Y20722   6.507   5.508  16.011 -0.7101 -1.1237  0.7557
  170DOPC   C3620723   6.344   5.538  15.870 -0.9952  0.0609 -0.0676
  170DOPC   H6X20724   6.338   5.437  15.822  0.5134  0.6463 -1.5963
  170DOPC   H6Y20725   6.237   5.565  15.883 -1.3020 -0.9380 -0.3701
  170DOPC   C3720726   6.425   5.636  15.779 -0.2251  0.1471 -0.4201
  170DOPC   H7X20727   6.445   5.726  15.841 -1.2199  0.7238 -0.9316
  170DOPC   H7Y20728   6.519   5.590  15.740 -0.5341 -1.6298  0.7890
  170DOPC   C3820729   6.349   5.670  15.653  0.7095 -0.2471  0.2033
  170DOPC   H8X20730   6.250   5.707  15.688  1.1651  1.9583 -0.6786
  170DOPC   H8Y20731   6.328   5.582  15.589 -2.7482  1.3357 -1.1185
  170DOPC   C3920732   6.411   5.784  15.570  0.3940  0.3599 -0.6230
  170DOPC   H9X20733   6.461   5.868  15.622 -2.9707  2.0124  0.2507
  170DOPC  C31020734   6.427   5.781  15.436 -0.5374 -0.3858 -0.2568
  170DOPC  H10X20735   6.483   5.862  15.387 -0.9290 -0.4394 -0.8061
  170DOPC  C31120736   6.390   5.676  15.334  0.1756  0.1107 -0.4774
  170DOPC  H11X20737   6.381   5.572  15.370 -1.1920  0.2127 -0.4900
  170DOPC  H11Y20738   6.470   5.683  15.256 -0.4204  2.7698 -0.9606
  170DOPC  C31220739   6.265   5.710  15.258  0.2480 -0.2339  0.1372
  170DOPC  H12X20740   6.259   5.815  15.222 -1.3192 -0.0016  0.9666
  170DOPC  H12Y20741   6.180   5.697  15.329  0.2272 -0.9278 -0.0074
  170DOPC  C31320742   6.252   5.625  15.134 -0.8014 -0.0245 -0.2393
  170DOPC  H13X20743   6.335   5.659  15.069 -0.5083  0.1657  0.2301
  170DOPC  H13Y20744   6.262   5.519  15.167 -2.7427  0.1605  1.1489
  170DOPC  C31420745   6.120   5.652  15.061 -0.3422  0.2317 -0.1973
  170DOPC  H14X20746   6.046   5.629  15.141  0.7966  0.7219  1.0544
  170DOPC  H14Y20747   6.101   5.759  15.041 -3.9386 -0.4911 -1.2713
  170DOPC  C31520748   6.076   5.581  14.934 -0.4149  0.4277 -0.2914
  170DOPC  H15X20749   5.969   5.548  14.932 -0.7592  1.3967  0.9110
  170DOPC  H15Y20750   6.143   5.493  14.924 -0.9590 -0.2318  1.4796
  170DOPC  C31620751   6.102   5.666  14.807  0.1154 -0.2223  0.1044
  170DOPC  H16X20752   6.061   5.767  14.826  2.4048  0.9814 -0.8578
  170DOPC  H16Y20753   6.211   5.688  14.805  0.0834 -0.0749 -0.6648
  170DOPC  C31720754   6.056   5.602  14.673  0.6182  0.0302 -0.4154
  170DOPC  H17X20755   6.105   5.504  14.656 -1.5679 -0.9406 -1.5448
  170DOPC  H17Y20756   5.950   5.574  14.686  0.4830  1.0480  0.7805
  170DOPC  C31820757   6.085   5.678  14.541  0.1789 -0.0115 -0.6017
  170DOPC  H18X20758   6.019   5.767  14.530  2.4049  1.3853 -4.4715
  170DOPC  H18Y20759   6.189   5.716  14.533 -0.7175  2.4992 -1.1019
  170DOPC  H18Z20760   6.059   5.613  14.454  0.8176  1.2690 -1.7924
  171DOPC     N20761   3.840   2.331  11.448  0.5683  0.1901 -0.3712
  171DOPC   C1220762   3.795   2.403  11.572  0.8417 -0.6339  0.6665
  171DOPC  H12A20763   3.697   2.444  11.551  0.8606 -0.5283  0.7812
  171DOPC  H12B20764   3.861   2.488  11.583  0.8104 -0.6281  0.8068
  171DOPC   C1320765   3.954   2.251  11.486 -0.0498  0.0337  0.2417
  171DOPC  H13A20766   4.036   2.295  11.541  0.1088 -1.9445  1.6863
  171DOPC  H13B20767   3.913   2.164  11.535 -2.8688  0.3847 -1.2674
  171DOPC  H13C20768   4.004   2.216  11.397 -2.5892 -2.2607 -0.4349
  171DOPC   C1420769   3.866   2.418  11.335 -0.3901 -0.3477 -0.1021
  171DOPC  H14A20770   3.863   2.368  11.240 -1.8006 -0.0739 -0.2255
  171DOPC  H14B20771   3.784   2.486  11.315  0.8207  0.3415 -3.1738
  171DOPC  H14C20772   3.964   2.464  11.343  0.2493 -1.9035  1.6930
  171DOPC   C1520773   3.728   2.241  11.408 -0.3578  0.3145 -0.4611
  171DOPC  H15A20774   3.678   2.195  11.491 -0.4049 -3.6991 -2.4952
  171DOPC  H15B20775   3.763   2.162  11.344 -0.5813 -2.1351  2.2539
  171DOPC  H15C20776   3.652   2.304  11.363 -0.6199  1.2237  1.1876
  171DOPC   C1120777   3.779   2.322  11.704  0.1424  0.1615  0.2917
  171DOPC  H11A20778   3.869   2.275  11.749  1.0357  1.8753  0.3744
  171DOPC  H11B20779   3.761   2.395  11.787 -0.8890 -0.7152  0.8575
  171DOPC     P20780   3.524   2.272  11.756  0.2615  0.1981 -0.1113
  171DOPC   O1320781   3.422   2.169  11.727 -0.0291 -0.2074 -0.0544
  171DOPC   O1420782   3.502   2.415  11.721  0.0700 -0.1914 -0.0577
  171DOPC   O1220783   3.672   2.227  11.699 -0.5644 -0.3718  0.2784
  171DOPC   O1120784   3.531   2.271  11.912 -0.2361  0.8639  0.4575
  171DOPC    C120785   3.643   2.224  11.988 -0.5654  0.0960 -0.6844
  171DOPC    HA20786   3.737   2.278  11.964  2.3586 -3.1903  2.2211
  171DOPC    HB20787   3.668   2.121  11.953  1.1725  0.7845 -1.5844
  171DOPC    C220788   3.621   2.231  12.137 -0.0771  0.1780  0.0528
  171DOPC    HS20789   3.721   2.213  12.181 -1.2359 -0.4740  2.5971
  171DOPC   O2120790   3.525   2.137  12.185  0.3791 -0.0993  0.2828
  171DOPC   C2120791   3.561   2.012  12.187  0.1671 -0.4123  0.2552
  171DOPC   O2220792   3.673   1.960  12.170 -0.0555 -0.0372  0.2109
  171DOPC   C2220793   3.447   1.928  12.233  0.4732  0.1337  0.0860
  171DOPC   H2R20794   3.488   1.825  12.233 -0.9484 -0.4695  0.8751
  171DOPC   H2S20795   3.367   1.942  12.158  0.1089  1.1738  0.6429
  171DOPC    C320796   3.583   2.382  12.179 -0.5002  0.2978  0.0629
  171DOPC    HX20797   3.505   2.418  12.108  0.9586  0.8441 -1.3352
  171DOPC    HY20798   3.675   2.440  12.154  0.6589 -1.2939  0.4174
  171DOPC   O3120799   3.530   2.392  12.319  0.6254 -1.1118  0.1872
  171DOPC   C3120800   3.610   2.396  12.411 -0.2132 -0.6101  0.0292
  171DOPC   O3220801   3.732   2.389  12.402 -0.1334  0.0970 -0.2698
  171DOPC   C3220802   3.534   2.432  12.537  0.3994  0.1045  0.1860
  171DOPC   H2X20803   3.480   2.528  12.520 -1.6306 -1.4043 -2.5874
  171DOPC   H2Y20804   3.450   2.360  12.547 -0.0805  0.5085 -0.8089
  171DOPC   C2320805   3.402   1.965  12.378 -0.3168  0.2067  0.0992
  171DOPC   H3R20806   3.314   1.902  12.404  1.1084 -1.3127  1.5266
  171DOPC   H3S20807   3.374   2.072  12.385  0.7741  0.4643  0.8847
  171DOPC   C2420808   3.504   1.930  12.492 -0.3536  0.3621  0.1568
  171DOPC   H4R20809   3.605   1.968  12.466  0.5474 -1.3375  0.9774
  171DOPC   H4S20810   3.511   1.819  12.504 -2.4045  0.3002  1.1620
  171DOPC   C2520811   3.457   1.993  12.628  0.1275 -0.0659 -0.5704
  171DOPC   H5R20812   3.384   1.919  12.669  0.8692 -2.5942 -3.4517
  171DOPC   H5S20813   3.403   2.086  12.600  0.7581 -0.1008 -1.9727
  171DOPC   C2620814   3.554   2.022  12.741 -0.3117 -0.1997 -0.5414
  171DOPC   H6R20815   3.638   2.091  12.716 -0.6247  0.5174  0.3132
  171DOPC   H6S20816   3.586   1.922  12.777  2.5583  1.2601  1.3413
  171DOPC   C2720817   3.472   2.087  12.863  0.5281  0.5111  0.0525
  171DOPC   H7R20818   3.366   2.069  12.837 -0.3312  1.7535  2.4087
  171DOPC   H7S20819   3.491   2.197  12.857  0.1569  0.5006 -1.9106
  171DOPC   C2820820   3.483   2.019  12.996  0.7424  0.9681 -0.5275
  171DOPC   H8R20821   3.461   1.911  12.985 -0.0015  1.1491 -0.9198
  171DOPC   H8S20822   3.401   2.070  13.051 -0.1244 -0.7089 -0.1909
  171DOPC   C2920823   3.620   2.031  13.051 -0.3137  0.3913 -0.0070
  171DOPC   H9R20824   3.701   2.011  12.979 -1.8353 -2.6201 -1.0719
  171DOPC  C21020825   3.654   2.072  13.178  0.3836 -0.5719  0.0992
  171DOPC  H10R20826   3.752   2.050  13.222  0.1614 -0.8222  0.4815
  171DOPC  C21120827   3.566   2.110  13.292  0.2167  0.1085 -0.0464
  171DOPC  H11R20828   3.463   2.136  13.258  0.8952  2.9736 -0.1977
  171DOPC  H11S20829   3.598   2.214  13.315 -0.3823  0.6491 -1.4898
  171DOPC  C21220830   3.574   2.026  13.422 -0.7555  0.1922 -0.9417
  171DOPC  H12R20831   3.674   1.981  13.440 -1.3615 -0.2186  1.8679
  171DOPC  H12S20832   3.490   1.955  13.410 -0.1041 -1.1135  1.5187
  171DOPC  C21320833   3.542   2.107  13.551 -0.1239  0.2782  0.1224
  171DOPC  H13R20834   3.437   2.143  13.548  0.1023  1.0713  1.2085
  171DOPC  H13S20835   3.600   2.202  13.555 -1.6427  1.2576 -0.3633
  171DOPC  C21420836   3.570   2.021  13.681 -0.1772 -0.5477  0.6505
  171DOPC  H14R20837   3.679   2.000  13.680  0.8677  3.8243  0.5588
  171DOPC  H14S20838   3.496   1.938  13.674 -0.5178 -0.0925 -2.4904
  171DOPC  C21520839   3.542   2.098  13.810 -0.0153 -0.9281  0.0642
  171DOPC  H15R20840   3.440   2.142  13.808  0.5909  0.5343 -2.4159
  171DOPC  H15S20841   3.619   2.177  13.819  1.0462 -1.5543 -2.5683
  171DOPC  C21620842   3.560   2.003  13.929 -0.5573 -0.8953 -0.3915
  171DOPC  H16R20843   3.670   1.990  13.939 -0.6367 -1.3123 -0.0139
  171DOPC  H16S20844   3.503   1.909  13.915 -2.0975  0.2047 -1.9237
  171DOPC  C21720845   3.503   2.057  14.061 -0.1041 -0.5250 -0.7270
  171DOPC  H17R20846   3.392   2.060  14.049 -0.5005  1.7874  2.2523
  171DOPC  H17S20847   3.544   2.160  14.064 -0.8501 -0.2372  0.2441
  171DOPC  C21820848   3.532   1.980  14.186  0.0231  0.1451 -0.6117
  171DOPC  H18R20849   3.641   1.959  14.192 -0.1484 -0.9897 -1.1182
  171DOPC  H18S20850   3.477   1.884  14.191 -0.0654  0.0381 -2.6268
  171DOPC  H18T20851   3.492   2.032  14.275 -0.0225 -0.4657 -0.2720
  171DOPC   C3320852   3.620   2.419  12.671  0.4065 -0.5648  0.2979
  171DOPC   H3X20853   3.718   2.466  12.650 -0.0547 -0.7408 -2.7162
  171DOPC   H3Y20854   3.627   2.309  12.685 -1.1583 -0.5124  1.7873
  171DOPC   C3420855   3.565   2.489  12.800 -0.1846  0.5595  0.4394
  171DOPC   H4X20856   3.473   2.438  12.834  0.1376  0.4952  1.2275
  171DOPC   H4Y20857   3.529   2.594  12.787  0.4188  0.8863  1.3349
  171DOPC   C3520858   3.669   2.476  12.912 -0.1486  0.2531  0.1097
  171DOPC   H5X20859   3.766   2.519  12.877  0.1159 -0.2357  0.2323
  171DOPC   H5Y20860   3.681   2.370  12.941 -1.1623  0.7970  2.8057
  171DOPC   C3620861   3.621   2.546  13.041 -0.3153 -0.0404  0.1844
  171DOPC   H6X20862   3.716   2.571  13.093  2.6031 -0.6007 -4.2850
  171DOPC   H6Y20863   3.577   2.647  13.022 -1.5726 -0.1194  2.2989
  171DOPC   C3720864   3.528   2.460  13.124 -0.0590  0.1351  0.1952
  171DOPC   H7X20865   3.440   2.431  13.062  0.2041  1.0713 -0.6459
  171DOPC   H7Y20866   3.585   2.367  13.143  1.9095  1.5807  1.8667
  171DOPC   C3820867   3.478   2.526  13.259  0.0323  0.6014  0.0991
  171DOPC   H8X20868   3.422   2.622  13.254 -0.8128  0.0834 -0.9607
  171DOPC   H8Y20869   3.574   2.561  13.302 -0.7928  0.9135  1.8014
  171DOPC   C3920870   3.418   2.440  13.370  0.5093 -0.1331  0.0048
  171DOPC   H9X20871   3.402   2.338  13.332 -1.7415  0.9834 -2.3553
  171DOPC  C31020872   3.406   2.460  13.505 -0.0132 -0.3756 -0.0690
  171DOPC  H10X20873   3.370   2.371  13.559 -0.9031 -0.3663 -0.6165
  171DOPC  C31120874   3.457   2.585  13.579 -0.4905 -0.4860  0.3558
  171DOPC  H11X20875   3.381   2.650  13.627  1.8496  3.1901 -0.5148
  171DOPC  H11Y20876   3.513   2.657  13.516 -2.9903  2.2579  1.0802
  171DOPC  C31220877   3.543   2.538  13.698  0.1629 -0.2534  0.8108
  171DOPC  H12X20878   3.605   2.628  13.716  0.7974 -0.0719 -1.8076
  171DOPC  H12Y20879   3.604   2.450  13.667 -1.3121 -1.9410  2.4050
  171DOPC  C31320880   3.459   2.514  13.826  0.0528  0.3736 -0.9519
  171DOPC  H13X20881   3.414   2.610  13.858  0.0276 -0.1428  0.6694
  171DOPC  H13Y20882   3.383   2.434  13.816  2.4133 -2.0904 -0.5254
  171DOPC  C31420883   3.550   2.462  13.941 -0.4097 -0.5420  0.3998
  171DOPC  H14X20884   3.594   2.361  13.926 -0.8692 -0.7635  0.5139
  171DOPC  H14Y20885   3.633   2.530  13.970  0.4142 -1.0536 -0.7114
  171DOPC  C31520886   3.463   2.451  14.078 -0.2484 -0.0641  0.3654
  171DOPC  H15X20887   3.389   2.370  14.063  0.2004 -0.6514  1.2084
  171DOPC  H15Y20888   3.410   2.548  14.093 -1.8111 -0.5300 -1.6809
  171DOPC  C31620889   3.539   2.404  14.199 -0.0672  0.3843  0.6480
  171DOPC  H16X20890   3.608   2.321  14.172 -0.3255 -0.2147  1.7619
  171DOPC  H16Y20891   3.590   2.499  14.227  0.3455 -0.0341  1.3308
  171DOPC  C31720892   3.461   2.349  14.315  0.5292  0.0748 -0.2556
  171DOPC  H17X20893   3.386   2.269  14.295 -2.0119  1.7738  1.7452
  171DOPC  H17Y20894   3.530   2.309  14.393  0.1707  0.2926  0.1740
  171DOPC  C31820895   3.390   2.468  14.379 -0.1938 -0.1745 -0.0651
  171DOPC  H18X20896   3.459   2.520  14.449  0.7905 -0.5012 -0.7788
  171DOPC  H18Y20897   3.355   2.539  14.302  2.0016 -1.4602 -2.4069
  171DOPC  H18Z20898   3.308   2.423  14.438  2.9261 -3.8572  1.9080
  172DOPC     N20899   2.406   3.582  11.389  0.3989 -0.4495  0.0319
  172DOPC   C1220900   2.279   3.544  11.461  0.5888 -0.4007  0.1507
  172DOPC  H12A20901   2.299   3.442  11.490  1.6463  0.2167  1.7373
  172DOPC  H12B20902   2.199   3.549  11.390  1.4056  2.1696 -0.7210
  172DOPC   C1320903   2.410   3.727  11.349  0.0720  0.2584 -0.2974
  172DOPC  H13A20904   2.404   3.788  11.438  1.2660 -2.1507  1.5592
  172DOPC  H13B20905   2.512   3.746  11.319 -0.2952  1.2788 -0.9277
  172DOPC  H13C20906   2.341   3.754  11.271 -0.0294  1.1249  0.0771
  172DOPC   C1420907   2.415   3.501  11.265 -0.1835 -0.0972  0.6094
  172DOPC  H14A20908   2.404   3.394  11.278 -1.2705  0.0165  0.6917
  172DOPC  H14B20909   2.332   3.518  11.198 -0.4182  1.1701  1.1980
  172DOPC  H14C20910   2.499   3.529  11.202  0.8469 -0.0359  1.9572
  172DOPC   C1520911   2.521   3.546  11.468  0.3261  0.3115 -0.5429
  172DOPC  H15A20912   2.521   3.611  11.555 -0.8681  3.3533 -2.6216
  172DOPC  H15B20913   2.615   3.568  11.419  1.6653  0.3188  1.8668
  172DOPC  H15C20914   2.526   3.440  11.487  2.1443  0.4185 -0.1800
  172DOPC   C1120915   2.227   3.634  11.579  0.0500  0.6325 -0.4310
  172DOPC  H11A20916   2.226   3.736  11.534  1.3956  1.4288  1.2424
  172DOPC  H11B20917   2.120   3.612  11.597  0.7529 -2.3841  0.5294
  172DOPC     P20918   2.268   3.721  11.816 -0.3894 -0.0095  0.4457
  172DOPC   O1320919   2.268   3.861  11.763 -0.0610 -0.3088  0.2559
  172DOPC   O1420920   2.362   3.687  11.924  0.4445  0.1250  0.1864
  172DOPC   O1220921   2.308   3.628  11.699 -0.0997 -0.2524 -0.1248
  172DOPC   O1120922   2.122   3.669  11.847 -0.1029 -0.0430 -0.0871
  172DOPC    C120923   2.094   3.534  11.853 -0.0363  0.8457 -0.6121
  172DOPC    HA20924   2.129   3.462  11.775  0.1922 -1.6819  1.6612
  172DOPC    HB20925   1.984   3.526  11.858  0.0775 -0.9936 -0.0586
  172DOPC    C220926   2.151   3.465  11.981  0.3290  0.2760  0.0470
  172DOPC    HS20927   2.261   3.452  11.971 -0.0214 -2.7208 -0.7895
  172DOPC   O2120928   2.084   3.338  11.983 -0.6397 -0.0099 -0.1646
  172DOPC   C2120929   2.139   3.244  11.917  0.2708  0.1327  0.6743
  172DOPC   O2220930   2.245   3.249  11.853 -0.3056 -0.4609  0.5519
  172DOPC   C2220931   2.064   3.109  11.932  0.0663 -0.0985 -0.5615
  172DOPC   H2R20932   2.096   3.051  11.843  0.7178  1.0119 -1.0728
  172DOPC   H2S20933   1.958   3.139  11.944 -0.1995 -1.1649 -0.1362
  172DOPC    C320934   2.109   3.549  12.110 -0.5469 -0.6719  0.5717
  172DOPC    HX20935   2.001   3.534  12.128 -1.4650  2.1842 -1.6303
  172DOPC    HY20936   2.134   3.657  12.097  1.6730 -1.0542  1.2699
  172DOPC   O3120937   2.170   3.497  12.226 -0.4872  0.1286 -0.4026
  172DOPC   C3120938   2.274   3.562  12.268 -1.0811 -0.6123  0.6359
  172DOPC   O3220939   2.307   3.679  12.234 -0.4470 -0.0188  0.0550
  172DOPC   C3220940   2.344   3.469  12.367  0.6268 -0.4354 -0.1907
  172DOPC   H2X20941   2.266   3.405  12.414 -0.1772  0.4640 -0.2568
  172DOPC   H2Y20942   2.409   3.405  12.305  0.1625 -1.1721  0.0723
  172DOPC   C2320943   2.096   3.034  12.068 -0.0084  0.4678  0.1959
  172DOPC   H3R20944   2.090   3.108  12.151  0.6061  0.4650  0.2468
  172DOPC   H3S20945   2.201   2.996  12.066 -0.2057 -0.1313  0.8763
  172DOPC   C2420946   1.999   2.918  12.087 -0.0665  0.0331 -0.5209
  172DOPC   H4R20947   2.026   2.842  12.011  0.2470  0.4969 -0.8837
  172DOPC   H4S20948   1.891   2.947  12.089  0.2501  1.3004 -0.6440
  172DOPC   C2520949   2.035   2.846  12.219 -0.6360  0.0150 -0.2280
  172DOPC   H5R20950   1.938   2.815  12.262 -0.3075 -3.4004 -1.6326
  172DOPC   H5S20951   2.087   2.915  12.289  0.2105  1.7078 -2.4073
  172DOPC   C2620952   2.128   2.722  12.207 -1.1295 -0.3576 -0.1857
  172DOPC   H6R20953   2.233   2.749  12.234 -0.8601 -2.7701  1.5181
  172DOPC   H6S20954   2.137   2.684  12.104  0.3553 -0.7451  0.0609
  172DOPC   C2720955   2.088   2.612  12.298  0.3491  0.8143 -1.1941
  172DOPC   H7R20956   2.164   2.532  12.290 -0.6579 -0.2496 -0.4773
  172DOPC   H7S20957   1.993   2.569  12.258 -0.8774  0.7904  1.4954
  172DOPC   C2820958   2.075   2.651  12.445  0.4085 -0.9519 -0.0229
  172DOPC   H8R20959   1.997   2.730  12.450  1.2623 -0.0705 -0.5297
  172DOPC   H8S20960   2.167   2.703  12.477  0.6689 -1.8375  0.7289
  172DOPC   C2920961   2.052   2.545  12.546  0.7167  0.1114 -0.2894
  172DOPC   H9R20962   2.137   2.487  12.585 -0.0453 -0.0336  1.2622
  172DOPC  C21020963   1.934   2.521  12.605  0.5800  0.6665  0.3912
  172DOPC  H10R20964   1.931   2.436  12.674  1.6704  0.0697 -0.2690
  172DOPC  C21120965   1.799   2.587  12.569  0.3398 -0.6761 -0.0250
  172DOPC  H11R20966   1.717   2.512  12.566 -0.9599  0.7027 -1.5315
  172DOPC  H11S20967   1.785   2.635  12.470 -2.7471 -0.0914  0.5989
  172DOPC  C21220968   1.757   2.698  12.676 -0.1092  0.2432  0.0225
  172DOPC  H12R20969   1.661   2.742  12.640 -0.0938  0.8153  0.6541
  172DOPC  H12S20970   1.826   2.784  12.673 -0.2755  0.3697 -0.1857
  172DOPC  C21320971   1.725   2.644  12.816  0.3379 -0.2811 -0.0209
  172DOPC  H13R20972   1.816   2.614  12.872 -0.0074  1.1685  1.3820
  172DOPC  H13S20973   1.658   2.556  12.808 -0.7669  0.5206  0.1557
  172DOPC  C21420974   1.650   2.757  12.903 -0.3097 -0.2647 -0.1671
  172DOPC  H14R20975   1.553   2.791  12.862  0.2344  1.2047 -0.2911
  172DOPC  H14S20976   1.717   2.845  12.911 -0.8685  0.0952  0.6400
  172DOPC  C21520977   1.614   2.708  13.040  0.0441  0.7215  0.9632
  172DOPC  H15R20978   1.559   2.789  13.093 -1.2479 -0.2590  1.1754
  172DOPC  H15S20979   1.707   2.691  13.098 -0.1209  0.6264  1.1963
  172DOPC  C21620980   1.538   2.575  13.038 -0.6564 -0.0924  0.2156
  172DOPC  H16R20981   1.601   2.490  13.004 -2.8130 -0.8191 -2.2346
  172DOPC  H16S20982   1.457   2.588  12.964 -0.3315 -0.5049 -0.2127
  172DOPC  C21720983   1.489   2.534  13.172 -0.5030 -0.1703 -0.8847
  172DOPC  H17R20984   1.441   2.616  13.230 -0.0061 -0.2067 -0.4207
  172DOPC  H17S20985   1.583   2.509  13.226  0.0921  1.8676 -0.8912
  172DOPC  C21820986   1.395   2.419  13.165  0.1156 -0.0403  0.1530
  172DOPC  H18R20987   1.305   2.455  13.112 -0.2709  0.1124  0.8922
  172DOPC  H18S20988   1.359   2.390  13.266  2.1303 -0.1990  0.8656
  172DOPC  H18T20989   1.436   2.326  13.119  0.3150 -1.1679  2.4306
  172DOPC   C3320990   2.424   3.533  12.489 -0.3391 -0.0944 -0.0579
  172DOPC   H3X20991   2.481   3.625  12.463  0.4894 -0.5162  0.2241
  172DOPC   H3Y20992   2.491   3.454  12.528 -1.0716 -0.0038  1.4710
  172DOPC   C3420993   2.343   3.566  12.621  0.3855  0.2002  0.7284
  172DOPC   H4X20994   2.296   3.476  12.666  0.3777  0.1731  0.6663
  172DOPC   H4Y20995   2.260   3.631  12.585 -0.7413 -1.3119  0.4697
  172DOPC   C3520996   2.426   3.642  12.721  0.2947 -0.8999 -0.4422
  172DOPC   H5X20997   2.423   3.752  12.707  0.4116 -0.6626  1.2158
  172DOPC   H5Y20998   2.533   3.615  12.709  1.5862  3.5677 -0.5558
  172DOPC   C3620999   2.380   3.612  12.868 -0.1171 -0.1371 -1.2936
  172DOPC   H6X21000   2.271   3.626  12.884  0.1253  1.1447 -0.5635
  172DOPC   H6Y21001   2.415   3.511  12.897  2.8707  1.4295  1.2809
  172DOPC   C3721002   2.449   3.705  12.976 -0.6142  0.0820  0.2659
  172DOPC   H7X21003   2.556   3.682  12.957 -0.6997  0.4329 -0.6937
  172DOPC   H7Y21004   2.422   3.810  12.955  1.3749  0.6293  0.2055
  172DOPC   C3821005   2.411   3.671  13.123 -0.1496 -0.2337 -1.1082
  172DOPC   H8X21006   2.459   3.573  13.147  0.2888 -0.1652 -1.6792
  172DOPC   H8Y21007   2.301   3.661  13.131 -0.2968  1.8532  0.1360
  172DOPC   C3921008   2.467   3.781  13.214  0.1930  1.3465  0.2534
  172DOPC   H9X21009   2.545   3.849  13.179 -0.0605  1.7028  0.3720
  172DOPC  C31021010   2.391   3.836  13.316 -0.7032 -0.0128  0.0450
  172DOPC  H10X21011   2.438   3.915  13.376 -0.9283  1.8987 -2.1387
  172DOPC  C31121012   2.270   3.774  13.377  0.2764  0.4405  0.3110
  172DOPC  H11X21013   2.277   3.663  13.376  1.1155  0.4819  0.4334
  172DOPC  H11Y21014   2.183   3.804  13.314 -0.2483  0.1798  0.9028
  172DOPC  C31221015   2.241   3.834  13.514  0.6041  1.1188 -0.4072
  172DOPC  H12X21016   2.135   3.817  13.540  0.7820  2.3025  1.1992
  172DOPC  H12Y21017   2.245   3.944  13.508 -1.6755  1.3000  0.4606
  172DOPC  C31321018   2.334   3.778  13.626  0.3345 -0.1553 -0.1685
  172DOPC  H13X21019   2.298   3.676  13.650 -1.6770  0.0625 -1.9414
  172DOPC  H13Y21020   2.437   3.771  13.586  1.4064 -0.3296  2.3755
  172DOPC  C31421021   2.330   3.866  13.754  0.6668  1.1182  0.4111
  172DOPC  H14X21022   2.343   3.965  13.705  1.2992  1.0634  0.4612
  172DOPC  H14Y21023   2.221   3.864  13.776  0.5282  0.3557 -0.3227
  172DOPC  C31521024   2.422   3.821  13.865 -0.3732  0.1474 -0.7087
  172DOPC  H15X21025   2.524   3.813  13.821  0.2447  0.2864  0.6323
  172DOPC  H15Y21026   2.376   3.727  13.901 -1.0699  0.4799 -0.7182
  172DOPC  C31621027   2.438   3.928  13.972 -0.1958  0.0348  0.3710
  172DOPC  H16X21028   2.485   4.014  13.920 -0.0795 -0.0674  0.3064
  172DOPC  H16Y21029   2.338   3.949  14.016 -0.5575  1.0811 -0.8696
  172DOPC  C31721030   2.535   3.893  14.090 -0.7238  0.1844  0.4081
  172DOPC  H17X21031   2.519   3.788  14.124  1.3878 -0.9458 -1.7557
  172DOPC  H17Y21032   2.637   3.896  14.046 -2.0780  2.0959 -2.9731
  172DOPC  C31821033   2.523   3.991  14.206 -0.7267  0.1265  0.0224
  172DOPC  H18X21034   2.575   4.087  14.182  1.0382 -0.7605  0.1054
  172DOPC  H18Y21035   2.415   4.003  14.227 -1.2791 -2.1621 -1.1887
  172DOPC  H18Z21036   2.578   3.968  14.300 -0.1384 -2.1066 -0.7976
  173DOPC     N21037   1.611   2.153  11.644  0.0562  0.6208  0.3418
  173DOPC   C1221038   1.707   2.031  11.637 -0.1175 -0.7259  0.6287
  173DOPC  H12A21039   1.803   2.069  11.606 -0.3019 -0.8021 -0.0682
  173DOPC  H12B21040   1.664   1.972  11.557  0.3507  2.7671 -2.5242
  173DOPC   C1321041   1.648   2.240  11.761  0.1853 -0.2095 -0.4558
  173DOPC  H13A21042   1.570   2.313  11.777  1.3445  1.0046 -0.0587
  173DOPC  H13B21043   1.652   2.183  11.852  1.0021 -0.0567 -0.3888
  173DOPC  H13C21044   1.738   2.296  11.741  0.0994  0.0824 -0.0383
  173DOPC   C1421045   1.471   2.119  11.661 -0.5102  0.3223 -0.3470
  173DOPC  H14A21046   1.415   2.099  11.570  0.8871  1.2254 -1.4581
  173DOPC  H14B21047   1.455   2.036  11.729 -0.6263  0.1685 -0.5601
  173DOPC  H14C21048   1.429   2.204  11.713 -0.2323  0.6352 -0.6291
  173DOPC   C1521049   1.622   2.222  11.508  0.7338  0.4734 -0.0289
  173DOPC  H15A21050   1.547   2.299  11.509 -0.8510 -0.9603  2.2396
  173DOPC  H15B21051   1.619   2.145  11.432 -0.5350 -0.5439  1.0057
  173DOPC  H15C21052   1.723   2.258  11.495  1.2017 -1.4612 -2.6529
  173DOPC   C1121053   1.721   1.943  11.761 -0.7388 -0.3813  0.3059
  173DOPC  H11A21054   1.621   1.905  11.790 -2.0876  2.2288 -0.5950
  173DOPC  H11B21055   1.780   1.855  11.728 -0.4101  0.7232 -2.2403
  173DOPC     P21056   1.941   2.052  11.859  0.1957 -0.3350  0.1514
  173DOPC   O1321057   1.955   2.176  11.937  0.3458  0.6869  0.3889
  173DOPC   O1421058   1.988   2.059  11.720  0.4097  0.1046 -0.0532
  173DOPC   O1221059   1.795   2.016  11.864 -0.0476 -0.0348  0.2077
  173DOPC   O1121060   2.005   1.934  11.935 -0.0996  0.1711 -0.5976
  173DOPC    C121061   1.976   1.884  12.064 -0.0252  0.1357  0.1971
  173DOPC    HA21062   2.007   1.777  12.071  1.0807  0.2553 -1.8867
  173DOPC    HB21063   1.866   1.875  12.068  0.1250 -1.4099  2.0445
  173DOPC    C221064   2.038   1.967  12.181  0.3625 -0.0264 -0.2159
  173DOPC    HS21065   1.991   2.067  12.180  2.6519  1.0985 -0.0888
  173DOPC   O2121066   2.175   1.986  12.159 -0.1730 -1.3238  0.1969
  173DOPC   C2121067   2.240   2.072  12.245 -0.1614 -0.6994 -0.5364
  173DOPC   O2221068   2.182   2.163  12.299  0.1326  0.2067 -0.7006
  173DOPC   C2221069   2.390   2.064  12.231 -0.0892  0.0377  0.5046
  173DOPC   H2R21070   2.417   2.168  12.259  1.5310 -0.7382  1.9711
  173DOPC   H2S21071   2.397   2.048  12.121 -1.2967 -2.7262  0.7395
  173DOPC    C321072   2.012   1.898  12.319  0.5456 -0.0811  0.2880
  173DOPC    HX21073   2.030   1.789  12.304 -0.3201 -0.2783  0.6446
  173DOPC    HY21074   1.902   1.909  12.324  0.4924  0.5777 -1.4929
  173DOPC   O3121075   2.086   1.941  12.434  0.1676 -0.1083 -0.2699
  173DOPC   C3121076   2.041   2.037  12.510 -0.2148  0.4327 -0.1815
  173DOPC   O3221077   1.939   2.097  12.497  0.6051 -0.1343  0.1089
  173DOPC   C3221078   2.159   2.076  12.609  0.7643  0.4263 -0.6962
  173DOPC   H2X21079   2.202   1.980  12.647 -0.3246 -0.6378 -2.0525
  173DOPC   H2Y21080   2.218   2.141  12.541 -0.7705  0.5588 -1.9367
  173DOPC   C2321081   2.455   1.965  12.325 -0.1050 -0.1363  0.5663
  173DOPC   H3R21082   2.563   1.958  12.303  0.2975  1.2829  1.9432
  173DOPC   H3S21083   2.418   1.863  12.300 -0.8616  0.3521 -0.3835
  173DOPC   C2421084   2.451   1.998  12.477 -0.0749  0.1355  0.7827
  173DOPC   H4R21085   2.377   1.923  12.513  1.2615 -2.7050 -1.9575
  173DOPC   H4S21086   2.414   2.100  12.501 -1.2223 -0.1472  0.2772
  173DOPC   C2521087   2.583   1.972  12.547  0.0245  0.2763 -0.7289
  173DOPC   H5R21088   2.654   2.041  12.496 -1.3632  0.5277 -2.4021
  173DOPC   H5S21089   2.612   1.869  12.516  0.4302  0.8007 -2.1802
  173DOPC   C2621090   2.573   1.994  12.697 -0.5170 -0.6674 -0.1659
  173DOPC   H6R21091   2.506   1.922  12.748 -2.1577  0.9262  0.0042
  173DOPC   H6S21092   2.533   2.095  12.722  0.2885 -0.3946  0.0692
  173DOPC   C2721093   2.715   1.974  12.757  0.5188 -0.4829  0.0002
  173DOPC   H7R21094   2.781   2.043  12.700  0.1565  0.9962  1.3136
  173DOPC   H7S21095   2.751   1.871  12.734  1.5097 -0.4137  1.1674
  173DOPC   C2821096   2.721   1.994  12.905 -0.0963  0.1851  0.2258
  173DOPC   H8R21097   2.670   2.091  12.926 -1.8577 -0.4214 -1.0099
  173DOPC   H8S21098   2.825   2.003  12.943  0.2448 -1.4336 -0.2359
  173DOPC   C2921099   2.664   1.895  13.004  0.7850 -0.1874  0.1804
  173DOPC   H9R21100   2.673   1.792  12.964  2.0157  0.4803 -1.3644
  173DOPC  C21021101   2.604   1.919  13.120 -0.2745  0.4957 -0.2161
  173DOPC  H10R21102   2.577   1.831  13.181 -0.3351  0.0827 -0.8219
  173DOPC  C21121103   2.584   2.048  13.197 -0.2486 -0.5219  0.7932
  173DOPC  H11R21104   2.476   2.073  13.199  0.2244  1.9443 -0.7725
  173DOPC  H11S21105   2.633   2.131  13.142 -1.0283 -0.3303  0.3681
  173DOPC  C21221106   2.648   2.055  13.336 -0.5154 -0.3481 -0.2451
  173DOPC  H12R21107   2.756   2.052  13.313 -0.5690  1.2502 -0.8463
  173DOPC  H12S21108   2.610   1.963  13.386 -0.2267 -0.7201 -0.7015
  173DOPC  C21321109   2.618   2.179  13.419 -0.2227  0.9586 -0.3327
  173DOPC  H13R21110   2.510   2.188  13.445  0.0922 -0.7600  1.8599
  173DOPC  H13S21111   2.637   2.264  13.350 -1.8779 -0.8521 -3.2172
  173DOPC  C21421112   2.693   2.171  13.551 -0.2233 -1.3279  0.5951
  173DOPC  H14R21113   2.713   2.270  13.597  0.1595 -0.9751 -0.2951
  173DOPC  H14S21114   2.789   2.119  13.534  0.1193 -0.7143  0.6447
  173DOPC  C21521115   2.627   2.090  13.662  0.0614  0.2266 -0.4073
  173DOPC  H15R21116   2.635   1.983  13.635  3.2711 -0.1434  1.5674
  173DOPC  H15S21117   2.522   2.121  13.686  1.0057  2.9299  0.6565
  173DOPC  C21621118   2.713   2.082  13.792 -0.0063 -1.4383 -0.1796
  173DOPC  H16R21119   2.718   2.188  13.825 -0.9482 -1.3941 -0.1502
  173DOPC  H16S21120   2.812   2.036  13.775  1.1507  1.0367 -0.5487
  173DOPC  C21721121   2.658   1.999  13.899 -0.0342  0.3616 -0.4723
  173DOPC  H17R21122   2.647   1.894  13.863  1.2118 -0.5731  1.6748
  173DOPC  H17S21123   2.557   2.043  13.916  0.5732  2.0555 -1.0668
  173DOPC  C21821124   2.748   2.003  14.024  0.1539  0.0312 -0.7120
  173DOPC  H18R21125   2.746   2.111  14.053  1.1361  0.3373 -1.7511
  173DOPC  H18S21126   2.847   1.964  13.993 -1.0425 -0.8745 -3.7645
  173DOPC  H18T21127   2.699   1.951  14.109  1.3573 -1.1497 -0.7196
  173DOPC   C3321128   2.113   2.164  12.724  0.2356 -0.2669 -0.9801
  173DOPC   H3X21129   2.035   2.107  12.779  0.7241 -0.3466 -0.3581
  173DOPC   H3Y21130   2.065   2.258  12.688 -1.6496 -0.4981  0.7633
  173DOPC   C3421131   2.228   2.206  12.817 -0.0680 -0.3221 -0.1982
  173DOPC   H4X21132   2.297   2.259  12.748 -0.1661 -0.7413 -0.6298
  173DOPC   H4Y21133   2.280   2.116  12.855  0.3339 -0.8471 -1.9014
  173DOPC   C3521134   2.184   2.291  12.940 -0.6252  0.7490 -0.4092
  173DOPC   H5X21135   2.074   2.280  12.948 -0.5222 -2.0507 -1.5724
  173DOPC   H5Y21136   2.201   2.393  12.901  2.3728 -0.2312 -2.0068
  173DOPC   C3621137   2.267   2.279  13.072  0.2915 -0.1842  0.5908
  173DOPC   H6X21138   2.253   2.175  13.109  2.2783 -0.8450 -0.3750
  173DOPC   H6Y21139   2.375   2.291  13.050 -0.3090  1.3762 -1.8504
  173DOPC   C3721140   2.203   2.368  13.180 -0.5051  0.2442  0.0033
  173DOPC   H7X21141   2.225   2.471  13.143  0.3479  0.0251 -0.1292
  173DOPC   H7Y21142   2.094   2.348  13.175 -1.0347  2.8566 -0.7062
  173DOPC   C3821143   2.255   2.349  13.322  0.2587 -0.0287 -0.6832
  173DOPC   H8X21144   2.238   2.436  13.389  1.1076 -0.6214  0.3429
  173DOPC   H8Y21145   2.366   2.336  13.319  0.4848  1.5978 -0.0429
  173DOPC   C3921146   2.196   2.217  13.383  0.2219 -0.4407  0.1283
  173DOPC   H9X21147   2.157   2.150  13.305  1.9549  0.4483 -1.6031
  173DOPC  C31021148   2.200   2.186  13.510 -0.2600 -0.7194 -0.7212
  173DOPC  H10X21149   2.148   2.097  13.548 -4.2034  0.6939 -2.2777
  173DOPC  C31121150   2.252   2.274  13.619 -0.3868 -0.5857  0.4032
  173DOPC  H11X21151   2.344   2.329  13.589 -1.9585  0.7229 -2.4466
  173DOPC  H11Y21152   2.276   2.208  13.705  1.3762  0.0680  0.4531
  173DOPC  C31221153   2.132   2.367  13.663  0.1008 -0.2674  0.4543
  173DOPC  H12X21154   2.057   2.291  13.695  0.7264 -0.9364  0.3527
  173DOPC  H12Y21155   2.088   2.430  13.582 -0.1680 -0.0540  0.7626
  173DOPC  C31321156   2.169   2.458  13.781 -0.8721  0.7066  0.2887
  173DOPC  H13X21157   2.204   2.392  13.863 -0.4802 -0.4981 -0.8172
  173DOPC  H13Y21158   2.250   2.528  13.752 -0.8063  0.3802 -0.3163
  173DOPC  C31421159   2.049   2.544  13.827 -0.4955  0.9069 -0.5404
  173DOPC  H14X21160   2.012   2.601  13.740  0.7413 -0.8552 -2.3064
  173DOPC  H14Y21161   1.969   2.481  13.871 -0.0178  0.6373 -0.0480
  173DOPC  C31521162   2.098   2.630  13.943 -0.0020  0.5532  0.4270
  173DOPC  H15X21163   2.176   2.700  13.907  0.3358 -0.0679 -0.0820
  173DOPC  H15Y21164   2.142   2.573  14.028  0.9179  2.0146  0.9662
  173DOPC  C31621165   1.985   2.715  14.001  0.1486 -0.6322 -0.3568
  173DOPC  H16X21166   2.023   2.809  14.046  0.2257  0.4346 -2.5257
  173DOPC  H16Y21167   1.928   2.742  13.910  2.2426 -0.0183 -1.5349
  173DOPC  C31721168   1.889   2.650  14.098 -0.4868 -0.1317  0.4036
  173DOPC  H17X21169   1.818   2.584  14.044  0.1448 -0.4878 -0.0052
  173DOPC  H17Y21170   1.941   2.578  14.164 -0.5541  0.3309  0.9627
  173DOPC  C31821171   1.800   2.750  14.177 -0.5283 -0.1762 -0.6595
  173DOPC  H18X21172   1.712   2.709  14.229 -2.3430  0.7881 -2.7980
  173DOPC  H18Y21173   1.852   2.814  14.252 -3.4410 -0.8585  2.1473
  173DOPC  H18Z21174   1.760   2.818  14.099  0.1937  2.5266  1.1498
  174DOPC     N21175   3.801   1.528  11.729  0.6866 -0.7286  0.2154
  174DOPC   C1221176   3.952   1.489  11.717  0.5684 -0.1788 -0.0371
  174DOPC  H12A21177   4.001   1.574  11.672  0.9216 -0.3533  0.0083
  174DOPC  H12B21178   3.971   1.409  11.647 -1.2546 -1.7065  1.0999
  174DOPC   C1321179   3.741   1.550  11.589  0.3793 -0.0417  0.1577
  174DOPC  H13A21180   3.768   1.469  11.522  1.4355 -0.0640  0.5904
  174DOPC  H13B21181   3.634   1.559  11.600  0.1944 -1.6491 -0.0405
  174DOPC  H13C21182   3.789   1.637  11.546  1.3158 -1.1405 -1.1144
  174DOPC   C1421183   3.777   1.652  11.815  0.3376 -0.3665 -0.2829
  174DOPC  H14A21184   3.830   1.740  11.782  1.3781 -0.2503  1.5466
  174DOPC  H14B21185   3.673   1.675  11.827  0.4236 -0.2925  0.3370
  174DOPC  H14C21186   3.810   1.633  11.916  1.6211  0.1203 -0.5895
  174DOPC   C1521187   3.732   1.405  11.778 -0.0691 -0.4532  0.3960
  174DOPC  H15A21188   3.625   1.416  11.778 -0.0037  0.2002  0.2229
  174DOPC  H15B21189   3.770   1.385  11.877  1.4523 -0.7016 -0.2073
  174DOPC  H15C21190   3.767   1.324  11.716  0.4620  0.1421 -0.0853
  174DOPC   C1121191   4.027   1.444  11.846 -0.1729 -0.0909  0.0888
  174DOPC  H11A21192   3.987   1.348  11.883  0.2721 -0.1409  0.4468
  174DOPC  H11B21193   4.133   1.418  11.822  1.3966  0.6912  4.9972
  174DOPC     P21194   4.123   1.674  11.934  0.1199  0.0781 -0.1394
  174DOPC   O1321195   4.070   1.760  11.825 -0.5069 -0.1841 -0.3551
  174DOPC   O1421196   4.260   1.616  11.918  0.2320  0.1525  0.3708
  174DOPC   O1221197   4.022   1.547  11.945  0.1877  0.1208  0.4145
  174DOPC   O1121198   4.106   1.737  12.074 -0.1876  0.6836 -0.2007
  174DOPC    C121199   4.188   1.723  12.195  0.1604 -0.0837  0.3290
  174DOPC    HA21200   4.187   1.827  12.234  2.0327  0.4362 -0.8732
  174DOPC    HB21201   4.296   1.711  12.168 -0.3357 -1.2929 -1.2978
  174DOPC    C221202   4.142   1.610  12.285  0.3279 -0.6008 -0.4354
  174DOPC    HS21203   4.123   1.519  12.224  0.3783 -0.9170  0.0169
  174DOPC   O2121204   4.017   1.662  12.336 -0.3847 -0.0537 -0.2474
  174DOPC   C2121205   3.945   1.561  12.390  0.4614 -0.4997  0.3381
  174DOPC   O2221206   3.985   1.446  12.403  0.1761  0.6579  0.1398
  174DOPC   C2221207   3.804   1.619  12.418 -0.8211 -0.6013  0.5233
  174DOPC   H2R21208   3.739   1.530  12.430  0.2588 -1.5378 -0.3558
  174DOPC   H2S21209   3.764   1.672  12.329  1.5279  2.0289  0.8910
  174DOPC    C321210   4.252   1.584  12.393  0.0420  0.1603 -0.1244
  174DOPC    HX21211   4.350   1.549  12.355 -0.1019  0.3185 -0.6642
  174DOPC    HY21212   4.209   1.501  12.453  1.4533  1.5054  2.9141
  174DOPC   O3121213   4.254   1.713  12.462 -0.1671 -0.0447  0.8960
  174DOPC   C3121214   4.260   1.713  12.598 -0.0696  0.3755 -0.1384
  174DOPC   O3221215   4.270   1.616  12.668 -0.3973 -0.5903 -0.8793
  174DOPC   C3221216   4.241   1.861  12.638 -0.5271  0.1093 -0.1466
  174DOPC   H2X21217   4.292   1.926  12.564 -0.2726  0.4958  0.3623
  174DOPC   H2Y21218   4.134   1.893  12.637 -0.7540 -0.6116 -1.3151
  174DOPC   C2321219   3.806   1.720  12.536 -0.0610 -0.4581  0.5970
  174DOPC   H3R21220   3.705   1.754  12.565  0.0618 -1.2519  2.0141
  174DOPC   H3S21221   3.859   1.813  12.504  0.2790 -0.3400  1.4731
  174DOPC   C2421222   3.891   1.689  12.664  0.8598 -0.3154  0.1459
  174DOPC   H4R21223   3.995   1.685  12.625  0.3022  0.7084 -1.5853
  174DOPC   H4S21224   3.861   1.589  12.702  0.7999 -0.0071  0.9268
  174DOPC   C2521225   3.875   1.794  12.779  0.0311 -0.0634 -0.1573
  174DOPC   H5R21226   3.768   1.795  12.810  0.5172  1.6610  1.6533
  174DOPC   H5S21227   3.919   1.886  12.734  1.5109  0.1939  1.6894
  174DOPC   C2621228   3.961   1.745  12.891 -0.3664 -0.2556  0.3805
  174DOPC   H6R21229   4.064   1.727  12.856 -1.1563 -0.5059 -1.9564
  174DOPC   H6S21230   3.923   1.645  12.921  1.2492 -0.5081  1.7058
  174DOPC   C2721231   3.965   1.844  13.005 -0.3891 -0.8459 -0.1629
  174DOPC   H7R21232   3.861   1.864  13.037 -0.8401  2.0442 -3.0082
  174DOPC   H7S21233   4.005   1.938  12.963 -2.1643 -0.4503 -1.0124
  174DOPC   C2821234   4.062   1.819  13.129  0.7705 -0.5676 -0.4530
  174DOPC   H8R21235   4.075   1.906  13.196 -2.5610 -0.6713  0.5147
  174DOPC   H8S21236   4.162   1.807  13.082  1.3811 -0.0111  0.6925
  174DOPC   C2921237   4.019   1.698  13.207 -0.0670 -0.2199  0.1509
  174DOPC   H9R21238   4.015   1.607  13.144  1.4680 -1.7331  2.1050
  174DOPC  C21021239   3.980   1.687  13.335 -0.1760  0.0254 -0.5348
  174DOPC  H10R21240   3.969   1.582  13.365  3.8698 -0.1566  0.9776
  174DOPC  C21121241   3.968   1.801  13.433 -0.4145  0.0429 -1.3202
  174DOPC  H11R21242   3.871   1.855  13.422  0.4689  1.7366 -1.1553
  174DOPC  H11S21243   4.043   1.882  13.422  0.4352 -0.7767 -1.6481
  174DOPC  C21221244   3.969   1.757  13.588 -0.1820  0.0972  0.6355
  174DOPC  H12R21245   4.007   1.653  13.603 -0.0026 -0.1727 -1.3909
  174DOPC  H12S21246   3.862   1.758  13.617 -0.6694 -2.8980 -0.6906
  174DOPC  C21321247   4.049   1.856  13.672 -0.2841 -0.3199  0.5065
  174DOPC  H13R21248   4.028   1.961  13.645  0.2515 -0.2262  0.4514
  174DOPC  H13S21249   4.156   1.828  13.658 -0.3491 -0.6536  0.6442
  174DOPC  C21421250   4.034   1.853  13.824  0.2224  0.4648 -0.2027
  174DOPC  H14R21251   3.933   1.890  13.855 -1.1944 -1.0569 -2.6337
  174DOPC  H14S21252   4.105   1.931  13.859  3.5632 -1.5609 -1.9862
  174DOPC  C21521253   4.059   1.720  13.891 -0.4192 -0.0105  0.2002
  174DOPC  H15R21254   4.150   1.680  13.841 -0.8410 -1.5630  0.6182
  174DOPC  H15S21255   3.982   1.643  13.869 -0.7093 -0.5203  2.6747
  174DOPC  C21621256   4.082   1.720  14.042 -0.7655 -0.2873 -0.3436
  174DOPC  H16R21257   4.160   1.799  14.046 -0.9870 -0.0548 -0.5260
  174DOPC  H16S21258   4.128   1.624  14.072 -1.2236 -1.0412 -1.9272
  174DOPC  C21721259   3.969   1.776  14.129  0.0878  0.5284 -0.0188
  174DOPC  H17R21260   3.944   1.877  14.090 -1.8010  0.7723  1.6998
  174DOPC  H17S21261   4.007   1.790  14.233 -1.5425 -0.7009  0.7775
  174DOPC  C21821262   3.839   1.701  14.126 -0.7769 -0.5376  0.2180
  174DOPC  H18R21263   3.750   1.757  14.162 -0.6080  1.4465 -2.2084
  174DOPC  H18S21264   3.852   1.602  14.176 -0.5440 -1.3382 -1.3799
  174DOPC  H18T21265   3.825   1.682  14.018 -0.3888  0.9270 -0.1152
  174DOPC   C3321266   4.292   1.903  12.775 -0.8589 -0.5228 -0.2495
  174DOPC   H3X21267   4.371   1.835  12.813  0.4967  2.1364  1.9424
  174DOPC   H3Y21268   4.205   1.898  12.844 -1.3588 -2.2866 -0.9299
  174DOPC   C3421269   4.355   2.040  12.783 -0.2034  0.4081 -0.6278
  174DOPC   H4X21270   4.301   2.110  12.716  0.1790 -0.0080 -1.3773
  174DOPC   H4Y21271   4.463   2.033  12.760 -0.0663 -2.1520  0.4583
  174DOPC   C3521272   4.351   2.099  12.926 -0.1250 -0.0817 -0.4964
  174DOPC   H5X21273   4.255   2.105  12.980  1.0424  1.0164  1.5609
  174DOPC   H5Y21274   4.385   2.205  12.919  0.8227 -0.4646 -2.5952
  174DOPC   C3621275   4.444   2.030  13.032  0.1276 -0.5444 -0.5354
  174DOPC   H6X21276   4.420   1.923  13.046 -0.8533 -0.2721 -0.0132
  174DOPC   H6Y21277   4.552   2.042  13.006  1.4356  0.6691  4.2560
  174DOPC   C3721278   4.437   2.109  13.169 -0.0944  0.0779  0.2317
  174DOPC   H7X21279   4.481   2.207  13.140  1.2550 -0.3304  0.8292
  174DOPC   H7Y21280   4.335   2.126  13.207 -0.0212 -1.0715  1.0007
  174DOPC   C3821281   4.512   2.037  13.281  0.1814 -0.7172  0.7744
  174DOPC   H8X21282   4.548   2.119  13.347 -0.3907  1.1866 -1.1540
  174DOPC   H8Y21283   4.609   1.994  13.248  1.0918  0.6162  1.6001
  174DOPC   C3921284   4.422   1.944  13.356  1.0639  0.0947  0.7133
  174DOPC   H9X21285   4.394   1.852  13.304 -0.2125  1.9598 -2.1404
  174DOPC  C31021286   4.357   1.975  13.470 -0.2763 -0.4435 -0.4291
  174DOPC  H10X21287   4.283   1.902  13.507  0.5741 -1.8593 -1.4487
  174DOPC  C31121288   4.362   2.095  13.561 -0.0602 -0.3002  0.0795
  174DOPC  H11X21289   4.264   2.146  13.576 -0.9370 -1.8004 -0.3326
  174DOPC  H11Y21290   4.441   2.168  13.533  0.1776  0.1751  1.8462
  174DOPC  C31221291   4.402   2.053  13.698 -0.2118  0.4086 -0.2595
  174DOPC  H12X21292   4.505   2.012  13.687  0.1437  1.5439 -1.4620
  174DOPC  H12Y21293   4.336   1.974  13.738  1.1243 -0.9377 -0.6219
  174DOPC  C31321294   4.394   2.167  13.797 -0.5321  0.4683 -0.1357
  174DOPC  H13X21295   4.457   2.250  13.758 -0.2420 -0.3839 -1.5394
  174DOPC  H13Y21296   4.287   2.195  13.799 -0.4443  1.0574  3.1744
  174DOPC  C31421297   4.431   2.122  13.929 -0.5870 -0.4846 -0.3386
  174DOPC  H14X21298   4.377   2.029  13.957 -3.5247  1.2579  0.2107
  174DOPC  H14Y21299   4.539   2.101  13.944 -1.1069 -3.2836  0.0113
  174DOPC  C31521300   4.384   2.228  14.029  0.0523  0.0682  0.5618
  174DOPC  H15X21301   4.284   2.267  14.001 -0.1003 -0.6460  0.1067
  174DOPC  H15Y21302   4.466   2.302  14.045  1.9465 -1.8347  0.1000
  174DOPC  C31621303   4.365   2.154  14.166  0.3664  0.4403  0.0417
  174DOPC  H16X21304   4.292   2.070  14.162 -0.2059  0.9386 -0.2983
  174DOPC  H16Y21305   4.467   2.114  14.183 -0.1657 -0.5609  1.0042
  174DOPC  C31721306   4.326   2.243  14.282  0.3299 -0.7314 -0.8719
  174DOPC  H17X21307   4.412   2.313  14.291  1.1727 -1.9936  2.2610
  174DOPC  H17Y21308   4.236   2.304  14.261  1.0767  0.2585 -1.2401
  174DOPC  C31821309   4.296   2.164  14.415  0.3113  0.1672  0.0604
  174DOPC  H18X21310   4.282   2.234  14.501  2.4601  0.1784  0.4639
  174DOPC  H18Y21311   4.203   2.104  14.414 -0.6045  1.4790  1.3835
  174DOPC  H18Z21312   4.388   2.104  14.435 -0.6930 -1.0283  1.2754
  175DOPC     N21313   1.860   5.027  11.658 -0.3139 -0.1330  0.1445
  175DOPC   C1221314   1.744   5.114  11.680 -0.8209 -0.4503  0.4838
  175DOPC  H12A21315   1.681   5.071  11.756 -1.5088 -0.0746  0.1341
  175DOPC  H12B21316   1.697   5.123  11.583  0.6650  1.5789 -0.1207
  175DOPC   C1321317   1.941   5.028  11.782 -0.6138 -0.0308 -0.7179
  175DOPC  H13A21318   2.035   4.975  11.772 -0.4320 -0.2001  1.4020
  175DOPC  H13B21319   1.952   5.132  11.809 -0.2534 -0.1578 -0.3525
  175DOPC  H13C21320   1.875   4.981  11.853 -1.6509  0.2894 -1.4601
  175DOPC   C1421321   1.949   5.078  11.545  0.2481  0.4113  0.1760
  175DOPC  H14A21322   2.037   5.015  11.547  0.4055  0.6261  0.1321
  175DOPC  H14B21323   1.904   5.073  11.448 -2.2941 -0.2861  1.3266
  175DOPC  H14C21324   1.978   5.182  11.555 -1.5216  0.9462  0.0113
  175DOPC   C1521325   1.824   4.884  11.630 -0.2372  0.0033  0.0861
  175DOPC  H15A21326   1.909   4.821  11.614  0.4118  0.7144  0.6616
  175DOPC  H15B21327   1.775   4.881  11.534  0.3413  0.0889 -0.2125
  175DOPC  H15C21328   1.761   4.837  11.705 -0.3322  0.9149  0.6000
  175DOPC   C1121329   1.776   5.255  11.735  0.0318  0.1638  0.6157
  175DOPC  H11A21330   1.847   5.296  11.661  1.1714 -0.3042  1.4112
  175DOPC  H11B21331   1.688   5.322  11.733 -0.3269 -0.0018  3.9235
  175DOPC     P21332   1.926   5.362  11.914  0.3052 -0.4318 -0.0426
  175DOPC   O1321333   1.870   5.493  11.874  0.9973 -0.2872 -0.1751
  175DOPC   O1421334   2.055   5.321  11.864  0.0267  0.7116  0.4625
  175DOPC   O1221335   1.820   5.252  11.874  0.0384  0.3394  0.0609
  175DOPC   O1121336   1.914   5.339  12.061  0.1159 -0.1447 -0.2546
  175DOPC    C121337   1.902   5.220  12.135 -0.2813  0.0487 -0.8259
  175DOPC    HA21338   1.970   5.141  12.095 -2.4215 -2.2574 -0.2035
  175DOPC    HB21339   1.799   5.177  12.130 -0.6807  0.7150  1.1019
  175DOPC    C221340   1.937   5.250  12.284  0.0333  0.2448 -0.3798
  175DOPC    HS21341   1.931   5.150  12.333  2.6710 -0.3951 -1.2348
  175DOPC   O2121342   1.847   5.349  12.334  0.3709  0.1961 -0.4337
  175DOPC   C2121343   1.726   5.315  12.367  0.2361 -0.7098  0.0264
  175DOPC   O2221344   1.660   5.213  12.350  0.0087 -0.4404 -0.1146
  175DOPC   C2221345   1.674   5.434  12.459 -0.0461  0.5958  0.6888
  175DOPC   H2R21346   1.655   5.518  12.389  1.5134  1.0315  0.7467
  175DOPC   H2S21347   1.762   5.472  12.514  2.0911  0.0428 -2.0853
  175DOPC    C321348   2.078   5.298  12.302 -0.3436 -0.6910 -0.4369
  175DOPC    HX21349   2.102   5.388  12.242 -0.0944 -0.7665 -0.4540
  175DOPC    HY21350   2.152   5.222  12.270  0.9982 -1.0841  3.1044
  175DOPC   O3121351   2.104   5.314  12.445  0.4010 -0.5289  0.7549
  175DOPC   C3121352   2.077   5.442  12.489 -0.3359 -0.1911 -0.5509
  175DOPC   O3221353   2.060   5.541  12.418  0.7625  0.5692  0.0856
  175DOPC   C3221354   2.078   5.461  12.642  0.8360  0.5824  0.2385
  175DOPC   H2X21355   2.184   5.448  12.672  1.1347  1.5851 -0.3279
  175DOPC   H2Y21356   2.048   5.563  12.676  1.2160 -0.0449  2.6243
  175DOPC   C2321357   1.543   5.404  12.542  0.4008  0.0257 -0.1362
  175DOPC   H3R21358   1.456   5.372  12.483  0.1180  0.7274 -0.1140
  175DOPC   H3S21359   1.517   5.501  12.591 -0.6670 -0.5891  0.5577
  175DOPC   C2421360   1.565   5.307  12.658  0.1451  0.3259 -0.8360
  175DOPC   H4R21361   1.647   5.336  12.727 -0.2620 -0.4211 -0.0078
  175DOPC   H4S21362   1.597   5.209  12.617 -1.4836 -0.8047  0.4336
  175DOPC   C2521363   1.438   5.308  12.749 -0.1128 -0.2592  0.1879
  175DOPC   H5R21364   1.359   5.257  12.690  0.7050  0.0060 -1.1851
  175DOPC   H5S21365   1.412   5.413  12.776  1.8553  0.3070 -0.0088
  175DOPC   C2621366   1.455   5.225  12.882  0.5295  0.1698  1.0014
  175DOPC   H6R21367   1.547   5.264  12.929  0.5199  0.2652  0.9400
  175DOPC   H6S21368   1.469   5.116  12.862  1.5769  0.3606  0.6511
  175DOPC   C2721369   1.329   5.249  12.961 -0.1643  0.8084 -0.0532
  175DOPC   H7R21370   1.233   5.223  12.912  0.9810 -1.3079 -1.3245
  175DOPC   H7S21371   1.319   5.353  12.999  0.5102  0.3644  1.4090
  175DOPC   C2821372   1.337   5.163  13.095  0.6963  0.1758 -0.1710
  175DOPC   H8R21373   1.441   5.152  13.131  0.1014 -0.8757  1.3406
  175DOPC   H8S21374   1.319   5.058  13.064 -0.7411 -0.0861  1.3557
  175DOPC   C2921375   1.228   5.194  13.202 -0.4922 -1.0798 -0.0503
  175DOPC   H9R21376   1.134   5.231  13.158 -1.2279 -1.9360  0.7457
  175DOPC  C21021377   1.232   5.172  13.335 -0.2263 -1.0603 -0.5261
  175DOPC  H10R21378   1.156   5.212  13.404  0.5496 -2.0473  0.9623
  175DOPC  C21121379   1.349   5.120  13.414 -0.5706 -0.2906  0.0523
  175DOPC  H11R21380   1.442   5.161  13.370 -0.9229  2.3698  1.5801
  175DOPC  H11S21381   1.353   5.009  13.418  1.1025 -0.3677 -1.9757
  175DOPC  C21221382   1.360   5.155  13.566  0.1301  0.4455 -0.2801
  175DOPC  H12R21383   1.451   5.099  13.595 -0.3500  0.1289  0.6695
  175DOPC  H12S21384   1.272   5.114  13.621  0.1466  2.4987  1.3941
  175DOPC  C21321385   1.365   5.299  13.599 -0.1620 -0.7450 -0.2436
  175DOPC  H13R21386   1.264   5.343  13.583  1.2130  2.2482 -1.2551
  175DOPC  H13S21387   1.442   5.344  13.534  0.5075  0.8892  1.5796
  175DOPC  C21421388   1.411   5.323  13.749 -0.0401 -0.0627 -0.5123
  175DOPC  H14R21389   1.499   5.260  13.775 -2.5909 -2.9169  1.9376
  175DOPC  H14S21390   1.327   5.277  13.806 -1.8654  0.4013 -2.6750
  175DOPC  C21521391   1.434   5.477  13.782 -0.0868  1.0831  0.5964
  175DOPC  H15R21392   1.506   5.517  13.707 -0.0059 -1.4539 -0.7841
  175DOPC  H15S21393   1.476   5.487  13.884 -2.6217  1.4314  1.6857
  175DOPC  C21621394   1.298   5.545  13.768  0.2971  0.1542  0.4954
  175DOPC  H16R21395   1.224   5.500  13.838 -0.4802  0.8391  0.1262
  175DOPC  H16S21396   1.257   5.534  13.666 -1.5507 -0.0458  1.2123
  175DOPC  C21721397   1.312   5.691  13.797  0.2243  0.8882 -1.0815
  175DOPC  H17R21398   1.409   5.726  13.756  0.5333  0.9299 -0.3308
  175DOPC  H17S21399   1.329   5.692  13.907 -1.1184 -0.1058 -0.8487
  175DOPC  C21821400   1.198   5.787  13.749 -0.4479  0.2636  0.4488
  175DOPC  H18R21401   1.102   5.762  13.801  0.2654 -1.5256  0.9765
  175DOPC  H18S21402   1.188   5.766  13.640  0.6179 -2.0890  0.7285
  175DOPC  H18T21403   1.221   5.891  13.777 -1.5447  0.1255  1.9758
  175DOPC   C3321404   1.978   5.354  12.705 -0.9340 -0.0269  0.0961
  175DOPC   H3X21405   1.988   5.258  12.649 -0.0071  1.0119 -1.5674
  175DOPC   H3Y21406   1.874   5.387  12.684 -0.7086 -0.1556 -1.3082
  175DOPC   C3421407   2.006   5.356  12.855  0.2287 -0.3662  0.1739
  175DOPC   H4X21408   2.029   5.459  12.891 -2.4566  0.2967  0.1766
  175DOPC   H4Y21409   2.099   5.298  12.876  1.3224  0.3919 -2.2334
  175DOPC   C3521410   1.881   5.299  12.929 -0.4573  0.2905  0.6147
  175DOPC   H5X21411   1.871   5.197  12.886 -0.8839  0.8549 -0.6675
  175DOPC   H5Y21412   1.796   5.367  12.908  1.5122  2.3378 -1.4154
  175DOPC   C3621413   1.902   5.270  13.080  0.2136 -0.3687  0.0289
  175DOPC   H6X21414   1.809   5.220  13.114 -0.1332  0.7550  0.7942
  175DOPC   H6Y21415   1.985   5.197  13.091  0.4025 -0.0688  0.6981
  175DOPC   C3721416   1.938   5.407  13.155 -0.5157  0.6208 -0.0163
  175DOPC   H7X21417   2.035   5.447  13.118  0.1609 -0.3639  0.6487
  175DOPC   H7Y21418   1.859   5.480  13.125 -1.2167 -0.8682 -2.0410
  175DOPC   C3821419   1.948   5.376  13.312 -0.1439  0.6801  0.0633
  175DOPC   H8X21420   2.046   5.423  13.333  0.4023 -1.6489  3.3585
  175DOPC   H8Y21421   1.958   5.266  13.312  0.0107  0.6950  0.6199
  175DOPC   C3921422   1.832   5.425  13.394  0.2305  0.4804 -0.2108
  175DOPC   H9X21423   1.792   5.526  13.378 -0.6753  1.0344  4.2641
  175DOPC  C31021424   1.760   5.356  13.486 -0.2423  0.3194  0.5038
  175DOPC  H10X21425   1.683   5.413  13.540 -1.9395 -0.4067 -1.0638
  175DOPC  C31121426   1.779   5.209  13.526  0.2729 -0.0658  0.3824
  175DOPC  H11X21427   1.791   5.146  13.435  0.7571  2.2602 -1.2504
  175DOPC  H11Y21428   1.680   5.179  13.566 -0.4352 -0.7318 -1.7191
  175DOPC  C31221429   1.897   5.190  13.625  0.2007 -0.3958 -0.1860
  175DOPC  H12X21430   1.976   5.256  13.582 -1.9772  0.4323 -3.2941
  175DOPC  H12Y21431   1.934   5.086  13.624 -0.0839 -0.5027 -1.5876
  175DOPC  C31321432   1.860   5.230  13.770  0.6273 -0.2315 -0.0500
  175DOPC  H13X21433   1.950   5.261  13.827  0.9905  1.2739 -1.3567
  175DOPC  H13Y21434   1.808   5.328  13.761  2.8167  0.9833 -0.4806
  175DOPC  C31421435   1.768   5.130  13.835  0.0109 -0.5504 -0.6573
  175DOPC  H14X21436   1.668   5.134  13.787 -1.6893  2.5340  2.6080
  175DOPC  H14Y21437   1.819   5.032  13.828  3.1845  0.6563  2.3430
  175DOPC  C31521438   1.735   5.166  13.990 -0.4242  0.7217  0.1655
  175DOPC  H15X21439   1.689   5.267  13.999 -0.5410  0.8238 -1.4442
  175DOPC  H15Y21440   1.834   5.180  14.040 -0.4157 -1.5266  0.9196
  175DOPC  C31621441   1.663   5.051  14.066 -0.5437  0.0344  0.0393
  175DOPC  H16X21442   1.717   4.958  14.036 -1.6722 -0.0601 -1.8336
  175DOPC  H16Y21443   1.675   5.073  14.174  2.3036 -1.1748  0.0526
  175DOPC  C31721444   1.517   5.028  14.028  0.0244 -1.0930  0.8586
  175DOPC  H17X21445   1.507   5.039  13.917 -1.3959 -1.9261  0.8677
  175DOPC  H17Y21446   1.484   4.925  14.056 -1.0115 -1.1156 -0.3061
  175DOPC  C31821447   1.423   5.139  14.085  0.0604  0.3698  0.4539
  175DOPC  H18X21448   1.404   5.127  14.193 -0.3817  1.6963  0.5315
  175DOPC  H18Y21449   1.457   5.243  14.068 -0.6188  0.7776  1.5222
  175DOPC  H18Z21450   1.324   5.134  14.035  1.1340 -0.4638 -1.7663
  176DOPC     N21451   2.673   0.085  11.759  0.0783 -0.6281  0.5570
  176DOPC   C1221452   2.800   0.111  11.835 -0.1149 -0.5522 -0.4337
  176DOPC  H12A21453   2.774   0.186  11.908  0.4974 -1.6866  0.9855
  176DOPC  H12B21454   2.881   0.146  11.773 -0.3770 -0.0918 -0.5242
  176DOPC   C1321455   2.604   0.219  11.728  0.0271 -0.6905  0.5753
  176DOPC  H13A21456   2.595   0.285  11.813  0.2962 -2.2636  1.8758
  176DOPC  H13B21457   2.662   0.274  11.655 -0.2306 -0.1321  0.7835
  176DOPC  H13C21458   2.506   0.209  11.683 -1.5788  1.7914  3.2063
  176DOPC   C1421459   2.583   0.015  11.847  0.6517  0.2677 -0.2462
  176DOPC  H14A21460   2.563  -0.087  11.816 -2.2640  0.9127 -0.8230
  176DOPC  H14B21461   2.637   0.018  11.941 -1.0350 -0.0612  0.7879
  176DOPC  H14C21462   2.485   0.061  11.857  0.2512 -0.0550 -2.3209
  176DOPC   C1521463   2.690   0.009  11.632 -0.1607 -0.2466 -0.6269
  176DOPC  H15A21464   2.753  -0.075  11.656 -0.0296  0.3668  1.3456
  176DOPC  H15B21465   2.749   0.066  11.561 -1.1225 -2.6017 -3.5315
  176DOPC  H15C21466   2.591  -0.015  11.595 -0.9175 -0.2099  1.2913
  176DOPC   C1121467   2.859  -0.010  11.921  0.1053 -0.8987  1.1107
  176DOPC  H11A21468   2.856  -0.100  11.857 -2.4388  0.9610 -1.6733
  176DOPC  H11B21469   2.966   0.019  11.931  0.3645 -1.5299  0.2789
  176DOPC     P21470   2.809  -0.155  12.129 -0.1588  0.2472  0.1999
  176DOPC   O1321471   2.776  -0.272  12.041  0.3021  0.8314  0.6364
  176DOPC   O1421472   2.749  -0.133  12.256  0.2989 -0.3975 -0.6700
  176DOPC   O1221473   2.790  -0.028  12.044  0.5356 -0.2750 -0.6552
  176DOPC   O1121474   2.969  -0.159  12.140 -0.1568 -0.5543  0.2965
  176DOPC    C121475   3.031  -0.054  12.222  0.1268 -0.4206  0.2064
  176DOPC    HA21476   2.981   0.045  12.230  0.7725 -0.2354  2.8636
  176DOPC    HB21477   3.135  -0.031  12.191  0.0956  1.0012  1.0240
  176DOPC    C221478   3.039  -0.097  12.377  0.1051 -0.4203 -0.5242
  176DOPC    HS21479   2.935  -0.085  12.415  0.4699 -0.8363  0.6258
  176DOPC   O2121480   3.130  -0.015  12.450 -0.3669  0.4757  0.2429
  176DOPC   C2121481   3.107   0.110  12.461 -1.0485 -0.3925  0.3057
  176DOPC   O2221482   3.013   0.174  12.419 -0.1850 -0.0172  0.2449
  176DOPC   C2221483   3.221   0.174  12.545  0.4074  0.2790  0.2751
  176DOPC   H2R21484   3.188   0.278  12.567 -0.5054 -0.2210  1.3159
  176DOPC   H2S21485   3.313   0.176  12.483 -0.2254 -3.1286 -0.9514
  176DOPC    C321486   3.069  -0.246  12.395 -0.0365  0.2147 -0.5220
  176DOPC    HX21487   3.158  -0.263  12.331  0.1138  0.3841 -0.3604
  176DOPC    HY21488   2.988  -0.302  12.345 -0.1945  0.9311 -1.0804
  176DOPC   O3121489   3.094  -0.275  12.537  0.1626 -0.8024 -0.4281
  176DOPC   C3121490   2.982  -0.292  12.612 -0.2408  0.3640  0.3134
  176DOPC   O3221491   2.868  -0.258  12.580  0.0340 -0.3504 -0.6895
  176DOPC   C3221492   3.032  -0.356  12.739  0.5206 -0.3894  0.0057
  176DOPC   H2X21493   3.042  -0.463  12.713 -2.6146 -0.6944 -0.2749
  176DOPC   H2Y21494   3.133  -0.324  12.774  0.2078  0.5218  0.0974
  176DOPC   C2321495   3.246   0.081  12.664 -0.9572  0.5306 -0.1931
  176DOPC   H3R21496   3.345   0.117  12.700 -1.5373  2.1700 -0.1557
  176DOPC   H3S21497   3.263  -0.024  12.631  0.5279  0.7462 -0.2075
  176DOPC   C2421498   3.146   0.083  12.780  0.4187 -0.4060  0.6120
  176DOPC   H4R21499   3.050   0.037  12.746  0.5655 -1.5259  1.6427
  176DOPC   H4S21500   3.110   0.185  12.806 -2.3793 -1.4491  1.1937
  176DOPC   C2521501   3.176   0.010  12.904 -0.0754 -0.0491 -0.2395
  176DOPC   H5R21502   3.270   0.045  12.952 -1.1611  3.0952 -0.2027
  176DOPC   H5S21503   3.190  -0.098  12.881 -0.1249  0.2058 -1.5363
  176DOPC   C2621504   3.061   0.021  13.005  0.7263 -0.7606  0.1633
  176DOPC   H6R21505   2.984  -0.041  12.955  0.4939 -0.8199  0.5871
  176DOPC   H6S21506   3.010   0.120  13.012  1.6109 -0.2888  0.0834
  176DOPC   C2721507   3.092  -0.015  13.149  0.0352 -0.1116  0.4514
  176DOPC   H7R21508   3.189   0.030  13.177 -0.3383  0.9412  0.1161
  176DOPC   H7S21509   3.095  -0.126  13.151  1.3466 -0.1820 -2.2838
  176DOPC   C2821510   2.981   0.053  13.241 -0.3289  0.0828 -0.3230
  176DOPC   H8R21511   2.978  -0.015  13.329 -3.8942 -0.9763 -1.1194
  176DOPC   H8S21512   2.879   0.054  13.198 -0.1691 -0.4084 -0.7227
  176DOPC   C2921513   3.012   0.199  13.280 -0.1322  0.1121 -0.4836
  176DOPC   H9R21514   3.010   0.272  13.197 -1.8132  0.3089 -0.3156
  176DOPC  C21021515   3.025   0.248  13.404 -0.1104 -0.5575 -0.2184
  176DOPC  H10R21516   3.041   0.356  13.416 -3.0679 -0.1468  1.1217
  176DOPC  C21121517   3.025   0.171  13.536  0.3780  0.5075 -0.1180
  176DOPC  H11R21518   3.062   0.069  13.514 -1.3135  0.2484 -2.0685
  176DOPC  H11S21519   2.920   0.149  13.564  0.8632 -1.3787  0.4044
  176DOPC  C21221520   3.081   0.235  13.665  0.5743 -0.0608 -0.9573
  176DOPC  H12R21521   3.042   0.338  13.677 -1.8416 -1.2941  4.4281
  176DOPC  H12S21522   3.190   0.251  13.651  0.6442  0.5605  0.2213
  176DOPC  C21321523   3.050   0.152  13.789  0.4571 -0.4496  0.6757
  176DOPC  H13R21524   3.121   0.066  13.784  1.8224  0.5174  2.4763
  176DOPC  H13S21525   2.946   0.114  13.790  0.8026 -1.5515 -0.5858
  176DOPC  C21421526   3.086   0.226  13.913  0.4596 -0.2298  0.2184
  176DOPC  H14R21527   3.014   0.311  13.906 -0.7897 -1.2604  0.2545
  176DOPC  H14S21528   3.182   0.281  13.899  0.3822  0.0195  0.6433
  176DOPC  C21521529   3.085   0.150  14.050  0.0529  0.9110  0.0419
  176DOPC  H15R21530   3.144   0.057  14.031 -1.7402 -0.2562 -0.0775
  176DOPC  H15S21531   2.982   0.112  14.066  0.6099 -1.0870 -0.7962
  176DOPC  C21621532   3.139   0.237  14.169 -0.1136 -0.0383 -0.0519
  176DOPC  H16R21533   3.079   0.331  14.169  1.3273  0.9146 -1.0402
  176DOPC  H16S21534   3.240   0.276  14.144  1.1076 -2.2915  1.0373
  176DOPC  C21721535   3.134   0.156  14.302  0.6624  0.3590  0.2696
  176DOPC  H17R21536   3.172   0.062  14.257  1.6676  0.5695  0.6409
  176DOPC  H17S21537   3.030   0.135  14.332  0.0565  0.1726 -1.8239
  176DOPC  C21821538   3.220   0.198  14.415  0.3479 -0.3704  0.2820
  176DOPC  H18R21539   3.226   0.110  14.483  1.8932 -1.6265 -1.3805
  176DOPC  H18S21540   3.174   0.287  14.464 -0.3647  0.9631 -2.6387
  176DOPC  H18T21541   3.317   0.229  14.371 -0.2998  1.4294  0.0557
  176DOPC   C3321542   2.928  -0.337  12.853 -1.1513 -0.0866  0.2691
  176DOPC   H3X21543   2.833  -0.390  12.829 -0.4443  0.2250 -3.8087
  176DOPC   H3Y21544   2.934  -0.228  12.871  3.8208 -0.0218 -0.5052
  176DOPC   C3421545   2.980  -0.397  12.987  0.0025  0.3411  0.0569
  176DOPC   H4X21546   3.080  -0.354  13.009  1.3699 -2.6216  0.1793
  176DOPC   H4Y21547   2.986  -0.506  12.967  0.6106  0.4901 -0.6182
  176DOPC   C3521548   2.891  -0.360  13.100  0.1240 -0.5203 -0.5276
  176DOPC   H5X21549   2.785  -0.391  13.089 -0.0294 -0.6247  1.0280
  176DOPC   H5Y21550   2.879  -0.250  13.085  0.2731 -0.2963  0.9063
  176DOPC   C3621551   2.941  -0.369  13.237  0.0972  0.1654  0.1011
  176DOPC   H6X21552   2.961  -0.476  13.261 -0.8510  0.0481  0.4088
  176DOPC   H6Y21553   3.040  -0.318  13.240  1.0906 -1.6494 -0.2767
  176DOPC   C3721554   2.860  -0.294  13.348  0.1035  0.1935 -0.3599
  176DOPC   H7X21555   2.930  -0.253  13.423 -0.1731  0.8640 -0.4631
  176DOPC   H7Y21556   2.817  -0.202  13.304 -0.1496  1.2319  1.9391
  176DOPC   C3821557   2.756  -0.392  13.414  0.1191 -0.6079  0.3641
  176DOPC   H8X21558   2.814  -0.475  13.458 -1.3076 -1.0611  1.4714
  176DOPC   H8Y21559   2.693  -0.433  13.333  0.4818 -2.3742  0.9336
  176DOPC   C3921560   2.668  -0.319  13.519 -0.1790 -1.1952  0.3708
  176DOPC   H9X21561   2.584  -0.258  13.485 -0.9523 -2.6886 -0.5212
  176DOPC  C31021562   2.675  -0.332  13.653  0.2857  0.5567  0.6491
  176DOPC  H10X21563   2.593  -0.285  13.711 -0.4611  0.6857 -0.4814
  176DOPC  C31121564   2.759  -0.434  13.728 -0.0990 -0.0943 -0.5872
  176DOPC  H11X21565   2.819  -0.370  13.796 -4.3785  2.0683  1.5264
  176DOPC  H11Y21566   2.833  -0.486  13.663  0.6164 -1.4108  1.1912
  176DOPC  C31221567   2.684  -0.539  13.813 -0.2569 -0.4521  0.7045
  176DOPC  H12X21568   2.621  -0.596  13.741  0.0722  0.2987 -0.1830
  176DOPC  H12Y21569   2.605  -0.484  13.869 -1.4989 -1.6613  0.2003
  176DOPC  C31321570   2.777  -0.617  13.905  0.1733 -0.0922  0.3003
  176DOPC  H13X21571   2.855  -0.646  13.832  0.1020  0.7932 -0.1314
  176DOPC  H13Y21572   2.816  -0.546  13.981 -2.4407  1.3513  0.3955
  176DOPC  C31421573   2.702  -0.724  13.975 -0.6002 -0.7573 -0.0188
  176DOPC  H14X21574   2.614  -0.671  14.018  0.6838  1.0027  0.5144
  176DOPC  H14Y21575   2.662  -0.791  13.895 -0.0209  0.9595 -1.8358
  176DOPC  C31521576   2.792  -0.807  14.057  0.5645 -0.4079 -0.4453
  176DOPC  H15X21577   2.851  -0.743  14.126  1.3804 -2.7095  1.0915
  176DOPC  H15Y21578   2.871  -0.848  13.990  0.1001  0.1996 -1.3885
  176DOPC  C31621579   2.733  -0.918  14.141 -0.7902 -0.1696  0.4656
  176DOPC  H16X21580   2.672  -0.989  14.081 -1.3349 -0.3020  1.1640
  176DOPC  H16Y21581   2.819  -0.974  14.183 -0.3891  1.3952  1.8253
  176DOPC  C31721582   2.656  -0.870  14.264 -0.3332 -0.1377 -0.6179
  176DOPC  H17X21583   2.733  -0.818  14.325  0.0214 -0.3938 -0.8454
  176DOPC  H17Y21584   2.576  -0.797  14.237  0.4446  1.4675  1.2017
  176DOPC  C31821585   2.600  -0.986  14.341 -0.5993 -1.4014 -0.5177
  176DOPC  H18X21586   2.678  -1.053  14.383 -0.2300 -0.2832  0.6341
  176DOPC  H18Y21587   2.535  -0.947  14.422 -0.5294  0.6034 -1.3613
  176DOPC  H18Z21588   2.541  -1.049  14.271  0.1814 -1.2826 -1.3000
  177DOPC     N21589   3.986   4.052  12.148  0.1173  0.1724 -0.0178
  177DOPC   C1221590   4.025   4.162  12.243  0.1748 -0.5869  0.2782
  177DOPC  H12A21591   3.972   4.155  12.337 -2.2172  2.3254 -0.6986
  177DOPC  H12B21592   3.992   4.255  12.200 -1.5249 -1.5329 -0.5354
  177DOPC   C1321593   4.051   4.068  12.013  0.3189  1.2686 -0.6901
  177DOPC  H13A21594   4.037   3.986  11.944 -1.3453  0.3091  0.6906
  177DOPC  H13B21595   4.014   4.157  11.965 -2.4590  2.0300  2.5482
  177DOPC  H13C21596   4.158   4.076  12.026  0.3403 -0.8349  0.9083
  177DOPC   C1421597   3.831   4.068  12.145  1.0356 -0.1399  0.2761
  177DOPC  H14A21598   3.781   4.057  12.239  2.4685 -0.7530  0.9911
  177DOPC  H14B21599   3.812   4.167  12.105  1.3712 -0.3795 -0.5136
  177DOPC  H14C21600   3.786   4.000  12.074 -0.4445  2.0334 -0.9818
  177DOPC   C1521601   4.015   3.919  12.210 -0.4872 -0.6209  0.1362
  177DOPC  H15A21602   4.119   3.893  12.227 -0.4118 -1.6643 -1.6012
  177DOPC  H15B21603   3.981   3.843  12.142 -1.8342 -0.5108  0.6727
  177DOPC  H15C21604   3.962   3.908  12.303  1.4044 -1.7215  1.1629
  177DOPC   C1121605   4.178   4.168  12.277 -0.3758  0.1984  0.5096
  177DOPC  H11A21606   4.226   4.156  12.178 -3.2141  2.1009 -1.2059
  177DOPC  H11B21607   4.216   4.264  12.317 -2.4233  2.2147 -2.0529
  177DOPC     P21608   4.221   4.066  12.509 -0.2099  0.1906  0.5098
  177DOPC   O1321609   4.263   3.935  12.564 -0.1655 -0.1217  0.4803
  177DOPC   O1421610   4.086   4.104  12.553 -0.3008  0.7352  0.1652
  177DOPC   O1221611   4.224   4.056  12.354  0.3103  0.0282  0.1031
  177DOPC   O1121612   4.326   4.180  12.548 -0.3563  0.2712  0.4966
  177DOPC    C121613   4.462   4.162  12.507 -0.0828  0.8894  0.2581
  177DOPC    HA21614   4.475   4.186  12.399 -0.8697 -2.1174 -0.6061
  177DOPC    HB21615   4.502   4.058  12.505  1.3052  1.3914 -1.6827
  177DOPC    C221616   4.550   4.259  12.590 -0.3777 -0.3797  0.1527
  177DOPC    HS21617   4.654   4.223  12.609  0.4234  1.9757  0.5636
  177DOPC   O2121618   4.477   4.293  12.716 -0.1225  0.5007  0.3480
  177DOPC   C2121619   4.473   4.201  12.811 -0.0066 -0.3192  0.2812
  177DOPC   O2221620   4.539   4.098  12.809 -0.2341  0.4856 -0.3863
  177DOPC   C2221621   4.375   4.252  12.918 -0.1193 -0.3293  0.6950
  177DOPC   H2R21622   4.269   4.224  12.900 -0.7259  0.9834  2.0404
  177DOPC   H2S21623   4.390   4.362  12.930 -0.5446 -0.2067  0.1795
  177DOPC    C321624   4.583   4.383  12.510 -0.1713  0.8023  0.1957
  177DOPC    HX21625   4.489   4.441  12.497  0.5344  1.9409  0.0499
  177DOPC    HY21626   4.620   4.350  12.410  0.4201 -0.5497  0.8362
  177DOPC   O3121627   4.687   4.471  12.571  0.7319 -0.0154 -0.1729
  177DOPC   C3121628   4.811   4.420  12.552  0.3996 -0.1166 -0.1214
  177DOPC   O3221629   4.831   4.319  12.487 -0.5898  0.0864  0.2083
  177DOPC   C3221630   4.910   4.515  12.612 -0.3336 -0.0423 -0.3412
  177DOPC   H2X21631   5.015   4.485  12.590 -0.4227 -0.1149 -0.6751
  177DOPC   H2Y21632   4.890   4.611  12.561  0.6267  0.3074 -0.0873
  177DOPC   C2321633   4.401   4.179  13.052  0.0300 -0.1857 -0.5594
  177DOPC   H3R21634   4.416   4.072  13.025  1.1706 -0.1581 -0.0941
  177DOPC   H3S21635   4.314   4.183  13.121  1.0257  0.3770  0.7132
  177DOPC   C2421636   4.520   4.235  13.131  0.2743  0.1997 -0.2336
  177DOPC   H4R21637   4.519   4.346  13.131 -2.7480  0.3371  2.1436
  177DOPC   H4S21638   4.610   4.184  13.090 -1.5287 -1.1127 -2.8380
  177DOPC   C2521639   4.511   4.193  13.279 -0.1509 -0.7774 -0.1437
  177DOPC   H5R21640   4.504   4.082  13.280 -2.3620 -0.6806 -0.1875
  177DOPC   H5S21641   4.419   4.226  13.333  0.9331 -2.1036  2.7044
  177DOPC   C2621642   4.642   4.237  13.356  0.5534 -0.2904  0.3444
  177DOPC   H6R21643   4.649   4.348  13.351  1.0283 -0.3461 -0.3844
  177DOPC   H6S21644   4.729   4.189  13.307  0.6084 -0.4052  0.5530
  177DOPC   C2721645   4.628   4.178  13.496 -0.8335  0.4779  0.5818
  177DOPC   H7R21646   4.699   4.094  13.510 -1.3379 -0.1830 -0.5997
  177DOPC   H7S21647   4.533   4.120  13.506 -0.0844 -0.7108  1.0711
  177DOPC   C2821648   4.640   4.284  13.609 -0.0275  0.6823  0.4314
  177DOPC   H8R21649   4.604   4.225  13.696 -0.6033 -1.9383 -1.4546
  177DOPC   H8S21650   4.565   4.363  13.589 -1.9551 -1.7171 -2.6324
  177DOPC   C2921651   4.766   4.349  13.638  0.0798  0.7703  0.0347
  177DOPC   H9R21652   4.771   4.452  13.600  1.1751  0.0948 -1.7644
  177DOPC  C21021653   4.872   4.293  13.711  0.3847  0.4380 -0.1248
  177DOPC  H10R21654   4.962   4.354  13.728  1.1097  0.0111 -2.2020
  177DOPC  C21121655   4.861   4.150  13.774  0.3963 -0.0421  0.2707
  177DOPC  H11R21656   4.948   4.082  13.760  1.5430  1.3316  0.5275
  177DOPC  H11S21657   4.771   4.101  13.731  1.0016 -1.0048  0.0665
  177DOPC  C21221658   4.826   4.161  13.928 -0.0094  0.0016 -0.3336
  177DOPC  H12R21659   4.784   4.063  13.960 -1.6867  0.9230  0.4012
  177DOPC  H12S21660   4.739   4.228  13.943  0.4808  0.4185  0.7218
  177DOPC  C21321661   4.943   4.204  14.013 -0.1237  0.5687 -0.0506
  177DOPC  H13R21662   4.956   4.314  13.999 -1.5519  0.6090 -1.3519
  177DOPC  H13S21663   5.040   4.162  13.977 -1.0561 -0.9134 -0.9183
  177DOPC  C21421664   4.919   4.182  14.164  0.4067  0.4486 -0.0948
  177DOPC  H14R21665   4.811   4.206  14.178  0.3890  0.6988 -0.6455
  177DOPC  H14S21666   4.988   4.244  14.224 -0.0330  0.4389  0.4209
  177DOPC  C21521667   4.936   4.038  14.209  0.3854 -0.4377  0.0287
  177DOPC  H15R21668   4.855   3.978  14.163 -0.3564  1.4271 -1.1811
  177DOPC  H15S21669   4.922   4.051  14.319  1.5488  1.4711 -0.0082
  177DOPC  C21621670   5.069   3.977  14.174 -0.1602 -1.1744  0.1092
  177DOPC  H16R21671   5.148   4.047  14.209 -1.4636  0.0886  0.6545
  177DOPC  H16S21672   5.078   3.959  14.064 -0.8132 -1.1738  0.0511
  177DOPC  C21721673   5.091   3.854  14.249 -0.1926  0.3315  0.5676
  177DOPC  H17R21674   5.055   3.866  14.353 -0.3783 -0.7055  0.6346
  177DOPC  H17S21675   5.201   3.844  14.262 -0.0753  1.3249  0.4203
  177DOPC  C21821676   5.039   3.729  14.181  0.1996 -0.1859 -1.0185
  177DOPC  H18R21677   4.929   3.739  14.177  0.1324 -0.0003  0.6340
  177DOPC  H18S21678   5.056   3.639  14.243 -0.3022  0.6459  0.3645
  177DOPC  H18T21679   5.075   3.704  14.079 -2.8520 -0.5069 -2.1123
  177DOPC   C3321680   4.892   4.525  12.769 -0.4049 -0.4308 -0.0087
  177DOPC   H3X21681   4.790   4.556  12.802 -0.5818 -0.5967 -0.3878
  177DOPC   H3Y21682   4.957   4.604  12.813 -0.4779 -1.1439  1.4303
  177DOPC   C3421683   4.915   4.385  12.831  0.3245 -0.4376  0.0839
  177DOPC   H4X21684   5.020   4.355  12.814  0.2970 -0.6938  0.3468
  177DOPC   H4Y21685   4.846   4.315  12.779 -0.1323  1.0992 -1.4620
  177DOPC   C3521686   4.869   4.373  12.977  0.6966  0.1694 -0.5485
  177DOPC   H5X21687   4.846   4.266  12.994 -1.3373  0.5529 -0.5529
  177DOPC   H5Y21688   4.770   4.425  12.980  0.9841  0.9183 -2.6330
  177DOPC   C3621689   4.983   4.406  13.075  0.0662 -0.0592  0.1658
  177DOPC   H6X21690   5.064   4.332  13.058 -0.7587 -1.4250  1.9078
  177DOPC   H6Y21691   5.023   4.506  13.046  2.2233 -0.7710  0.4599
  177DOPC   C3721692   4.945   4.398  13.227  0.7747  0.4775  0.1501
  177DOPC   H7X21693   4.850   4.451  13.248 -0.0331 -0.7644 -0.2695
  177DOPC   H7Y21694   4.923   4.290  13.246  0.3768 -0.2807 -3.8342
  177DOPC   C3821695   5.059   4.453  13.321 -0.3970 -0.8103  0.3831
  177DOPC   H8X21696   5.029   4.432  13.426 -0.1393  0.8375  0.8132
  177DOPC   H8Y21697   5.060   4.564  13.308 -0.2864 -0.6430  1.6715
  177DOPC   C3921698   5.195   4.398  13.278  0.7571  0.6489 -0.4151
  177DOPC   H9X21699   5.266   4.474  13.241 -0.1064  0.9603 -1.4525
  177DOPC  C31021700   5.243   4.276  13.283 -0.2743  0.7068 -0.2469
  177DOPC  H10X21701   5.346   4.264  13.245 -0.8330  1.4637 -2.0957
  177DOPC  C31121702   5.185   4.155  13.355 -0.1486 -0.0997  0.5744
  177DOPC  H11X21703   5.179   4.067  13.288  0.9812  1.1696 -1.3003
  177DOPC  H11Y21704   5.084   4.166  13.399  0.2952  0.4577  1.4853
  177DOPC  C31221705   5.277   4.120  13.467  0.0118  0.2231 -0.4632
  177DOPC  H12X21706   5.379   4.103  13.427  0.5160  0.4148  0.6938
  177DOPC  H12Y21707   5.243   4.022  13.508 -1.9209  0.0480 -2.2929
  177DOPC  C31321708   5.260   4.224  13.580 -0.3052 -0.0547  0.4890
  177DOPC  H13X21709   5.298   4.326  13.557 -0.0743 -0.5767 -1.6699
  177DOPC  H13Y21710   5.151   4.246  13.584 -0.0254  1.8093 -0.7349
  177DOPC  C31421711   5.317   4.171  13.710  0.8025 -0.2222 -0.7165
  177DOPC  H14X21712   5.270   4.076  13.743  1.7385  0.4181  2.8501
  177DOPC  H14Y21713   5.426   4.153  13.696  0.3932 -2.4400 -1.3512
  177DOPC  C31521714   5.299   4.267  13.835  0.8624 -0.2520  0.3123
  177DOPC  H15X21715   5.195   4.305  13.834  0.4352 -1.2586 -2.6741
  177DOPC  H15Y21716   5.363   4.355  13.809 -0.8384  0.9349 -0.0317
  177DOPC  C31621717   5.348   4.203  13.967 -0.5809  0.3962  0.4215
  177DOPC  H16X21718   5.310   4.102  13.993  3.4313 -1.1644  0.8792
  177DOPC  H16Y21719   5.457   4.186  13.952 -0.7074  0.2450 -0.3429
  177DOPC  C31721720   5.335   4.292  14.093 -0.0100  0.1401  0.7261
  177DOPC  H17X21721   5.375   4.395  14.084  1.3780 -0.4370 -0.1105
  177DOPC  H17Y21722   5.230   4.301  14.130  0.4197  0.6041  1.8949
  177DOPC  C31821723   5.415   4.231  14.209 -1.0597  0.4738 -0.5138
  177DOPC  H18X21724   5.426   4.304  14.292  1.7737 -0.5747  0.1534
  177DOPC  H18Y21725   5.365   4.140  14.247 -0.9011 -0.1786 -1.7966
  177DOPC  H18Z21726   5.517   4.209  14.169 -0.9418 -0.9862  0.5366
  178DOPC     N21727   2.128   4.396  11.526 -0.6155 -0.0434 -1.0451
  178DOPC   C1221728   2.054   4.504  11.597  0.1529 -0.0464  0.3519
  178DOPC  H12A21729   1.956   4.472  11.630  0.8267 -0.2574  2.2834
  178DOPC  H12B21730   2.039   4.587  11.529  1.5910  0.5263  0.7067
  178DOPC   C1321731   2.265   4.442  11.491  0.4599 -0.4232  0.1462
  178DOPC  H13A21732   2.314   4.491  11.573 -2.8714  1.3691  1.2559
  178DOPC  H13B21733   2.313   4.349  11.465  0.1982 -0.3115 -0.7874
  178DOPC  H13C21734   2.259   4.512  11.409  1.2216 -2.6224 -1.9072
  178DOPC   C1421735   2.071   4.363  11.389 -0.8442 -0.0409 -0.3801
  178DOPC  H14A21736   2.137   4.293  11.338 -2.1717 -1.0147 -0.8152
  178DOPC  H14B21737   1.982   4.307  11.412 -0.0059 -0.3846  2.3728
  178DOPC  H14C21738   2.047   4.447  11.326  0.7678  1.1440  0.5017
  178DOPC   C1521739   2.147   4.274  11.612 -0.3333 -0.5164  0.5105
  178DOPC  H15A21740   2.052   4.226  11.629 -0.9056  0.5301  0.3434
  178DOPC  H15B21741   2.183   4.300  11.710  1.2289 -2.2895  0.4622
  178DOPC  H15C21742   2.218   4.206  11.566  0.0929  0.1842  0.1094
  178DOPC   C1121743   2.122   4.553  11.726 -0.2246  0.1390  0.3510
  178DOPC  H11A21744   2.038   4.607  11.776 -1.4249 -2.0603  0.8598
  178DOPC  H11B21745   2.147   4.471  11.797 -0.6295  1.4614  2.0849
  178DOPC     P21746   2.249   4.785  11.737  0.5602  0.1231  0.4679
  178DOPC   O1321747   2.203   4.849  11.614  0.5432 -0.2097 -0.0246
  178DOPC   O1421748   2.383   4.822  11.788  0.4297  0.0042  0.1479
  178DOPC   O1221749   2.240   4.632  11.708  0.0602  0.1829 -0.2474
  178DOPC   O1121750   2.144   4.815  11.849  0.1372  0.3729  0.3417
  178DOPC    C121751   2.160   4.754  11.977 -0.1045 -0.2792  0.0479
  178DOPC    HA21752   2.254   4.788  12.024 -1.0447 -0.3702  2.0955
  178DOPC    HB21753   2.161   4.643  11.974  0.7588 -0.2587 -0.5680
  178DOPC    C221754   2.050   4.809  12.069  0.3718  0.6872  0.3831
  178DOPC    HS21755   2.030   4.912  12.033  1.1905  0.2839 -1.2927
  178DOPC   O2121756   2.088   4.805  12.212 -0.2291  0.1165 -0.0269
  178DOPC   C2121757   2.156   4.914  12.249 -0.5674  0.0417  0.3311
  178DOPC   O2221758   2.207   4.999  12.172 -0.1765  0.6089 -0.2754
  178DOPC   C2221759   2.167   4.914  12.404 -0.1874 -0.1395  0.4933
  178DOPC   H2R21760   2.223   5.007  12.427 -0.1778  1.3503 -4.4030
  178DOPC   H2S21761   2.232   4.825  12.414 -0.7773 -0.9939 -2.2819
  178DOPC    C321762   1.910   4.750  12.053  0.7496  0.4231 -0.2025
  178DOPC    HX21763   1.924   4.644  12.084  0.6690 -0.1301 -1.9527
  178DOPC    HY21764   1.882   4.751  11.945  2.5794  0.8602 -0.7149
  178DOPC   O3121765   1.806   4.821  12.126  0.0455 -0.6379  0.0805
  178DOPC   C3121766   1.737   4.757  12.223  0.1404  0.4131  0.0386
  178DOPC   O3221767   1.763   4.647  12.263 -0.4336  0.2017  0.0451
  178DOPC   C3221768   1.651   4.870  12.285  0.0391  0.8055  0.5101
  178DOPC   H2X21769   1.719   4.950  12.324 -0.0484  1.3819 -0.4860
  178DOPC   H2Y21770   1.595   4.915  12.200  1.3277 -1.1954 -1.4997
  178DOPC   C2321771   2.037   4.901  12.485 -0.0930  0.3596  0.1739
  178DOPC   H3R21772   1.980   4.807  12.468  1.9491 -1.4084  2.3732
  178DOPC   H3S21773   1.968   4.985  12.462 -2.1516 -1.2266  0.2720
  178DOPC   C2421774   2.071   4.919  12.631 -0.3389 -0.3185 -0.2656
  178DOPC   H4R21775   2.130   5.013  12.633 -0.5171 -0.2041  2.2176
  178DOPC   H4S21776   2.132   4.838  12.676  0.3661  0.8861  1.0387
  178DOPC   C2521777   1.941   4.936  12.713  0.9257  0.0486 -0.0384
  178DOPC   H5R21778   1.870   4.852  12.694  1.3984 -0.8232  1.7514
  178DOPC   H5S21779   1.897   5.034  12.686  2.1529  0.7621  0.4748
  178DOPC   C2621780   1.964   4.925  12.866  0.1204 -1.0050 -0.1397
  178DOPC   H6R21781   1.877   4.929  12.934  0.6113 -1.4522  0.5298
  178DOPC   H6S21782   2.034   5.006  12.894 -0.4519 -0.1742 -1.0771
  178DOPC   C2721783   2.046   4.801  12.917 -0.3857  0.4709 -0.1632
  178DOPC   H7R21784   2.139   4.815  12.858 -0.9572  0.5556 -1.0716
  178DOPC   H7S21785   2.000   4.707  12.880  0.6357  0.1793 -0.7490
  178DOPC   C2821786   2.067   4.797  13.067  0.4301 -0.2519  0.1610
  178DOPC   H8R21787   1.970   4.810  13.119  0.2657 -2.1156  0.3826
  178DOPC   H8S21788   2.122   4.887  13.100 -0.1163 -0.7397  2.5732
  178DOPC   C2921789   2.132   4.671  13.116 -0.0174  0.3045 -0.4096
  178DOPC   H9R21790   2.135   4.588  13.044 -0.5184  1.8308 -2.2831
  178DOPC  C21021791   2.169   4.645  13.244 -0.1562  0.4983 -0.0857
  178DOPC  H10R21792   2.202   4.550  13.289 -3.8587 -1.6021 -1.3682
  178DOPC  C21121793   2.143   4.753  13.345 -0.3971 -0.4897 -0.0384
  178DOPC  H11R21794   2.083   4.841  13.313  0.4356 -0.1968 -0.8456
  178DOPC  H11S21795   2.236   4.806  13.376 -0.8436 -0.2025  0.8442
  178DOPC  C21221796   2.072   4.694  13.472 -0.3776  0.7267 -0.2271
  178DOPC  H12R21797   2.112   4.596  13.505  0.8748  1.7297  1.3711
  178DOPC  H12S21798   1.962   4.684  13.461 -0.3080 -1.3215  0.4684
  178DOPC  C21321799   2.099   4.787  13.590 -0.4436  0.0790 -0.3454
  178DOPC  H13R21800   2.063   4.888  13.560 -1.3264 -0.1942 -0.2171
  178DOPC  H13S21801   2.208   4.795  13.612 -1.1124 -0.1353  3.8765
  178DOPC  C21421802   2.037   4.735  13.717 -0.7586  0.2152  0.0584
  178DOPC  H14R21803   2.074   4.632  13.732 -0.9876  0.0219 -0.6431
  178DOPC  H14S21804   1.928   4.723  13.699 -1.2678  1.6876  1.9180
  178DOPC  C21521805   2.057   4.818  13.839  0.0170 -0.5353 -0.4942
  178DOPC  H15R21806   2.023   4.922  13.821  0.6625 -0.5151 -1.6601
  178DOPC  H15S21807   2.166   4.833  13.855 -0.4118  0.2323  2.2392
  178DOPC  C21621808   1.998   4.756  13.966  0.3002 -0.3891  0.0996
  178DOPC  H16R21809   2.014   4.648  13.948  1.4724  0.0040 -1.4006
  178DOPC  H16S21810   1.888   4.776  13.971  0.5266  0.6380  2.2536
  178DOPC  C21721811   2.061   4.807  14.097 -0.5492  0.2679  0.5713
  178DOPC  H17R21812   2.044   4.916  14.086  1.7448  0.6227  0.0056
  178DOPC  H17S21813   2.172   4.794  14.099 -0.5144  0.6102  1.1923
  178DOPC  C21821814   2.003   4.761  14.228 -0.1552 -0.1838  0.7195
  178DOPC  H18R21815   2.070   4.788  14.312  0.5443 -0.8194  0.3790
  178DOPC  H18S21816   1.992   4.651  14.219 -1.5980  0.0462 -0.8948
  178DOPC  H18T21817   1.903   4.807  14.243 -0.9388 -0.3739 -2.8828
  178DOPC   C3321818   1.557   4.815  12.397  0.0825 -0.0286  0.2468
  178DOPC   H3X21819   1.542   4.705  12.384  0.8635 -0.3148  1.6238
  178DOPC   H3Y21820   1.460   4.868  12.402  0.1026 -0.0525  0.9458
  178DOPC   C3421821   1.619   4.834  12.537 -0.0099  1.1130  0.3384
  178DOPC   H4X21822   1.663   4.934  12.553 -1.9203  2.0888 -0.2044
  178DOPC   H4Y21823   1.699   4.757  12.529 -2.5689 -1.5935 -2.1960
  178DOPC   C3521824   1.539   4.790  12.665  0.1893 -0.4525  0.0733
  178DOPC   H5X21825   1.496   4.688  12.652 -0.9520 -0.0154  0.2973
  178DOPC   H5Y21826   1.461   4.866  12.683  0.6454  0.2069 -0.7007
  178DOPC   C3621827   1.610   4.783  12.804 -0.0412  0.1713 -0.0095
  178DOPC   H6X21828   1.693   4.710  12.796 -0.6047 -0.3734 -1.1415
  178DOPC   H6Y21829   1.661   4.879  12.826  0.7600 -0.0782 -0.7113
  178DOPC   C3721830   1.520   4.738  12.922 -0.5039 -0.4541 -0.4270
  178DOPC   H7X21831   1.418   4.780  12.922 -0.8563 -1.2882 -0.2635
  178DOPC   H7Y21832   1.509   4.630  12.897  3.8804 -0.4785 -3.3738
  178DOPC   C3821833   1.587   4.748  13.060 -0.3798 -0.4895  0.3504
  178DOPC   H8X21834   1.690   4.708  13.052 -0.9205 -1.8129 -0.2978
  178DOPC   H8Y21835   1.531   4.683  13.131 -2.5698 -0.0538 -0.8639
  178DOPC   C3921836   1.579   4.886  13.114  0.2009  0.5438  0.2451
  178DOPC   H9X21837   1.540   4.962  13.045  0.2695  0.4947  0.1534
  178DOPC  C31021838   1.629   4.932  13.230 -0.6138  0.2705  0.5956
  178DOPC  H10X21839   1.605   5.038  13.250 -0.7912  0.3435  0.0315
  178DOPC  C31121840   1.707   4.852  13.326 -0.5945  0.3788  0.2378
  178DOPC  H11X21841   1.799   4.913  13.345 -0.3310 -0.3933  1.5783
  178DOPC  H11Y21842   1.728   4.752  13.282 -1.1566 -0.1202  1.0680
  178DOPC  C31221843   1.630   4.818  13.455  0.3360  0.0456 -0.6097
  178DOPC  H12X21844   1.582   4.911  13.490  1.3159 -0.2704  1.7699
  178DOPC  H12Y21845   1.705   4.802  13.535 -1.7708  0.6680  1.6138
  178DOPC  C31321846   1.541   4.691  13.454 -0.2435 -0.5229 -0.1184
  178DOPC  H13X21847   1.496   4.694  13.352 -2.7568  3.2242  0.8925
  178DOPC  H13Y21848   1.592   4.596  13.480 -1.4440 -1.5105 -1.2438
  178DOPC  C31421849   1.424   4.706  13.559 -0.8178  0.3079  0.7877
  178DOPC  H14X21850   1.343   4.775  13.526 -1.8487 -0.6899  1.1989
  178DOPC  H14Y21851   1.369   4.610  13.554 -1.4407  0.6810 -2.7607
  178DOPC  C31521852   1.483   4.736  13.701 -1.2186 -0.2061  0.4682
  178DOPC  H15X21853   1.527   4.838  13.698  1.4520 -1.3155 -2.1207
  178DOPC  H15Y21854   1.561   4.660  13.720 -0.8026  0.6134  2.2853
  178DOPC  C31621855   1.378   4.707  13.811  0.1210 -0.1416 -0.2669
  178DOPC  H16X21856   1.351   4.599  13.805  2.4896 -0.7976 -0.4536
  178DOPC  H16Y21857   1.433   4.730  13.905 -0.5856  2.4137 -0.4050
  178DOPC  C31721858   1.252   4.795  13.817 -0.0077  0.2804  0.3458
  178DOPC  H17X21859   1.304   4.892  13.831  0.6625 -0.1209  0.7278
  178DOPC  H17Y21860   1.191   4.797  13.725  0.0511 -1.0345  0.2603
  178DOPC  C31821861   1.160   4.755  13.937 -0.1969 -0.0757 -0.1850
  178DOPC  H18X21862   1.220   4.716  14.022  0.3662 -1.0109 -0.9860
  178DOPC  H18Y21863   1.095   4.838  13.971 -0.6824 -1.3163  2.0749
  178DOPC  H18Z21864   1.103   4.663  13.910 -0.9112  0.2927  0.0553
  179DOPC     N21865   5.343   4.305  11.330  0.1125 -0.0967 -0.3000
  179DOPC   C1221866   5.368   4.173  11.397 -0.3404  0.4400  0.0224
  179DOPC  H12A21867   5.474   4.159  11.384 -0.5590 -1.3821  0.0080
  179DOPC  H12B21868   5.323   4.094  11.340  0.3120  0.9453 -1.2395
  179DOPC   C1321869   5.445   4.409  11.366 -0.0834 -0.0530  1.1140
  179DOPC  H13A21870   5.544   4.379  11.335 -0.5218 -0.6504  0.2444
  179DOPC  H13B21871   5.422   4.503  11.318  1.3506 -0.3345 -0.1794
  179DOPC  H13C21872   5.450   4.417  11.474 -0.2072 -1.8050  1.2896
  179DOPC   C1421873   5.204   4.360  11.364 -0.0440 -0.5804 -0.0710
  179DOPC  H14A21874   5.185   4.454  11.314 -1.4078 -0.6170  0.3294
  179DOPC  H14B21875   5.125   4.287  11.355  0.2258 -0.9028  0.1447
  179DOPC  H14C21876   5.202   4.394  11.466  0.1897  3.1784 -1.1780
  179DOPC   C1521877   5.353   4.281  11.183  0.6339 -0.0683  0.3693
  179DOPC  H15A21878   5.437   4.221  11.151 -0.7054 -2.4301  1.0788
  179DOPC  H15B21879   5.360   4.375  11.129  0.6116 -0.0256  0.4409
  179DOPC  H15C21880   5.263   4.227  11.155 -1.2410  3.4056 -0.9289
  179DOPC   C1121881   5.319   4.160  11.541 -0.1544  0.1188  0.0725
  179DOPC  H11A21882   5.215   4.195  11.552  0.5808  2.5294 -0.1288
  179DOPC  H11B21883   5.321   4.049  11.552 -3.3718  0.0673  1.0610
  179DOPC     P21884   5.390   4.321  11.736  0.2238 -0.0390 -0.2589
  179DOPC   O1321885   5.382   4.451  11.671  0.5723  0.0292 -0.2905
  179DOPC   O1421886   5.476   4.311  11.854  0.2406  0.0273 -0.3880
  179DOPC   O1221887   5.422   4.213  11.631  0.2156  0.3828  0.2684
  179DOPC   O1121888   5.242   4.278  11.778  0.2807 -0.1953 -0.7004
  179DOPC    C121889   5.221   4.142  11.822 -0.1905  0.4244  0.1079
  179DOPC    HA21890   5.313   4.087  11.849 -1.1323 -1.4712 -0.3384
  179DOPC    HB21891   5.161   4.089  11.745  0.5612 -0.1117 -0.1188
  179DOPC    C221892   5.148   4.140  11.957 -0.1056 -0.8532 -0.4349
  179DOPC    HS21893   5.067   4.216  11.955  1.3656  0.7988 -0.3003
  179DOPC   O2121894   5.247   4.167  12.057  0.2746  0.1149 -0.0618
  179DOPC   C2121895   5.249   4.290  12.095  0.1543  0.1063 -0.2342
  179DOPC   O2221896   5.167   4.379  12.066 -0.0406  0.2640  0.4946
  179DOPC   C2221897   5.362   4.310  12.203 -0.3898  0.0082 -0.3704
  179DOPC   H2R21898   5.460   4.290  12.154  0.4058  1.3506  0.6064
  179DOPC   H2S21899   5.343   4.242  12.288  0.1799  1.9992  1.4343
  179DOPC    C321900   5.090   4.003  11.987 -0.3232  0.5309  0.4608
  179DOPC    HX21901   5.153   3.929  11.932  0.1049  0.8951  0.4555
  179DOPC    HY21902   4.984   4.002  11.955 -0.4743  1.3401  0.9202
  179DOPC   O3121903   5.093   3.968  12.123  0.2269  0.2235 -0.1232
  179DOPC   C3121904   5.035   4.049  12.213  1.2646  0.2136 -0.0880
  179DOPC   O3221905   4.975   4.149  12.190 -0.2248 -0.0067 -0.3078
  179DOPC   C3221906   5.059   3.977  12.346 -0.4401  0.2505 -0.1606
  179DOPC   H2X21907   5.032   3.870  12.334  0.3627  0.1791 -1.6254
  179DOPC   H2Y21908   5.167   3.989  12.370 -0.1499 -2.2890  0.1134
  179DOPC   C2321909   5.400   4.451  12.266 -0.7357 -0.2784 -0.8060
  179DOPC   H3R21910   5.309   4.486  12.318  0.1668  0.3422  0.4222
  179DOPC   H3S21911   5.429   4.521  12.184  2.7545 -1.2568 -0.6023
  179DOPC   C2421912   5.522   4.432  12.363 -0.5388  0.5483 -0.6518
  179DOPC   H4R21913   5.577   4.528  12.371 -2.3200  1.6576 -1.2661
  179DOPC   H4S21914   5.588   4.356  12.314 -0.1704 -0.0212  0.6938
  179DOPC   C2521915   5.479   4.376  12.499  0.1496 -0.4240  0.2130
  179DOPC   H5R21916   5.572   4.366  12.559  1.5596  3.2216 -1.0330
  179DOPC   H5S21917   5.421   4.282  12.494 -3.3378  1.5563  0.1509
  179DOPC   C2621918   5.393   4.478  12.583 -0.1656 -0.0874 -0.2052
  179DOPC   H6R21919   5.288   4.464  12.547 -0.3372 -3.2972  1.1888
  179DOPC   H6S21920   5.422   4.581  12.553 -2.2667  0.3676 -0.9253
  179DOPC   C2721921   5.402   4.447  12.729 -0.8903  0.1075  1.2430
  179DOPC   H7R21922   5.495   4.488  12.773 -0.3070  0.5887 -0.3422
  179DOPC   H7S21923   5.398   4.337  12.745 -0.3656 -0.1165 -0.0135
  179DOPC   C2821924   5.285   4.518  12.803 -0.2726 -1.1079 -0.5693
  179DOPC   H8R21925   5.289   4.466  12.901  1.8580 -1.9516 -1.0493
  179DOPC   H8S21926   5.194   4.486  12.749  0.2271 -1.9551 -0.9279
  179DOPC   C2921927   5.299   4.668  12.818 -0.4642  1.1990 -0.5924
  179DOPC   H9R21928   5.241   4.727  12.745 -0.8234  1.6336  0.0394
  179DOPC  C21021929   5.352   4.733  12.918 -0.0787 -0.1992 -0.1398
  179DOPC  H10R21930   5.365   4.842  12.911  0.7961 -0.2456  0.6131
  179DOPC  C21121931   5.423   4.674  13.037 -0.1348 -0.6340  0.0618
  179DOPC  H11R21932   5.495   4.596  13.005 -1.4738 -1.7245 -0.3394
  179DOPC  H11S21933   5.352   4.618  13.102  1.6606 -1.8266  1.0960
  179DOPC  C21221934   5.507   4.776  13.114 -0.2662  0.4592  0.3827
  179DOPC  H12R21935   5.441   4.851  13.162 -1.2908 -0.4901  0.4787
  179DOPC  H12S21936   5.572   4.838  13.049  0.7289  0.8556  1.6943
  179DOPC  C21321937   5.603   4.716  13.219 -0.3102  0.2752  0.4804
  179DOPC  H13R21938   5.639   4.804  13.275 -0.7876  1.1687 -0.5817
  179DOPC  H13S21939   5.690   4.681  13.160  0.9931  1.9372  1.3377
  179DOPC  C21421940   5.544   4.613  13.314  0.4771  0.1498 -0.0707
  179DOPC  H14R21941   5.611   4.568  13.389 -0.3912  1.9652  1.9018
  179DOPC  H14S21942   5.491   4.540  13.249 -1.5256 -0.3255  1.9501
  179DOPC  C21521943   5.428   4.681  13.393  0.5494 -0.4127  0.0036
  179DOPC  H15R21944   5.339   4.706  13.331  1.1120  1.5431 -0.0957
  179DOPC  H15S21945   5.446   4.780  13.441 -2.4239  1.3794 -2.2221
  179DOPC  C21621946   5.369   4.594  13.506 -0.0013 -0.3646  0.3223
  179DOPC  H16R21947   5.394   4.488  13.488 -0.7350 -0.6569  0.9296
  179DOPC  H16S21948   5.258   4.588  13.505  0.0027 -0.9970 -1.6276
  179DOPC  C21721949   5.398   4.645  13.649 -0.6046 -0.0103 -0.1254
  179DOPC  H17R21950   5.338   4.575  13.711 -0.2222  0.0727  0.3402
  179DOPC  H17S21951   5.359   4.747  13.665  0.4062  0.3136  0.3336
  179DOPC  C21821952   5.543   4.637  13.703  0.3067  0.1413  0.8121
  179DOPC  H18R21953   5.600   4.545  13.677 -0.9803 -0.1501 -1.2346
  179DOPC  H18S21954   5.539   4.665  13.810 -1.6169  0.3646  0.7195
  179DOPC  H18T21955   5.610   4.710  13.654  1.7138 -2.7609 -2.0048
  179DOPC   C3321956   4.986   4.030  12.466 -0.1207 -0.0376 -0.1096
  179DOPC   H3X21957   4.882   4.063  12.447  0.1016 -0.6025 -2.6888
  179DOPC   H3Y21958   5.031   4.131  12.475 -2.5979  1.4639 -2.9965
  179DOPC   C3421959   5.019   3.947  12.596  0.3127 -0.3972  0.2063
  179DOPC   H4X21960   5.130   3.949  12.599  0.3048  0.6470  0.4350
  179DOPC   H4Y21961   4.985   3.842  12.590  1.1201 -0.6452 -0.1429
  179DOPC   C3521962   4.953   4.013  12.724 -0.3973  0.5211 -0.4371
  179DOPC   H5X21963   4.842   4.018  12.720 -0.4258  0.6436  0.2424
  179DOPC   H5Y21964   4.993   4.116  12.736  2.2968 -0.7529  3.5397
  179DOPC   C3621965   4.997   3.924  12.842 -0.2377 -0.2554 -0.1799
  179DOPC   H6X21966   4.949   3.824  12.832 -2.9295  0.5147  3.1884
  179DOPC   H6Y21967   5.106   3.904  12.836 -0.3629 -1.0794  0.1304
  179DOPC   C3721968   4.966   3.985  12.981 -0.0168  0.0886  0.3157
  179DOPC   H7X21969   5.041   3.930  13.043  0.4824 -1.0168 -1.2059
  179DOPC   H7Y21970   4.997   4.092  12.986 -3.5491  1.1912  0.8818
  179DOPC   C3821971   4.823   3.981  13.036 -0.4313 -0.6076  0.7458
  179DOPC   H8X21972   4.754   4.035  12.967 -0.5843  1.1389  2.1866
  179DOPC   H8Y21973   4.815   4.032  13.134 -0.7329 -2.7152  1.8633
  179DOPC   C3921974   4.758   3.850  13.067  0.5421  0.1075  0.1074
  179DOPC   H9X21975   4.740   3.786  12.979  0.1033  1.1276 -0.5594
  179DOPC  C31021976   4.720   3.791  13.184 -0.4753  0.0274  0.0253
  179DOPC  H10X21977   4.668   3.694  13.180  0.4371 -0.4878  0.2812
  179DOPC  C31121978   4.717   3.853  13.323 -0.3650  0.2450  0.7323
  179DOPC  H11X21979   4.612   3.876  13.352 -0.3742 -0.5887  1.3906
  179DOPC  H11Y21980   4.771   3.950  13.322 -1.7454  1.0305  0.1171
  179DOPC  C31221981   4.786   3.757  13.426  0.6230 -0.3235  0.5644
  179DOPC  H12X21982   4.892   3.744  13.395  0.2546 -1.8721 -0.1318
  179DOPC  H12Y21983   4.739   3.656  13.423 -2.6674  0.9816  2.8809
  179DOPC  C31321984   4.781   3.804  13.573 -0.3475 -0.0432 -0.2437
  179DOPC  H13X21985   4.843   3.727  13.623  1.1825 -0.4928 -2.6679
  179DOPC  H13Y21986   4.831   3.902  13.588 -0.4483 -0.2050  1.3681
  179DOPC  C31421987   4.638   3.813  13.633  0.5149 -0.1889 -0.7088
  179DOPC  H14X21988   4.583   3.890  13.575 -1.5725 -1.4453 -0.5260
  179DOPC  H14Y21989   4.586   3.715  13.623 -1.0232  0.6362 -1.1160
  179DOPC  C31521990   4.642   3.846  13.784  0.0822 -0.0876  0.0896
  179DOPC  H15X21991   4.571   3.931  13.796 -1.4786 -1.4145  0.6622
  179DOPC  H15Y21992   4.745   3.876  13.812  0.7972 -2.0515 -0.3167
  179DOPC  C31621993   4.596   3.729  13.873 -1.1706 -0.6311 -0.4032
  179DOPC  H16X21994   4.492   3.698  13.850 -0.0384 -3.7960 -1.8150
  179DOPC  H16Y21995   4.654   3.643  13.835  2.0024  1.0873  0.1811
  179DOPC  C31721996   4.618   3.756  14.023  0.6453 -0.4367  0.3308
  179DOPC  H17X21997   4.726   3.757  14.051  0.9559 -2.4874 -0.6102
  179DOPC  H17Y21998   4.589   3.862  14.038  2.4646  0.7103 -3.2807
  179DOPC  C31821999   4.536   3.661  14.116  0.0054 -0.4659  0.4563
  179DOPC  H18X22000   4.556   3.556  14.087  0.7111 -0.2322  0.0687
  179DOPC  H18Y22001   4.554   3.687  14.223 -1.2680  1.9595  0.1520
  179DOPC  H18Z22002   4.431   3.691  14.099  0.6884  1.4386 -0.7239
  180DOPC     N22003   6.226   1.291  11.822 -0.1662 -0.1779  0.4276
  180DOPC   C1222004   6.218   1.154  11.883 -0.0102 -0.2514  0.2047
  180DOPC  H12A22005   6.287   1.087  11.833 -0.4003 -1.3292  1.0646
  180DOPC  H12B22006   6.120   1.112  11.867  0.4562 -1.7898  1.2010
  180DOPC   C1322007   6.125   1.384  11.886  0.5084 -0.5540  0.8769
  180DOPC  H13A22008   6.022   1.353  11.879  0.5927 -0.5118 -1.1958
  180DOPC  H13B22009   6.152   1.400  11.990 -0.0199 -0.6263  1.0265
  180DOPC  H13C22010   6.134   1.484  11.847 -0.8154 -0.5886  0.4653
  180DOPC   C1422011   6.196   1.278  11.676 -0.0713  0.4623  0.3387
  180DOPC  H14A22012   6.095   1.249  11.651  0.0636  0.0027  0.3168
  180DOPC  H14B22013   6.222   1.370  11.626 -1.4499 -0.1147 -1.5299
  180DOPC  H14C22014   6.264   1.205  11.634 -1.7565 -1.6862  1.1536
  180DOPC   C1522015   6.364   1.351  11.838 -0.9128 -0.5087 -0.1774
  180DOPC  H15A22016   6.378   1.442  11.782  3.1214 -1.2120 -0.6147
  180DOPC  H15B22017   6.450   1.292  11.809  1.0269  1.7479  0.6308
  180DOPC  H15C22018   6.378   1.373  11.942  1.1026 -2.4681  0.0431
  180DOPC   C1122019   6.256   1.134  12.023 -0.5844 -0.0630  0.3522
  180DOPC  H11A22020   6.266   1.025  12.040  1.4215  0.2739  1.6617
  180DOPC  H11B22021   6.359   1.176  12.030 -0.5169 -0.2129  0.2595
  180DOPC     P22022   6.036   1.109  12.162  0.2893 -0.1397 -0.1283
  180DOPC   O1322023   6.079   0.984  12.223 -0.3347  0.3911  0.1366
  180DOPC   O1422024   5.958   1.085  12.040 -0.3448  0.1749 -0.2666
  180DOPC   O1222025   6.164   1.193  12.118  0.3421 -0.4212  0.0712
  180DOPC   O1122026   5.962   1.201  12.265 -0.3933  0.0057 -0.0091
  180DOPC    C122027   5.944   1.335  12.234  0.2828 -1.1713 -0.3687
  180DOPC    HA22028   5.875   1.340  12.147  0.7167 -3.6389 -0.9172
  180DOPC    HB22029   6.037   1.388  12.203 -0.8706 -0.5456 -3.0844
  180DOPC    C222030   5.891   1.418  12.355 -0.2562  1.0383 -0.3539
  180DOPC    HS22031   5.915   1.523  12.328 -0.5825  0.6438 -2.3072
  180DOPC   O2122032   5.975   1.389  12.475  0.5114 -0.2669  0.1379
  180DOPC   C2122033   6.095   1.441  12.472  0.0479  0.0013 -0.8584
  180DOPC   O2222034   6.147   1.509  12.386 -0.6282  0.4994  1.0179
  180DOPC   C2222035   6.169   1.407  12.608 -0.4114  0.6673 -0.1250
  180DOPC   H2R22036   6.269   1.456  12.602  0.2762 -0.8381 -3.0332
  180DOPC   H2S22037   6.191   1.298  12.618 -0.7978  0.5785 -0.2178
  180DOPC    C322038   5.741   1.386  12.389 -0.7723 -0.0319 -0.1240
  180DOPC    HX22039   5.735   1.276  12.391  3.1475 -0.3835  2.2098
  180DOPC    HY22040   5.680   1.433  12.309 -1.9813 -0.9583  0.2237
  180DOPC   O3122041   5.699   1.448  12.511  0.6149  0.2822 -0.0910
  180DOPC   C3122042   5.736   1.382  12.619 -0.0514  0.1492 -0.5255
  180DOPC   O3222043   5.796   1.276  12.626  0.7543 -0.1270  0.7237
  180DOPC   C3222044   5.679   1.458  12.742  0.0739 -0.5636  0.5394
  180DOPC   H2X22045   5.697   1.567  12.754 -0.6623 -0.5232  1.4336
  180DOPC   H2Y22046   5.571   1.452  12.714  0.0472 -0.8875  0.7024
  180DOPC   C2322047   6.097   1.457  12.738 -0.0986  0.1217  0.2273
  180DOPC   H3R22048   5.989   1.428  12.735 -0.3931  1.2562 -1.3503
  180DOPC   H3S22049   6.098   1.567  12.727 -1.2415  0.0095 -1.3723
  180DOPC   C2422050   6.169   1.423  12.869 -0.2937 -0.1910  0.3944
  180DOPC   H4R22051   6.275   1.452  12.849 -0.8864  1.4822 -0.5240
  180DOPC   H4S22052   6.162   1.316  12.899 -1.3633 -0.7326 -1.5900
  180DOPC   C2522053   6.123   1.508  12.988 -0.3676 -0.2922  0.3481
  180DOPC   H5R22054   6.033   1.453  13.022  0.3972 -2.0314 -0.3299
  180DOPC   H5S22055   6.085   1.606  12.950 -1.8969 -0.3696  1.5633
  180DOPC   C2622056   6.222   1.528  13.092  0.8122  0.1541 -1.1109
  180DOPC   H6R22057   6.322   1.557  13.052  1.1791 -0.2861 -0.5298
  180DOPC   H6S22058   6.240   1.427  13.135  2.2932  0.4326 -1.0287
  180DOPC   C2722059   6.164   1.626  13.196  0.1228  0.0202  0.0012
  180DOPC   H7R22060   6.075   1.571  13.235 -0.2250  0.2479 -0.4613
  180DOPC   H7S22061   6.117   1.712  13.145  0.0316 -0.3172 -0.4939
  180DOPC   C2822062   6.268   1.670  13.292  0.2291 -0.8407 -0.5655
  180DOPC   H8R22063   6.222   1.747  13.358  1.1498 -1.2752  0.6207
  180DOPC   H8S22064   6.344   1.718  13.227  0.5688  0.6863  0.8678
  180DOPC   C2922065   6.331   1.553  13.366 -0.4946  0.5864  0.9576
  180DOPC   H9R22066   6.260   1.473  13.392 -0.2857  1.2011  3.7579
  180DOPC  C21022067   6.459   1.515  13.366 -0.0278 -0.5558 -0.2931
  180DOPC  H10R22068   6.478   1.410  13.393  0.3501 -0.4436 -0.1169
  180DOPC  C21122069   6.577   1.588  13.305 -0.2214  0.5720  0.5453
  180DOPC  H11R22070   6.615   1.648  13.390  2.1875  1.2424 -0.9221
  180DOPC  H11S22071   6.553   1.665  13.229  1.7006 -0.0712 -0.7846
  180DOPC  C21222072   6.693   1.493  13.253 -0.4157  0.3917 -0.2439
  180DOPC  H12R22073   6.723   1.422  13.333 -0.7308  0.2464 -0.2509
  180DOPC  H12S22074   6.781   1.558  13.236  0.4275 -0.4409  0.7767
  180DOPC  C21322075   6.660   1.413  13.123  0.1994 -0.2503 -0.4177
  180DOPC  H13R22076   6.588   1.330  13.135  0.1917 -0.1024  0.7335
  180DOPC  H13S22077   6.747   1.353  13.089 -0.9631 -2.4777  0.3568
  180DOPC  C21422078   6.624   1.504  13.007 -0.2368  0.1095  0.1878
  180DOPC  H14R22079   6.705   1.579  12.991 -0.4447  0.1279 -0.8419
  180DOPC  H14S22080   6.533   1.566  13.019 -0.1985 -0.1264  2.0330
  180DOPC  C21522081   6.594   1.420  12.883  0.2062 -0.0808  0.1923
  180DOPC  H15R22082   6.491   1.380  12.888  0.7794 -1.5377  1.0968
  180DOPC  H15S22083   6.655   1.328  12.888 -0.8646 -0.7591  3.4653
  180DOPC  C21622084   6.631   1.488  12.748 -0.8307 -0.4135  0.3860
  180DOPC  H16R22085   6.739   1.515  12.753 -0.6677 -0.4944 -1.8415
  180DOPC  H16S22086   6.584   1.586  12.729  0.0935 -0.6714 -4.3461
  180DOPC  C21722087   6.597   1.403  12.627 -0.1188 -0.1983 -0.5827
  180DOPC  H17R22088   6.490   1.374  12.632  0.0361 -0.5671  2.3645
  180DOPC  H17S22089   6.658   1.311  12.637  1.7131  0.5593 -3.5403
  180DOPC  C21822090   6.633   1.468  12.495  0.0417 -0.4883  0.5093
  180DOPC  H18R22091   6.722   1.534  12.498 -0.1019 -0.2243 -0.8006
  180DOPC  H18S22092   6.552   1.531  12.453  0.0532 -0.2640  0.8119
  180DOPC  H18T22093   6.641   1.394  12.413 -2.8699  0.7352 -1.0208
  180DOPC   C3322094   5.698   1.389  12.882  0.1353 -0.2742  0.2950
  180DOPC   H3X22095   5.800   1.347  12.887  1.0787  1.7652 -0.5439
  180DOPC   H3Y22096   5.625   1.306  12.868  0.8934 -0.5667 -2.7987
  180DOPC   C3422097   5.685   1.472  13.006 -0.4324 -0.7350  0.4740
  180DOPC   H4X22098   5.584   1.518  13.017  0.8645  2.2339  0.8527
  180DOPC   H4Y22099   5.756   1.557  12.993 -0.5632 -0.9325 -2.1506
  180DOPC   C3522100   5.702   1.386  13.136 -0.1005  0.4663 -0.7133
  180DOPC   H5X22101   5.794   1.325  13.122 -1.1912 -0.9932 -1.6655
  180DOPC   H5Y22102   5.618   1.317  13.155  0.9534 -0.5814  0.3613
  180DOPC   C3622103   5.716   1.479  13.262  1.1772  0.1105  0.1571
  180DOPC   H6X22104   5.789   1.559  13.241 -0.3499  1.2428 -1.1361
  180DOPC   H6Y22105   5.623   1.539  13.277  1.0916  0.6040 -1.9698
  180DOPC   C3722106   5.773   1.408  13.384  0.2119  0.2782 -0.3593
  180DOPC   H7X22107   5.690   1.349  13.429  1.2629  0.3285  1.7397
  180DOPC   H7Y22108   5.862   1.353  13.347  1.4083  1.5884  0.4758
  180DOPC   C3822109   5.818   1.508  13.497  0.0732 -0.2356 -0.0844
  180DOPC   H8X22110   5.883   1.582  13.447  1.0538 -2.1267 -1.7668
  180DOPC   H8Y22111   5.885   1.446  13.561 -0.9636 -1.8238 -0.4801
  180DOPC   C3922112   5.712   1.577  13.584  0.1741 -0.3137 -0.4907
  180DOPC   H9X22113   5.632   1.622  13.523 -1.8744  0.2374  2.4164
  180DOPC  C31022114   5.696   1.573  13.718  0.3767  0.3322  0.2945
  180DOPC  H10X22115   5.604   1.612  13.764  0.6278 -0.4735  1.5388
  180DOPC  C31122116   5.783   1.500  13.819  0.2135  0.2505  0.3204
  180DOPC  H11X22117   5.887   1.509  13.781 -0.4562 -0.8991 -1.9364
  180DOPC  H11Y22118   5.753   1.393  13.821  3.2687 -0.7902 -2.0338
  180DOPC  C31222119   5.774   1.586  13.948 -0.5088  0.4202  0.3791
  180DOPC  H12X22120   5.670   1.604  13.983 -0.4315 -1.3542  1.6553
  180DOPC  H12Y22121   5.799   1.693  13.933  3.2980 -0.2717  1.0107
  180DOPC  C31322122   5.859   1.537  14.066 -0.1219 -0.8370  0.3981
  180DOPC  H13X22123   5.868   1.611  14.149 -3.5249  0.4200 -0.2061
  180DOPC  H13Y22124   5.803   1.454  14.113 -0.4593 -1.2013 -0.6142
  180DOPC  C31422125   6.000   1.483  14.035 -0.5202  0.0564 -0.1519
  180DOPC  H14X22126   6.008   1.407  13.955  0.8162  0.9894 -0.9497
  180DOPC  H14Y22127   6.056   1.571  13.997  0.4096 -0.3664  0.2126
  180DOPC  C31522128   6.067   1.422  14.156 -0.0568 -0.3485 -0.1092
  180DOPC  H15X22129   6.087   1.487  14.244  0.3074 -1.3862  0.5909
  180DOPC  H15Y22130   6.171   1.405  14.122 -0.4764 -2.1233 -0.5819
  180DOPC  C31622131   6.008   1.297  14.209 -0.0241  0.3694 -0.1529
  180DOPC  H16X22132   5.929   1.322  14.284 -1.4693 -2.3020 -0.6654
  180DOPC  H16Y22133   5.950   1.248  14.129 -1.0756 -0.4445  1.0675
  180DOPC  C31722134   6.103   1.201  14.290  0.9635  0.7638  0.3410
  180DOPC  H17X22135   6.046   1.110  14.318  0.7939  1.2137  1.5124
  180DOPC  H17Y22136   6.193   1.173  14.231  0.9912  0.5799  0.4729
  180DOPC  C31822137   6.149   1.261  14.420  0.3342 -0.3092  0.2460
  180DOPC  H18X22138   6.062   1.279  14.487 -0.4102  0.7261 -0.9504
  180DOPC  H18Y22139   6.225   1.198  14.471  1.2039 -1.5893 -2.4328
  180DOPC  H18Z22140   6.195   1.356  14.384  2.0081 -2.0512 -2.6102
  181DOPC     N22141   0.767   1.314  11.759 -0.1598 -0.5324  0.1648
  181DOPC   C1222142   0.723   1.269  11.898 -0.0155  0.2782 -0.2802
  181DOPC  H12A22143   0.635   1.208  11.888 -0.2860  0.1597  2.2244
  181DOPC  H12B22144   0.691   1.353  11.958 -0.0006  0.7288 -0.8882
  181DOPC   C1322145   0.807   1.211  11.654 -0.2746  0.1496  0.3198
  181DOPC  H13A22146   0.823   1.260  11.559 -3.8027  1.5037  0.2642
  181DOPC  H13B22147   0.887   1.152  11.695  0.1692  0.3265 -0.2785
  181DOPC  H13C22148   0.731   1.139  11.627  0.3024 -0.1541 -0.5281
  181DOPC   C1422149   0.890   1.396  11.781  0.0017  0.0012 -0.1958
  181DOPC  H14A22150   0.872   1.485  11.841  0.9804  0.8548 -1.1119
  181DOPC  H14B22151   0.965   1.340  11.836 -1.0116  0.0125  1.2632
  181DOPC  H14C22152   0.926   1.429  11.685  1.7091 -0.0513  0.3834
  181DOPC   C1522153   0.665   1.404  11.691 -0.2705  0.7609 -0.5270
  181DOPC  H15A22154   0.704   1.428  11.593 -0.5196 -1.0573 -1.1187
  181DOPC  H15B22155   0.651   1.498  11.742 -1.7500  0.6509 -0.6862
  181DOPC  H15C22156   0.570   1.355  11.676  0.1958 -0.6003  0.7136
  181DOPC   C1122157   0.825   1.191  11.978  0.3923 -0.0664 -0.0816
  181DOPC  H11A22158   0.760   1.126  12.042 -2.0776  1.8288 -0.4887
  181DOPC  H11B22159   0.898   1.135  11.916 -0.4947 -1.0921 -0.2300
  181DOPC     P22160   1.034   1.285  12.108  0.1237  0.2283 -0.0728
  181DOPC   O1322161   1.128   1.326  12.000  0.1303  0.1212 -0.3791
  181DOPC   O1422162   1.057   1.152  12.171 -0.3322 -0.4558  0.0490
  181DOPC   O1222163   0.885   1.286  12.062 -0.3691  0.1160 -0.3515
  181DOPC   O1122164   1.014   1.389  12.222 -0.3898 -0.4092 -0.4674
  181DOPC    C122165   0.900   1.391  12.301  0.5739 -0.0580 -0.4513
  181DOPC    HA22166   0.895   1.297  12.361  1.6379  1.3955  2.0628
  181DOPC    HB22167   0.809   1.407  12.240  0.0089  1.3296  0.6967
  181DOPC    C222168   0.914   1.492  12.419 -0.1363  0.9083  0.0122
  181DOPC    HS22169   1.023   1.490  12.441 -0.6728  1.2978  3.3179
  181DOPC   O2122170   0.842   1.461  12.537  0.0539  0.0909  0.7972
  181DOPC   C2122171   0.894   1.372  12.616  0.3346 -0.0848 -0.1142
  181DOPC   O2222172   1.006   1.322  12.605  0.9581 -0.1518 -0.1431
  181DOPC   C2222173   0.789   1.331  12.724 -0.2466  0.7625 -0.2944
  181DOPC   H2R22174   0.833   1.271  12.806  1.8526  2.2793 -0.2510
  181DOPC   H2S22175   0.728   1.258  12.664 -0.6357  2.4340 -2.0304
  181DOPC    C322176   0.877   1.637  12.369 -0.2759  0.2525  0.3422
  181DOPC    HX22177   0.777   1.632  12.321 -0.2179 -0.2233  0.2650
  181DOPC    HY22178   0.944   1.667  12.286  0.7922 -0.2688  1.0012
  181DOPC   O3122179   0.876   1.744  12.467 -0.0217  0.8536  0.2158
  181DOPC   C3122180   1.002   1.789  12.496 -0.6014 -0.4972  0.3434
  181DOPC   O3222181   1.104   1.750  12.444 -0.2641 -0.1902 -0.1566
  181DOPC   C3222182   0.983   1.911  12.583  0.1771 -0.2599  0.2294
  181DOPC   H2X22183   0.927   1.982  12.518  0.0504  0.1411  0.7698
  181DOPC   H2Y22184   0.912   1.870  12.657  0.6160 -1.4123  0.0348
  181DOPC   C2322185   0.707   1.442  12.785 -0.2097 -0.5067  0.0204
  181DOPC   H3R22186   0.619   1.388  12.828 -1.5308 -0.6344 -2.6133
  181DOPC   H3S22187   0.664   1.521  12.720 -1.3213 -1.1925 -0.1048
  181DOPC   C2422188   0.780   1.515  12.901 -0.0132 -0.5873 -0.6854
  181DOPC   H4R22189   0.820   1.435  12.967  1.0073  1.4045  1.2532
  181DOPC   H4S22190   0.704   1.571  12.960  0.7562 -1.1083  0.8546
  181DOPC   C2522191   0.892   1.620  12.859  0.5121  0.3565  0.0692
  181DOPC   H5R22192   0.854   1.708  12.802 -0.4415 -0.8272 -1.1720
  181DOPC   H5S22193   0.962   1.569  12.790 -0.2596  2.2340 -2.2392
  181DOPC   C2622194   0.977   1.670  12.974 -0.3430 -0.2204  0.3106
  181DOPC   H6R22195   1.005   1.583  13.037  1.9929 -1.1693 -1.8740
  181DOPC   H6S22196   0.908   1.734  13.034  0.3090  0.6160  0.1886
  181DOPC   C2722197   1.099   1.740  12.927  0.5100 -0.7415  0.2398
  181DOPC   H7R22198   1.077   1.849  12.927  0.1481 -0.8089 -0.6662
  181DOPC   H7S22199   1.112   1.712  12.820 -1.7183  3.8257 -1.4816
  181DOPC   C2822200   1.214   1.714  13.027  0.1044  0.6040  0.1780
  181DOPC   H8R22201   1.227   1.604  13.033 -2.5655  0.1135 -1.3378
  181DOPC   H8S22202   1.182   1.726  13.133  1.6639 -2.2933  1.0884
  181DOPC   C2922203   1.350   1.781  12.999 -1.0298 -0.3105 -1.1720
  181DOPC   H9R22204   1.419   1.728  12.931  3.2305  1.1998  1.6384
  181DOPC  C21022205   1.413   1.893  13.045  0.0776  0.0300 -0.9553
  181DOPC  H10R22206   1.522   1.901  13.034  0.2697  2.0938  1.3941
  181DOPC  C21122207   1.365   1.975  13.162 -0.6835  0.2053  0.1079
  181DOPC  H11R22208   1.276   1.925  13.206 -0.7681  0.1614 -0.1155
  181DOPC  H11S22209   1.331   2.076  13.130  0.5194  0.3483 -0.7741
  181DOPC  C21222210   1.471   1.979  13.275  0.4055  0.0972 -0.4477
  181DOPC  H12R22211   1.572   2.008  13.239  0.6850 -1.5961 -1.1297
  181DOPC  H12S22212   1.478   1.873  13.309  0.4877 -0.3887 -1.9120
  181DOPC  C21322213   1.438   2.059  13.402 -0.4918 -0.0999  0.0433
  181DOPC  H13R22214   1.331   2.043  13.431 -1.1520  1.7828 -1.1407
  181DOPC  H13S22215   1.443   2.169  13.385 -1.2751  0.1161  1.0271
  181DOPC  C21422216   1.539   2.041  13.524 -0.1990 -0.0556  0.1811
  181DOPC  H14R22217   1.641   2.019  13.486 -0.4206 -1.4601  0.3218
  181DOPC  H14S22218   1.519   1.940  13.567  1.8218 -0.3064  0.6584
  181DOPC  C21522219   1.546   2.153  13.631 -0.4978  0.3134  0.0915
  181DOPC  H15R22220   1.448   2.181  13.675  0.9880  2.6050  2.2108
  181DOPC  H15S22221   1.577   2.246  13.578 -1.1243 -0.3560 -1.5046
  181DOPC  C21622222   1.652   2.114  13.730  0.2978  0.1177 -0.1012
  181DOPC  H16R22223   1.746   2.099  13.674  1.0280 -0.5199  1.2650
  181DOPC  H16S22224   1.625   2.020  13.783  3.5148 -1.1216 -0.4380
  181DOPC  C21722225   1.667   2.224  13.834 -0.1840  0.1593 -0.0467
  181DOPC  H17R22226   1.570   2.234  13.887  0.6585 -2.0092  2.0947
  181DOPC  H17S22227   1.691   2.322  13.787  0.7198  0.0440  0.1394
  181DOPC  C21822228   1.784   2.204  13.939  0.0556 -0.7002  0.3768
  181DOPC  H18R22229   1.761   2.111  13.995 -1.6763  0.8771  2.4635
  181DOPC  H18S22230   1.802   2.290  14.007  0.0250 -0.0491 -0.4204
  181DOPC  H18T22231   1.879   2.184  13.887  0.5334 -2.1036  1.7319
  181DOPC   C3322232   1.107   1.986  12.636 -0.6488 -0.7758  0.4118
  181DOPC   H3X22233   1.158   2.037  12.551 -1.7662 -0.2086  0.0612
  181DOPC   H3Y22234   1.167   1.912  12.692 -1.7754 -0.8750  1.5340
  181DOPC   C3422235   1.064   2.102  12.728 -0.4477  0.2649 -0.1270
  181DOPC   H4X22236   0.969   2.060  12.767 -1.0512  0.2872 -1.5290
  181DOPC   H4Y22237   1.042   2.192  12.667  1.1723  0.5470 -0.3545
  181DOPC   C3522238   1.154   2.121  12.857  0.8505  0.3614  0.4662
  181DOPC   H5X22239   1.156   2.029  12.920  0.6313  0.6146  0.8471
  181DOPC   H5Y22240   1.106   2.199  12.920  1.3069  2.1926 -1.3694
  181DOPC   C3622241   1.304   2.158  12.833 -0.2418  0.6857 -0.6178
  181DOPC   H6X22242   1.345   2.168  12.936 -2.0011  1.1142  0.0719
  181DOPC   H6Y22243   1.363   2.075  12.788 -0.1730 -0.5128  1.5463
  181DOPC   C3722244   1.315   2.294  12.766 -0.5970  0.3007 -0.1440
  181DOPC   H7X22245   1.290   2.284  12.658  2.1299  2.1406 -1.0227
  181DOPC   H7Y22246   1.237   2.361  12.809 -1.1362  0.6579 -1.6104
  181DOPC   C3822247   1.455   2.356  12.776  0.2176  0.1422  0.9397
  181DOPC   H8X22248   1.503   2.360  12.876 -2.0344 -0.3757  2.1107
  181DOPC   H8Y22249   1.437   2.457  12.734  1.6210 -0.9465 -2.6501
  181DOPC   C3922250   1.558   2.290  12.685 -0.3631  0.0163  0.1266
  181DOPC   H9X22251   1.530   2.292  12.579  0.6052  1.3765 -0.1291
  181DOPC  C31022252   1.684   2.249  12.703 -0.5245  0.4048 -0.6962
  181DOPC  H10X22253   1.741   2.210  12.617 -1.7198 -1.1135 -0.8260
  181DOPC  C31122254   1.753   2.243  12.835 -0.5768 -0.0008  0.0782
  181DOPC  H11X22255   1.715   2.324  12.902  1.3310  0.4353  0.7127
  181DOPC  H11Y22256   1.859   2.262  12.808 -1.1625  1.8459 -1.0630
  181DOPC  C31222257   1.740   2.105  12.906 -0.6604 -0.1841 -0.0836
  181DOPC  H12X22258   1.779   2.030  12.834 -0.1448  0.5828 -0.6155
  181DOPC  H12Y22259   1.631   2.083  12.916 -0.1754 -2.1879  1.7224
  181DOPC  C31322260   1.814   2.092  13.044 -0.5224 -0.2042 -0.6229
  181DOPC  H13X22261   1.775   1.999  13.090 -0.3255  1.1291  2.4825
  181DOPC  H13Y22262   1.922   2.073  13.025 -0.1782 -0.5918  1.5451
  181DOPC  C31422263   1.809   2.214  13.139 -0.6236 -0.3143 -0.0997
  181DOPC  H14X22264   1.879   2.291  13.101  0.4909 -1.4046 -0.3055
  181DOPC  H14Y22265   1.702   2.244  13.136 -0.6728 -0.5296 -0.8109
  181DOPC  C31522266   1.845   2.194  13.287 -0.0960 -0.5240  0.3907
  181DOPC  H15X22267   1.955   2.181  13.295  0.0484  0.0808 -0.4902
  181DOPC  H15Y22268   1.794   2.097  13.306 -0.5246 -0.8567 -2.0706
  181DOPC  C31622269   1.788   2.305  13.371  0.1248 -0.0863  0.1347
  181DOPC  H16X22270   1.681   2.323  13.348  0.4143  1.0485 -0.3706
  181DOPC  H16Y22271   1.797   2.267  13.475  0.5032 -0.0807  0.1040
  181DOPC  C31722272   1.869   2.437  13.374  0.2748  0.4363 -0.2488
  181DOPC  H17X22273   1.968   2.405  13.411 -1.1421 -4.5753 -0.0575
  181DOPC  H17Y22274   1.876   2.465  13.267 -0.1273 -1.9121 -0.9524
  181DOPC  C31822275   1.810   2.546  13.464  0.4543 -0.0120 -0.4495
  181DOPC  H18X22276   1.876   2.633  13.447  0.1315  0.3417  0.1024
  181DOPC  H18Y22277   1.706   2.566  13.431  0.9054 -0.3405 -2.1661
  181DOPC  H18Z22278   1.817   2.519  13.572 -0.2122 -0.5566 -0.5271
  182DOPC     N22279   1.093   6.517  12.516 -0.1671 -0.1613 -0.0441
  182DOPC   C1222280   1.004   6.600  12.601  0.5135  0.4083  0.8967
  182DOPC  H12A22281   1.050   6.591  12.698 -0.7517 -1.4218  1.3688
  182DOPC  H12B22282   0.913   6.543  12.606  1.3072 -1.4298 -2.5155
  182DOPC   C1322283   1.088   6.378  12.570  0.1252 -0.0291  0.1205
  182DOPC  H13A22284   0.989   6.334  12.568  0.8486 -1.7083 -0.8919
  182DOPC  H13B22285   1.144   6.308  12.509 -1.0845 -1.5007  0.6307
  182DOPC  H13C22286   1.112   6.371  12.675 -0.1245 -0.1057  0.1720
  182DOPC   C1422287   1.230   6.571  12.523  0.1129 -1.0551  0.5720
  182DOPC  H14A22288   1.224   6.678  12.508  0.3840 -0.9015  1.5286
  182DOPC  H14B22289   1.285   6.555  12.614 -0.6119  1.9316  1.6657
  182DOPC  H14C22290   1.292   6.528  12.446  2.2887 -0.3240  1.8126
  182DOPC   C1522291   1.053   6.516  12.377  0.4787  0.0346 -0.2304
  182DOPC  H15A22292   1.105   6.439  12.322 -0.8475 -1.4465  0.4970
  182DOPC  H15B22293   1.058   6.616  12.337 -0.4742  0.2128  0.0648
  182DOPC  H15C22294   0.947   6.495  12.367 -0.5009  2.4534  3.0576
  182DOPC   C1122295   0.969   6.741  12.564 -0.0575 -0.1531 -0.2678
  182DOPC  H11A22296   0.921   6.754  12.464  0.5421 -0.3627 -0.5898
  182DOPC  H11B22297   0.899   6.773  12.644 -1.5038 -1.7048 -0.8397
  182DOPC     P22298   1.159   6.865  12.704  0.2544  0.1347 -0.2691
  182DOPC   O1322299   1.134   7.010  12.740  0.7991  0.9746 -0.8368
  182DOPC   O1422300   1.300   6.825  12.675 -0.0285 -0.5886 -0.3291
  182DOPC   O1222301   1.082   6.827  12.572  0.0689 -0.2194  0.1175
  182DOPC   O1122302   1.096   6.770  12.805  0.4264  0.0338 -0.1060
  182DOPC    C122303   1.170   6.704  12.910  0.4372 -0.4553  0.1446
  182DOPC    HA22304   1.132   6.759  12.999 -1.8227  1.5594 -1.9474
  182DOPC    HB22305   1.280   6.701  12.890  0.1632 -1.6145 -1.3121
  182DOPC    C222306   1.138   6.551  12.924 -0.1368 -0.3150  0.0755
  182DOPC    HS22307   1.162   6.505  12.825  0.1591 -1.6041  0.7267
  182DOPC   O2122308   1.004   6.531  12.966 -0.1811 -0.4297  0.3257
  182DOPC   C2122309   0.958   6.409  12.943 -0.6992 -0.1789  0.4705
  182DOPC   O2222310   1.019   6.320  12.883 -0.2059 -0.4325  0.1776
  182DOPC   C2222311   0.820   6.387  12.996  0.1061  0.1368 -0.2493
  182DOPC   H2R22312   0.787   6.285  12.970 -2.4309  1.2787 -2.0004
  182DOPC   H2S22313   0.756   6.463  12.945 -2.8189 -2.0472 -0.0656
  182DOPC    C322314   1.240   6.490  13.034  0.4521 -0.5339  0.3525
  182DOPC    HX22315   1.336   6.527  12.992 -0.4339  0.6928 -0.6881
  182DOPC    HY22316   1.249   6.379  13.030 -0.8599 -0.6597  0.4580
  182DOPC   O3122317   1.240   6.553  13.161 -0.0577 -0.1384 -0.2921
  182DOPC   C3122318   1.185   6.484  13.255 -0.6063  0.2432  0.4159
  182DOPC   O3222319   1.148   6.365  13.244  0.2696 -0.5606  0.8801
  182DOPC   C3222320   1.171   6.569  13.380  0.5346  0.0690 -0.0370
  182DOPC   H2X22321   1.236   6.658  13.368  0.4157 -0.0656 -2.0480
  182DOPC   H2Y22322   1.066   6.605  13.383 -0.1957 -1.9218 -0.4612
  182DOPC   C2322323   0.820   6.416  13.153  0.4998 -0.8759  0.3729
  182DOPC   H3R22324   0.841   6.525  13.158 -1.5601 -0.3670 -0.7753
  182DOPC   H3S22325   0.901   6.360  13.204  1.0931  2.2520  3.2577
  182DOPC   C2422326   0.679   6.383  13.211 -0.5605  0.2166 -0.3158
  182DOPC   H4R22327   0.647   6.286  13.167 -1.0246  0.3099 -0.1898
  182DOPC   H4S22328   0.608   6.454  13.165 -0.4909  0.4519 -0.0625
  182DOPC   C2522329   0.664   6.388  13.362  0.0470 -0.2079  0.6005
  182DOPC   H5R22330   0.735   6.308  13.390 -0.0474 -1.2527 -1.8688
  182DOPC   H5S22331   0.560   6.359  13.390 -0.0226 -1.3652 -0.7365
  182DOPC   C2622332   0.691   6.529  13.429  0.0762  0.1742 -0.3522
  182DOPC   H6R22333   0.731   6.602  13.356  1.1676 -0.3345 -0.2822
  182DOPC   H6S22334   0.767   6.515  13.509  1.9793  0.0790 -2.0896
  182DOPC   C2722335   0.570   6.596  13.497  0.3892 -0.5189  0.3930
  182DOPC   H7R22336   0.488   6.620  13.426  0.5807  1.4728  0.7779
  182DOPC   H7S22337   0.608   6.696  13.526  1.0237 -0.1695 -1.5417
  182DOPC   C2822338   0.521   6.512  13.622 -0.4312 -1.2065 -0.0651
  182DOPC   H8R22339   0.517   6.404  13.596 -2.2225 -0.9605 -0.9928
  182DOPC   H8S22340   0.417   6.543  13.643  0.2229 -0.1332  1.8076
  182DOPC   C2922341   0.607   6.541  13.747  0.2354  0.2235 -0.1988
  182DOPC   H9R22342   0.712   6.557  13.721  0.1555 -0.6872 -1.1283
  182DOPC  C21022343   0.563   6.539  13.874 -0.0192 -0.7179  0.2648
  182DOPC  H10R22344   0.635   6.565  13.953  1.6456 -2.1121 -0.7110
  182DOPC  C21122345   0.429   6.497  13.918  0.7123 -0.1595 -0.2393
  182DOPC  H11R22346   0.379   6.420  13.855 -1.8315  1.9854 -1.0049
  182DOPC  H11S22347   0.372   6.587  13.887  1.5672 -0.2426 -2.1598
  182DOPC  C21222348   0.427   6.463  14.068 -0.1864 -0.6599  0.1153
  182DOPC  H12R22349   0.320   6.477  14.096  0.1939 -2.1682  2.7121
  182DOPC  H12S22350   0.477   6.544  14.126 -0.7711  1.6494 -2.4456
  182DOPC  C21322351   0.477   6.323  14.115 -0.5009  0.3822  0.9520
  182DOPC  H13R22352   0.586   6.317  14.092 -0.6974  0.8285 -0.1221
  182DOPC  H13S22353   0.439   6.241  14.051  1.1022  0.2578  0.1185
  182DOPC  C21422354   0.439   6.293  14.261 -0.5463  0.4659  0.4402
  182DOPC  H14R22355   0.331   6.288  14.286 -0.3839 -0.1796  1.0442
  182DOPC  H14S22356   0.476   6.388  14.307  0.6172  1.1372 -1.7083
  182DOPC  C21522357   0.528   6.178  14.320  0.9147  0.3271  0.3751
  182DOPC  H15R22358   0.633   6.184  14.285  0.5642  1.5146 -0.5568
  182DOPC  H15S22359   0.497   6.081  14.274  0.7793  0.4282  0.2502
  182DOPC  C21622360   0.538   6.171  14.467  0.2089  0.3447 -0.8246
  182DOPC  H16R22361   0.442   6.142  14.515  0.1142  1.8371 -0.0294
  182DOPC  H16S22362   0.564   6.272  14.506 -2.2573  0.7529 -0.0807
  182DOPC  C21722363   0.646   6.066  14.507  0.1653 -0.3908 -0.1709
  182DOPC  H17R22364   0.673   6.104  14.608  0.8847  1.3217 -0.9685
  182DOPC  H17S22365   0.735   6.076  14.442  0.0230  3.9267  0.0304
  182DOPC  C21822366   0.592   5.926  14.521 -1.0346  0.3305 -0.6879
  182DOPC  H18R22367   0.672   5.857  14.554 -2.6136 -0.4032  1.9595
  182DOPC  H18S22368   0.566   5.883  14.422  0.8200 -0.9763 -0.6532
  182DOPC  H18T22369   0.509   5.923  14.595 -0.3407 -1.4233  0.0699
  182DOPC   C3322370   1.225   6.504  13.508 -0.1158 -0.0783  0.2563
  182DOPC   H3X22371   1.169   6.410  13.529 -0.8607  0.0356 -1.1470
  182DOPC   H3Y22372   1.200   6.572  13.593 -0.8153 -1.9286  1.6030
  182DOPC   C3422373   1.372   6.471  13.503  0.4262 -0.0917 -0.0952
  182DOPC   H4X22374   1.424   6.567  13.484 -1.1808  0.8135 -0.0224
  182DOPC   H4Y22375   1.398   6.405  13.417 -1.5628  1.3288 -1.8918
  182DOPC   C3522376   1.420   6.405  13.632  0.0321 -0.1636  0.3249
  182DOPC   H5X22377   1.361   6.456  13.711  0.5808 -0.5880  1.0174
  182DOPC   H5Y22378   1.528   6.415  13.656 -0.0931  3.1690  0.0296
  182DOPC   C3622379   1.394   6.252  13.635 -0.6051  0.8986 -0.2603
  182DOPC   H6X22380   1.288   6.237  13.606 -0.3142  0.2006 -1.0184
  182DOPC   H6Y22381   1.452   6.202  13.554 -0.2136 -1.7564  1.5151
  182DOPC   C3722382   1.421   6.184  13.774 -0.1087  0.5954  0.1091
  182DOPC   H7X22383   1.340   6.219  13.842 -0.3610  1.2159 -0.5087
  182DOPC   H7Y22384   1.398   6.077  13.759  1.3263 -0.0292  1.9044
  182DOPC   C3822385   1.571   6.189  13.820 -0.3563 -0.0309  0.5308
  182DOPC   H8X22386   1.574   6.134  13.916 -0.7640 -0.9432  0.0381
  182DOPC   H8Y22387   1.584   6.297  13.839  1.9780 -0.1514 -0.0751
  182DOPC   C3922388   1.668   6.126  13.722  0.7803 -0.7640  0.0854
  182DOPC   H9X22389   1.638   6.027  13.683  2.1320 -1.8503  1.6616
  182DOPC  C31022390   1.774   6.192  13.665  0.5767  0.2760  0.2456
  182DOPC  H10X22391   1.840   6.129  13.603  0.0731 -0.0662  0.0531
  182DOPC  C31122392   1.829   6.332  13.682  0.8856 -0.1609 -0.3213
  182DOPC  H11X22393   1.925   6.309  13.733  0.2553 -0.1328  0.9270
  182DOPC  H11Y22394   1.783   6.410  13.746  2.1732  0.7479 -0.4570
  182DOPC  C31222395   1.873   6.395  13.558 -0.8082  0.0113 -0.2986
  182DOPC  H12X22396   1.958   6.349  13.503 -0.7770  0.7421 -0.8914
  182DOPC  H12Y22397   1.915   6.496  13.579 -1.2110  0.4133 -1.3490
  182DOPC  C31322398   1.755   6.430  13.457  0.1934 -0.0657  0.1166
  182DOPC  H13X22399   1.698   6.337  13.440 -1.4664  0.5763  1.7525
  182DOPC  H13Y22400   1.694   6.503  13.515 -1.4550 -2.5056  1.6066
  182DOPC  C31422401   1.795   6.492  13.322 -0.2798  0.3259 -0.0793
  182DOPC  H14X22402   1.891   6.548  13.326 -0.3091  0.3710 -0.0127
  182DOPC  H14Y22403   1.800   6.400  13.259  0.9179 -0.5175  1.2074
  182DOPC  C31522404   1.680   6.591  13.281 -0.4579  0.6464 -0.1395
  182DOPC  H15X22405   1.679   6.670  13.359 -0.8678 -1.6521  2.2976
  182DOPC  H15Y22406   1.583   6.537  13.288  0.4389 -1.0844 -0.4768
  182DOPC  C31622407   1.703   6.636  13.128  0.1689 -0.2555  0.8631
  182DOPC  H16X22408   1.806   6.679  13.128 -0.6245  1.8082 -0.0880
  182DOPC  H16Y22409   1.706   6.544  13.066  0.9301  0.4184 -0.1558
  182DOPC  C31722410   1.602   6.731  13.063  0.2096 -0.5438  1.0819
  182DOPC  H17X22411   1.623   6.753  12.956 -3.1067 -3.1335 -0.2767
  182DOPC  H17Y22412   1.501   6.688  13.048  0.9646 -1.7825 -0.8958
  182DOPC  C31822413   1.581   6.858  13.150  0.5036  0.7234  0.2085
  182DOPC  H18X22414   1.533   6.946  13.102 -0.6045 -1.0650 -2.1903
  182DOPC  H18Y22415   1.548   6.835  13.254  0.2492 -0.9939 -0.2297
  182DOPC  H18Z22416   1.685   6.892  13.165  0.6191  1.7250 -2.3051
  183DOPC     N22417   6.559   2.240  11.527  0.1896 -0.5440 -0.7800
  183DOPC   C1222418   6.548   2.252  11.685  0.5512  0.4593  0.7077
  183DOPC  H12A22419   6.636   2.213  11.733 -0.3624 -0.9961  1.2672
  183DOPC  H12B22420   6.478   2.177  11.718  3.1240 -2.3686  0.1294
  183DOPC   C1322421   6.683   2.313  11.490 -0.0563 -0.1327  0.4000
  183DOPC  H13A22422   6.661   2.417  11.472 -0.5739 -0.0706  1.3648
  183DOPC  H13B22423   6.753   2.300  11.572  1.3026  0.0555 -0.6795
  183DOPC  H13C22424   6.716   2.280  11.393 -0.1943 -1.1819  0.7045
  183DOPC   C1422425   6.443   2.305  11.465  0.5775 -0.7237  0.0720
  183DOPC  H14A22426   6.441   2.409  11.494 -0.8228 -0.0734 -2.0832
  183DOPC  H14B22427   6.441   2.294  11.357  0.0080 -0.0368  0.0031
  183DOPC  H14C22428   6.347   2.261  11.487  0.4541  0.1820  1.4363
  183DOPC   C1522429   6.577   2.093  11.496  0.2107 -0.3432  0.8621
  183DOPC  H15A22430   6.489   2.033  11.514 -0.9384  0.6006 -1.1123
  183DOPC  H15B22431   6.656   2.057  11.559 -1.1990  1.2490  3.7077
  183DOPC  H15C22432   6.601   2.081  11.391 -0.1317  2.7437  0.3301
  183DOPC   C1122433   6.512   2.380  11.756 -0.2141 -0.3363 -0.1802
  183DOPC  H11A22434   6.525   2.359  11.865  1.4583 -1.7550 -0.6008
  183DOPC  H11B22435   6.592   2.453  11.732  0.2014 -0.3294  1.1496
  183DOPC     P22436   6.360   2.578  11.731  0.5854  0.1182  0.0838
  183DOPC   O1322437   6.221   2.608  11.774 -0.0255 -0.0701  0.2769
  183DOPC   O1422438   6.390   2.619  11.593 -0.1041 -0.0897 -0.0053
  183DOPC   O1222439   6.378   2.423  11.745 -0.8127 -0.1740  0.1885
  183DOPC   O1122440   6.469   2.639  11.829 -0.0361 -0.4073  0.3549
  183DOPC    C122441   6.436   2.622  11.971 -0.6119 -0.1397  0.4750
  183DOPC    HA22442   6.379   2.530  11.999 -0.4024 -0.6411 -0.6913
  183DOPC    HB22443   6.375   2.713  11.991  1.6036  2.5005 -3.5575
  183DOPC    C222444   6.564   2.610  12.059 -0.6226 -0.0588  0.3500
  183DOPC    HS22445   6.634   2.543  12.005 -1.2730 -0.1884 -0.3659
  183DOPC   O2122446   6.541   2.563  12.192 -0.0433  0.2942  0.0243
  183DOPC   C2122447   6.572   2.440  12.214 -0.3362 -0.8341  0.7335
  183DOPC   O2222448   6.628   2.364  12.133  0.0260  0.0640 -0.0870
  183DOPC   C2222449   6.547   2.399  12.355 -0.5590  0.5947  0.2610
  183DOPC   H2R22450   6.489   2.305  12.359 -0.9100  0.7689  5.0022
  183DOPC   H2S22451   6.483   2.475  12.406 -3.4331 -0.0369 -2.1683
  183DOPC    C322452   6.634   2.751  12.084 -0.1616 -0.3001  0.0269
  183DOPC    HX22453   6.558   2.805  12.144  0.5811 -0.8197  1.4968
  183DOPC    HY22454   6.645   2.797  11.984 -1.4792 -1.6910 -0.8069
  183DOPC   O3122455   6.754   2.752  12.164 -0.0963  0.0182  0.6467
  183DOPC   C3122456   6.867   2.719  12.094  0.1957 -0.1170 -0.0443
  183DOPC   O3222457   6.871   2.685  11.977  0.1622  0.0843 -0.5210
  183DOPC   C3222458   6.993   2.752  12.182  0.6405 -0.4221 -0.1205
  183DOPC   H2X22459   7.073   2.774  12.109 -0.1944  0.1372 -0.8867
  183DOPC   H2Y22460   6.977   2.846  12.238 -0.9951 -1.3723  1.1075
  183DOPC   C2322461   6.675   2.371  12.436  0.1763 -0.0148 -0.2443
  183DOPC   H3R22462   6.741   2.459  12.457  1.1246 -1.0073  1.1414
  183DOPC   H3S22463   6.746   2.297  12.394 -1.2243 -0.7912 -1.2987
  183DOPC   C2422464   6.635   2.317  12.573 -0.7348  0.2833 -0.5634
  183DOPC   H4R22465   6.573   2.225  12.563  1.6767 -1.8438  2.1622
  183DOPC   H4S22466   6.564   2.386  12.623  0.7054  0.1206  1.8634
  183DOPC   C2522467   6.755   2.289  12.664 -0.2083 -0.2121 -0.0604
  183DOPC   H5R22468   6.829   2.372  12.657 -2.7694  2.1390 -1.4299
  183DOPC   H5S22469   6.791   2.193  12.623  0.0133  0.7878 -2.3824
  183DOPC   C2622470   6.724   2.255  12.813  0.0644  0.2188 -0.2488
  183DOPC   H6R22471   6.816   2.219  12.865 -2.4622 -1.0939  3.7795
  183DOPC   H6S22472   6.655   2.168  12.809 -0.2547  0.5256 -2.3982
  183DOPC   C2722473   6.662   2.378  12.882  0.5067  0.7272 -0.3312
  183DOPC   H7R22474   6.559   2.402  12.848  0.7389  0.9331 -0.9025
  183DOPC   H7S22475   6.734   2.463  12.879 -0.8998  1.9879  0.3054
  183DOPC   C2822476   6.662   2.346  13.035  0.4939 -0.4294 -0.8993
  183DOPC   H8R22477   6.763   2.315  13.069  0.2926  1.6969  2.0518
  183DOPC   H8S22478   6.596   2.259  13.053 -1.5961  1.7124  3.1619
  183DOPC   C2922479   6.630   2.456  13.131  0.2177 -0.0156 -0.4561
  183DOPC   H9R22480   6.561   2.535  13.096  0.9205  0.4476 -0.8289
  183DOPC  C21022481   6.675   2.469  13.259  0.5230  0.8858  0.6530
  183DOPC  H10R22482   6.645   2.555  13.321  0.0989  3.6999 -3.0853
  183DOPC  C21122483   6.758   2.364  13.329 -0.6496  0.2388 -0.0533
  183DOPC  H11R22484   6.864   2.396  13.337  0.2307 -2.5185  0.3415
  183DOPC  H11S22485   6.753   2.264  13.282  1.9473 -0.0435  0.1251
  183DOPC  C21222486   6.691   2.346  13.460  0.3689  0.2491 -0.2022
  183DOPC  H12R22487   6.592   2.302  13.434  0.0217 -1.0071  2.7910
  183DOPC  H12S22488   6.666   2.439  13.514  0.8442 -0.6674  1.6733
  183DOPC  C21322489   6.769   2.257  13.557 -0.3238 -0.1342 -0.2552
  183DOPC  H13R22490   6.772   2.160  13.503  1.6123  0.2582 -0.9412
  183DOPC  H13S22491   6.708   2.252  13.650  0.2727  1.8672  0.2854
  183DOPC  C21422492   6.914   2.284  13.590  0.2587 -0.4809 -0.5415
  183DOPC  H14R22493   6.925   2.392  13.612  0.1722 -0.6077  0.1481
  183DOPC  H14S22494   6.977   2.265  13.501 -1.4842 -3.1679 -1.3362
  183DOPC  C21522495   6.972   2.181  13.698 -0.0627  0.8381  0.4256
  183DOPC  H15R22496   7.081   2.174  13.679 -0.1805  0.0891  0.0014
  183DOPC  H15S22497   6.924   2.082  13.681  0.8048  0.4690  0.0494
  183DOPC  C21622498   6.950   2.235  13.837 -0.0005 -0.3231 -0.3985
  183DOPC  H16R22499   6.840   2.243  13.846 -0.3012 -0.0775 -3.3306
  183DOPC  H16S22500   6.991   2.338  13.833 -0.9390  0.0661 -0.1695
  183DOPC  C21722501   7.007   2.145  13.957  0.8932 -0.3085 -0.7066
  183DOPC  H17R22502   7.116   2.148  13.936  0.8232  2.3892 -1.1465
  183DOPC  H17S22503   6.959   2.045  13.954 -0.1107  0.1496 -0.5996
  183DOPC  C21822504   6.979   2.222  14.087  0.3270  0.0104 -0.4306
  183DOPC  H18R22505   7.019   2.156  14.167  0.3408 -3.2917 -2.9382
  183DOPC  H18S22506   6.872   2.251  14.087  0.2661 -0.0720 -2.2152
  183DOPC  H18T22507   7.035   2.318  14.091  1.3600 -0.4963 -1.8178
  183DOPC   C3322508   7.041   2.634  12.259 -0.0985  0.4039  0.2368
  183DOPC   H3X22509   7.149   2.643  12.284  0.2194  1.1693 -1.2648
  183DOPC   H3Y22510   7.041   2.540  12.199  0.6987  0.4534  0.1401
  183DOPC   C3422511   6.972   2.603  12.386  0.7409 -0.0969 -0.4691
  183DOPC   H4X22512   7.003   2.515  12.446 -1.5055  0.5911  1.8705
  183DOPC   H4Y22513   6.867   2.616  12.355  0.3282 -2.3665 -0.2046
  183DOPC   C3522514   6.976   2.726  12.479 -0.2660 -0.0310 -0.2063
  183DOPC   H5X22515   6.933   2.818  12.434  1.6093  0.5148 -0.9741
  183DOPC   H5Y22516   7.080   2.749  12.512 -0.2838 -0.6281  0.2875
  183DOPC   C3622517   6.881   2.705  12.601  0.2317  0.2357  0.4402
  183DOPC   H6X22518   6.785   2.690  12.548  0.3251 -0.2728  0.4154
  183DOPC   H6Y22519   6.912   2.615  12.658  1.1013  1.2651  1.6590
  183DOPC   C3722520   6.893   2.828  12.695  0.3700 -0.4381  0.8665
  183DOPC   H7X22521   6.998   2.845  12.729  0.6613  0.9028 -0.5650
  183DOPC   H7Y22522   6.860   2.914  12.634 -3.4711 -2.4368 -0.1929
  183DOPC   C3822523   6.804   2.810  12.816  1.1417 -0.2516 -0.6149
  183DOPC   H8X22524   6.844   2.715  12.858 -0.8511 -2.4006 -3.2458
  183DOPC   H8Y22525   6.697   2.796  12.790  1.1256  1.4320 -1.6131
  183DOPC   C3922526   6.813   2.926  12.905  0.5143 -0.1834 -0.7171
  183DOPC   H9X22527   6.801   3.022  12.853  0.1651 -2.1155 -4.5563
  183DOPC  C31022528   6.844   2.930  13.039  0.0247  0.0119 -0.4776
  183DOPC  H10X22529   6.866   3.022  13.095  1.3378 -2.2180  3.0274
  183DOPC  C31122530   6.882   2.809  13.122  0.6791 -0.5860  0.7414
  183DOPC  H11X22531   6.953   2.747  13.062 -0.0021 -0.1469 -0.5502
  183DOPC  H11Y22532   6.790   2.751  13.144  0.4479  0.2233  2.0061
  183DOPC  C31222533   6.939   2.870  13.254  0.2406 -0.0383 -0.3731
  183DOPC  H12X22534   6.862   2.936  13.297 -1.0888 -1.9141  0.2739
  183DOPC  H12Y22535   7.037   2.922  13.241 -1.0023  2.2584 -1.1167
  183DOPC  C31322536   6.958   2.765  13.371 -0.3829  0.0933  0.3790
  183DOPC  H13X22537   6.859   2.723  13.400 -1.3493  1.8920 -0.1823
  183DOPC  H13Y22538   7.032   2.684  13.354  0.7016  0.8749  1.2932
  183DOPC  C31422539   7.014   2.833  13.506 -0.5255 -0.3093  0.2986
  183DOPC  H14X22540   7.108   2.889  13.487 -1.0174  1.1649  1.8764
  183DOPC  H14Y22541   6.938   2.903  13.548  1.2069  2.7226 -1.2391
  183DOPC  C31522542   7.053   2.732  13.611 -0.1180 -0.0917 -0.5475
  183DOPC  H15X22543   7.142   2.675  13.577  0.2079 -0.4219  0.7883
  183DOPC  H15Y22544   6.978   2.649  13.610  0.1684 -0.3917 -3.1542
  183DOPC  C31622545   7.080   2.784  13.758  0.7949 -0.1113  0.0018
  183DOPC  H16X22546   7.152   2.868  13.755  2.3932 -1.4157 -0.2686
  183DOPC  H16Y22547   6.987   2.828  13.800 -1.0470 -1.5093 -2.3185
  183DOPC  C31722548   7.116   2.666  13.854  0.1898 -0.5038  0.3854
  183DOPC  H17X22549   7.021   2.614  13.875  0.1230  0.0599  1.5135
  183DOPC  H17Y22550   7.193   2.607  13.799  0.1674  0.9851 -1.3333
  183DOPC  C31822551   7.167   2.719  13.984 -0.6431  0.3093  0.6819
  183DOPC  H18X22552   7.182   2.652  14.072  1.8628  0.2242  0.2556
  183DOPC  H18Y22553   7.270   2.756  13.971 -1.1948  2.0902  1.1497
  183DOPC  H18Z22554   7.105   2.802  14.024  1.3350  1.0328  2.3957
  184DOPC     N22555   4.259   5.902  12.225  0.7076 -0.2685  0.4613
  184DOPC   C1222556   4.192   6.031  12.184 -0.3898  0.8711  0.3027
  184DOPC  H12A22557   4.231   6.051  12.086  1.4506 -0.0373  0.8041
  184DOPC  H12B22558   4.225   6.113  12.246  0.6194  1.3617 -0.8546
  184DOPC   C1322559   4.178   5.793  12.169 -0.5135 -0.4266  0.0456
  184DOPC  H13A22560   4.163   5.800  12.062  1.4661 -3.0446 -0.5207
  184DOPC  H13B22561   4.233   5.700  12.178  1.8650  0.9698  1.0435
  184DOPC  H13C22562   4.087   5.796  12.227  0.3399 -0.3532  1.4346
  184DOPC   C1422563   4.254   5.885  12.372  0.1120 -0.5872 -0.4889
  184DOPC  H14A22564   4.275   5.782  12.398  0.5874  0.2785  3.0591
  184DOPC  H14B22565   4.334   5.944  12.416  1.0860 -0.6102 -2.1306
  184DOPC  H14C22566   4.160   5.905  12.420  0.0652  2.1209 -1.4851
  184DOPC   C1522567   4.401   5.897  12.188 -0.6991 -0.4762 -0.6527
  184DOPC  H15A22568   4.437   5.802  12.222 -1.5068 -1.1340 -1.5862
  184DOPC  H15B22569   4.452   5.973  12.246 -2.4443 -0.3151  0.7885
  184DOPC  H15C22570   4.437   5.905  12.087  0.0585  1.5410 -0.2837
  184DOPC   C1122571   4.039   6.036  12.172  0.7688 -0.0821 -0.9953
  184DOPC  H11A22572   4.011   6.136  12.134 -0.0007  0.0408 -0.1613
  184DOPC  H11B22573   4.005   5.959  12.100  1.2702 -0.1337 -1.1779
  184DOPC     P22574   3.822   5.974  12.317  0.2601  0.0448 -0.2522
  184DOPC   O1322575   3.800   5.910  12.449  0.1320 -0.3556 -0.1689
  184DOPC   O1422576   3.763   5.903  12.199  0.3250 -0.1971 -0.4829
  184DOPC   O1222577   3.971   6.017  12.300 -0.2625  0.3659 -0.0737
  184DOPC   O1122578   3.740   6.111  12.325  0.5153 -0.0892  0.0190
  184DOPC    C122579   3.793   6.237  12.355 -0.1218  0.0946  0.4767
  184DOPC    HA22580   3.714   6.315  12.345 -1.1614 -1.0941 -1.1686
  184DOPC    HB22581   3.873   6.267  12.284 -0.5209  0.4679  0.1807
  184DOPC    C222582   3.857   6.247  12.504  0.1611  0.4899 -0.3044
  184DOPC    HS22583   3.946   6.180  12.510 -1.2910 -1.3731  3.8689
  184DOPC   O2122584   3.752   6.211  12.604  0.6832 -0.5050  0.2701
  184DOPC   C2122585   3.804   6.153  12.710  0.3388  0.2339  0.1165
  184DOPC   O2222586   3.916   6.140  12.745 -0.0208 -0.0102  0.0101
  184DOPC   C2222587   3.682   6.083  12.782 -0.9713 -0.5939  0.7863
  184DOPC   H2R22588   3.668   5.986  12.729 -3.0572 -1.3179  2.5307
  184DOPC   H2S22589   3.588   6.140  12.772 -0.8232 -0.7462 -2.2264
  184DOPC    C322590   3.910   6.398  12.533  0.4323  0.3072  0.2078
  184DOPC    HX22591   3.828   6.471  12.519  0.1721  0.1722  0.9553
  184DOPC    HY22592   3.993   6.416  12.462  1.2748  0.6855  1.2665
  184DOPC   O3122593   3.960   6.405  12.670 -0.2533 -0.1745  0.1463
  184DOPC   C3122594   3.924   6.491  12.760 -0.0516 -0.0368  0.5843
  184DOPC   O3222595   3.847   6.586  12.744  0.1258  0.4531  0.5729
  184DOPC   C3222596   4.000   6.464  12.887  0.7454  0.0641 -0.9142
  184DOPC   H2X22597   4.065   6.375  12.871  0.2977 -0.0503 -2.2495
  184DOPC   H2Y22598   4.074   6.546  12.893  1.8663 -0.9285 -0.8074
  184DOPC   C2322599   3.703   6.061  12.928 -0.3699  0.3330 -0.3682
  184DOPC   H3R22600   3.807   6.075  12.966 -0.1938  1.5639 -1.2420
  184DOPC   H3S22601   3.677   5.955  12.947  2.1498 -0.2886 -0.0474
  184DOPC   C2422602   3.618   6.156  13.012 -0.2476 -0.4229  0.9080
  184DOPC   H4R22603   3.514   6.134  12.979  0.6585 -0.7088 -2.0687
  184DOPC   H4S22604   3.640   6.262  12.989  0.8506 -0.6709  0.7636
  184DOPC   C2522605   3.627   6.138  13.163 -0.0645  0.6404  0.2524
  184DOPC   H5R22606   3.731   6.156  13.198 -0.5519  0.8569  1.6533
  184DOPC   H5S22607   3.600   6.031  13.177 -1.9968  0.4529 -3.5066
  184DOPC   C2622608   3.535   6.237  13.234  0.7689 -0.4467 -1.1926
  184DOPC   H6R22609   3.440   6.231  13.176  1.1621 -0.6702 -1.8304
  184DOPC   H6S22610   3.573   6.341  13.228  2.8053 -0.7670  2.9730
  184DOPC   C2722611   3.505   6.202  13.378  0.3978  0.1885  0.0957
  184DOPC   H7R22612   3.597   6.148  13.410 -0.6402 -0.9196  1.3525
  184DOPC   H7S22613   3.428   6.123  13.388 -0.1963  0.9202  1.6900
  184DOPC   C2822614   3.477   6.314  13.474 -0.5938  0.4984  0.2455
  184DOPC   H8R22615   3.557   6.391  13.469 -0.6711  0.7013  1.6949
  184DOPC   H8S22616   3.477   6.276  13.579 -0.8435 -0.3168 -0.0458
  184DOPC   C2922617   3.345   6.378  13.459  0.3857 -0.3689  0.1930
  184DOPC   H9R22618   3.335   6.459  13.385 -2.9164 -0.9248 -0.1041
  184DOPC  C21022619   3.234   6.334  13.519 -0.9120 -0.0392 -0.5559
  184DOPC  H10R22620   3.139   6.389  13.514 -1.1415 -0.2555  1.0111
  184DOPC  C21122621   3.222   6.230  13.632 -0.7901  0.4866 -0.0365
  184DOPC  H11R22622   3.298   6.149  13.629 -0.7570  0.5466 -1.6015
  184DOPC  H11S22623   3.131   6.169  13.617  1.1912 -3.1915  1.6143
  184DOPC  C21222624   3.228   6.271  13.777 -0.2089 -0.7384 -0.2807
  184DOPC  H12R22625   3.321   6.328  13.797 -0.7589  0.8166 -1.9146
  184DOPC  H12S22626   3.225   6.178  13.839 -2.6292  0.6877  1.9602
  184DOPC  C21322627   3.101   6.352  13.818  0.5823  0.2135 -0.5121
  184DOPC  H13R22628   3.012   6.286  13.806  0.7912 -0.2876  0.5638
  184DOPC  H13S22629   3.080   6.444  13.760  4.0265  1.7052  0.3504
  184DOPC  C21422630   3.102   6.392  13.966  0.1302  0.1520 -1.4567
  184DOPC  H14R22631   3.186   6.464  13.976  0.6238 -0.5677 -0.0530
  184DOPC  H14S22632   3.131   6.301  14.024 -0.6890  1.0955  0.5211
  184DOPC  C21522633   2.976   6.460  14.023  0.0661  0.4061  0.3534
  184DOPC  H15R22634   2.904   6.379  14.049 -0.0491  0.4050  0.0346
  184DOPC  H15S22635   2.927   6.535  13.958  1.0145  1.1921  0.5260
  184DOPC  C21622636   3.014   6.538  14.155  0.0004  0.8655 -0.4614
  184DOPC  H16R22637   2.926   6.590  14.199 -0.6069 -0.3024 -0.2712
  184DOPC  H16S22638   3.096   6.610  14.137  1.9910 -1.5539 -1.5928
  184DOPC  C21722639   3.050   6.431  14.259 -0.2163 -0.1210 -0.3355
  184DOPC  H17R22640   3.137   6.381  14.212 -0.2768 -1.2374  0.7040
  184DOPC  H17S22641   2.973   6.353  14.277  1.3036 -1.2710  1.6426
  184DOPC  C21822642   3.103   6.472  14.401 -0.0955  0.6646  0.4754
  184DOPC  H18R22643   3.201   6.523  14.397 -0.8794  2.2636 -2.8574
  184DOPC  H18S22644   3.118   6.383  14.465 -1.2274 -0.1211 -0.3100
  184DOPC  H18T22645   3.026   6.542  14.440 -0.7151  0.4727 -0.3683
  184DOPC   C3322646   3.921   6.453  13.021  0.5284 -0.4186 -0.0101
  184DOPC   H3X22647   3.832   6.389  13.002 -0.2150  0.4883  0.3038
  184DOPC   H3Y22648   3.882   6.556  13.038 -1.6489 -0.9586 -1.2875
  184DOPC   C3422649   4.005   6.398  13.131  0.3529  0.0492 -0.2897
  184DOPC   H4X22650   4.110   6.433  13.142 -0.2090  1.7607 -0.0991
  184DOPC   H4Y22651   4.011   6.289  13.110 -0.0023  0.0483 -0.3831
  184DOPC   C3522652   3.952   6.418  13.276 -0.3919 -0.2342  0.0676
  184DOPC   H5X22653   4.020   6.353  13.335  0.1313 -1.5729 -1.9110
  184DOPC   H5Y22654   3.847   6.380  13.278 -0.4562 -0.1069 -0.6260
  184DOPC   C3622655   3.968   6.567  13.328  0.5775 -0.3495  0.2751
  184DOPC   H6X22656   4.074   6.588  13.354  0.4258  0.1742  0.4698
  184DOPC   H6Y22657   3.938   6.631  13.242  2.9496 -0.3822 -0.6632
  184DOPC   C3722658   3.866   6.587  13.439 -0.4130  0.4285  0.5387
  184DOPC   H7X22659   3.850   6.696  13.449  3.4113  1.1269  0.5732
  184DOPC   H7Y22660   3.776   6.529  13.410  0.5744 -0.5754 -0.6434
  184DOPC   C3822661   3.914   6.527  13.569 -0.2851  0.8782  0.1935
  184DOPC   H8X22662   4.011   6.574  13.595  0.0354  0.4122 -0.1586
  184DOPC   H8Y22663   3.923   6.416  13.569  3.5440  1.0579 -0.4328
  184DOPC   C3922664   3.816   6.560  13.684  0.5428 -0.1706 -0.0501
  184DOPC   H9X22665   3.800   6.667  13.707 -0.2038 -0.6288  1.8061
  184DOPC  C31022666   3.750   6.470  13.758 -0.6740  0.2566  0.2350
  184DOPC  H10X22667   3.677   6.505  13.832  0.7402 -0.6145  2.1313
  184DOPC  C31122668   3.744   6.321  13.746 -0.0528  0.4403  0.1185
  184DOPC  H11X22669   3.840   6.270  13.766  0.7190  2.0505  0.7393
  184DOPC  H11Y22670   3.730   6.299  13.638  0.4682  1.5310 -0.1920
  184DOPC  C31222671   3.628   6.250  13.820  0.5928  0.9292 -0.3504
  184DOPC  H12X22672   3.605   6.150  13.776 -1.4185  0.3001  1.9017
  184DOPC  H12Y22673   3.528   6.299  13.813  1.0751  1.8381 -0.9866
  184DOPC  C31322674   3.654   6.234  13.970 -0.3946 -0.0772 -0.6279
  184DOPC  H13X22675   3.736   6.162  13.990  1.1697  1.1328 -2.3052
  184DOPC  H13Y22676   3.685   6.337  13.998 -0.5002  0.5876 -2.7504
  184DOPC  C31422677   3.531   6.198  14.055  0.0106 -0.6063 -0.3280
  184DOPC  H14X22678   3.437   6.240  14.012  0.0821 -0.6630 -0.5402
  184DOPC  H14Y22679   3.523   6.087  14.057  2.2106 -0.8047  0.9172
  184DOPC  C31522680   3.548   6.231  14.211 -0.1976  0.3139 -0.7430
  184DOPC  H15X22681   3.542   6.340  14.231  0.4115  0.0761  0.9124
  184DOPC  H15Y22682   3.643   6.189  14.249 -0.1086  0.1148 -1.1881
  184DOPC  C31622683   3.451   6.148  14.299  0.2392  0.4688  0.3319
  184DOPC  H16X22684   3.349   6.146  14.257 -0.0818  0.9014  1.0690
  184DOPC  H16Y22685   3.482   6.042  14.311 -2.4215 -0.2413  1.6256
  184DOPC  C31722686   3.445   6.205  14.437 -0.4393  0.5754 -0.1365
  184DOPC  H17X22687   3.548   6.189  14.475 -0.7112 -1.2656 -0.0957
  184DOPC  H17Y22688   3.430   6.315  14.442 -1.2033  0.4440  0.6938
  184DOPC  C31822689   3.341   6.127  14.514  0.4444 -0.2931 -0.1442
  184DOPC  H18X22690   3.388   6.027  14.528  1.3344  0.2373  0.7387
  184DOPC  H18Y22691   3.313   6.180  14.607 -0.3961  2.3378 -1.7947
  184DOPC  H18Z22692   3.255   6.102  14.448  1.3524 -0.8591 -1.1527
  185DOPC     N22693   5.826   3.308  11.156 -0.0447 -0.2502 -0.3521
  185DOPC   C1222694   5.962   3.314  11.220  0.3313  0.3076 -0.2147
  185DOPC  H12A22695   5.967   3.391  11.295  0.3416  1.0927 -1.0160
  185DOPC  H12B22696   6.033   3.337  11.142  0.5991  0.4859  0.0808
  185DOPC   C1322697   5.786   3.454  11.130  0.3734 -0.0436  0.0281
  185DOPC  H13A22698   5.803   3.512  11.220 -0.4960 -0.8831  0.7608
  185DOPC  H13B22699   5.847   3.497  11.052 -0.4238  1.4266  0.1696
  185DOPC  H13C22700   5.682   3.457  11.102  0.3062 -0.5782  0.2045
  185DOPC   C1422701   5.726   3.252  11.248 -0.3381  0.4712  0.0902
  185DOPC  H14A22702   5.627   3.239  11.206 -0.9135 -2.9503  2.1773
  185DOPC  H14B22703   5.768   3.157  11.277  0.2793  1.0416  1.1026
  185DOPC  H14C22704   5.714   3.312  11.337 -2.3193 -0.8899  0.7857
  185DOPC   C1522705   5.825   3.233  11.028  0.2826 -0.3315  0.0698
  185DOPC  H15A22706   5.882   3.292  10.958 -0.0142  1.6830  1.4272
  185DOPC  H15B22707   5.725   3.215  10.992  0.2082 -0.1487  0.1847
  185DOPC  H15C22708   5.866   3.135  11.050 -1.7510 -1.2251  0.1111
  185DOPC   C1122709   6.003   3.182  11.294  0.1728  0.8741  0.6313
  185DOPC  H11A22710   5.973   3.092  11.237 -1.0093  0.2587  2.1331
  185DOPC  H11B22711   6.113   3.198  11.299  0.3074  2.1209 -3.3791
  185DOPC     P22712   5.918   3.025  11.491 -0.2136 -0.1055  0.7823
  185DOPC   O1322713   6.049   2.950  11.491  0.1503 -0.2656  0.4813
  185DOPC   O1422714   5.802   2.947  11.449  0.6819 -0.2784  0.4345
  185DOPC   O1222715   5.937   3.166  11.419  0.0233  0.5968  0.1740
  185DOPC   O1122716   5.883   3.074  11.643  0.3855  0.1481 -0.3447
  185DOPC    C122717   5.849   2.977  11.746  0.0183  0.4877 -1.0727
  185DOPC    HA22718   5.899   3.007  11.840 -2.0347  2.4506 -0.5075
  185DOPC    HB22719   5.884   2.875  11.719 -0.9230  0.4784 -2.3907
  185DOPC    C222720   5.693   2.970  11.760  0.2237  0.9177 -0.6254
  185DOPC    HS22721   5.649   2.947  11.661 -4.6474 -0.5501  1.5633
  185DOPC   O2122722   5.650   3.104  11.802 -0.3022 -0.2911 -0.0475
  185DOPC   C2122723   5.523   3.130  11.795  0.0078  0.1420 -0.0809
  185DOPC   O2222724   5.435   3.058  11.755  0.1916  0.5021  0.3253
  185DOPC   C2222725   5.495   3.265  11.849  0.1454 -1.4515 -0.2522
  185DOPC   H2R22726   5.523   3.330  11.764  2.5786  1.6412  2.5913
  185DOPC   H2S22727   5.555   3.293  11.939 -0.1353  0.2671 -0.5512
  185DOPC    C322728   5.649   2.859  11.859  0.3855 -0.0187  0.0645
  185DOPC    HX22729   5.675   2.762  11.810  0.0665 -0.3239  0.4949
  185DOPC    HY22730   5.542   2.860  11.888  1.1047  0.7534  2.9133
  185DOPC   O3122731   5.740   2.869  11.971 -0.5362  0.0268  0.4747
  185DOPC   C3122732   5.684   2.948  12.069 -0.1148 -0.7164 -0.3329
  185DOPC   O3222733   5.574   2.995  12.072  0.0303 -0.0581 -0.2055
  185DOPC   C3222734   5.796   2.959  12.176  0.5058  0.8072  1.0996
  185DOPC   H2X22735   5.847   2.860  12.167 -2.1586 -0.4923 -1.4234
  185DOPC   H2Y22736   5.865   3.040  12.146  2.0262 -0.8047 -0.0017
  185DOPC   C2322737   5.341   3.289  11.895 -0.0193  0.3286 -0.3369
  185DOPC   H3R22738   5.270   3.250  11.819  0.5406 -1.8425  0.1883
  185DOPC   H3S22739   5.323   3.398  11.894  0.3643  0.4341  1.2009
  185DOPC   C2422740   5.309   3.227  12.036 -0.8338  0.1195 -0.3109
  185DOPC   H4R22741   5.320   3.117  12.025  0.7811  0.3098 -1.0108
  185DOPC   H4S22742   5.205   3.257  12.057 -0.5925  0.6408  0.1855
  185DOPC   C2522743   5.396   3.271  12.159  0.5938 -0.4853  0.5258
  185DOPC   H5R22744   5.396   3.382  12.164  2.3576 -0.5199  3.2379
  185DOPC   H5S22745   5.495   3.228  12.135  0.1121 -2.2005  1.4155
  185DOPC   C2622746   5.332   3.221  12.289  0.2562 -0.1627 -0.0875
  185DOPC   H6R22747   5.317   3.111  12.283 -0.4186 -0.0115 -1.7911
  185DOPC   H6S22748   5.236   3.275  12.294 -0.6969 -1.7989 -0.1296
  185DOPC   C2722749   5.414   3.236  12.417 -0.2752  0.0614 -0.1490
  185DOPC   H7R22750   5.452   3.340  12.428 -1.7629  0.8317 -1.8178
  185DOPC   H7S22751   5.502   3.171  12.398 -0.0792  0.9034 -2.4271
  185DOPC   C2822752   5.335   3.210  12.546  0.0864 -0.0818  0.6367
  185DOPC   H8R22753   5.240   3.267  12.539  0.2406  0.0171 -0.9095
  185DOPC   H8S22754   5.385   3.262  12.630  0.5467 -0.8650  0.8608
  185DOPC   C2922755   5.317   3.066  12.591  0.2564 -0.0917 -0.4572
  185DOPC   H9R22756   5.236   3.020  12.532 -2.7523  2.0921  1.6236
  185DOPC  C21022757   5.371   2.999  12.690 -1.3851  0.6090  0.0199
  185DOPC  H10R22758   5.345   2.893  12.693 -1.9632  0.7271 -0.6745
  185DOPC  C21122759   5.470   3.046  12.792 -0.5329  0.4107 -0.2264
  185DOPC  H11R22760   5.529   3.128  12.744 -2.0129  0.3739 -2.2046
  185DOPC  H11S22761   5.549   2.971  12.813 -1.8717 -0.9000  0.2425
  185DOPC  C21222762   5.416   3.099  12.932  0.3838  0.0081 -0.3261
  185DOPC  H12R22763   5.318   3.048  12.948 -0.2259  1.7328  1.8362
  185DOPC  H12S22764   5.394   3.206  12.912 -1.1366 -0.2081  0.0514
  185DOPC  C21322765   5.516   3.069  13.045  0.3278  0.5494  0.2223
  185DOPC  H13R22766   5.611   3.114  13.009  1.3165 -1.0296  0.7511
  185DOPC  H13S22767   5.529   2.959  13.049  0.0902  0.5300  0.5498
  185DOPC  C21422768   5.462   3.104  13.182 -0.1691  0.0534  0.6130
  185DOPC  H14R22769   5.373   3.041  13.203 -1.8941  2.1593  0.1034
  185DOPC  H14S22770   5.422   3.208  13.191  2.5340  1.2975 -0.5342
  185DOPC  C21522771   5.562   3.084  13.303  0.2949 -0.4829  1.0773
  185DOPC  H15R22772   5.642   3.160  13.288 -0.5007  0.0564 -0.7700
  185DOPC  H15S22773   5.601   2.981  13.295  0.3259 -0.3197 -1.8683
  185DOPC  C21622774   5.484   3.097  13.435 -0.1858 -0.1940 -0.2877
  185DOPC  H16R22775   5.417   3.011  13.459  0.4246 -0.5733  0.0733
  185DOPC  H16S22776   5.419   3.186  13.450 -1.3904 -1.2494  1.1552
  185DOPC  C21722777   5.580   3.088  13.562  0.0135  0.2088  0.6630
  185DOPC  H17R22778   5.544   3.152  13.646 -2.3201  0.1762 -0.2326
  185DOPC  H17S22779   5.673   3.143  13.539  0.1514  1.4722  3.8055
  185DOPC  C21822780   5.612   2.943  13.611 -0.7646 -0.0216  0.1910
  185DOPC  H18R22781   5.522   2.891  13.652 -2.0310  2.2409  0.4505
  185DOPC  H18S22782   5.704   2.943  13.673 -0.9586  2.7450  0.6046
  185DOPC  H18T22783   5.637   2.897  13.513  1.7547 -0.3418  0.9328
  185DOPC   C3322784   5.741   2.981  12.318  0.5434  0.2252  0.5402
  185DOPC   H3X22785   5.667   2.901  12.342 -0.3869  0.8198 -0.2347
  185DOPC   H3Y22786   5.686   3.077  12.308  1.7551  0.9581  0.6955
  185DOPC   C3422787   5.849   2.977  12.426 -0.3889  0.0739  0.0168
  185DOPC   H4X22788   5.934   3.045  12.402 -1.2409  1.1605 -0.0286
  185DOPC   H4Y22789   5.880   2.872  12.441 -1.1537 -0.0443  0.8116
  185DOPC   C3522790   5.796   3.017  12.565 -0.4348 -0.3724 -0.1103
  185DOPC   H5X22791   5.691   2.987  12.589 -1.4326  0.5060 -2.9809
  185DOPC   H5Y22792   5.795   3.127  12.575 -0.6900 -0.3632 -0.2188
  185DOPC   C3622793   5.889   2.970  12.687 -0.0393 -0.5588 -0.7055
  185DOPC   H6X22794   5.858   2.865  12.708 -0.3422 -0.0795  1.5766
  185DOPC   H6Y22795   5.993   2.965  12.651  0.1111 -0.4702 -0.2872
  185DOPC   C3722796   5.863   3.050  12.817 -0.2108  1.4488 -0.3477
  185DOPC   H7X22797   5.860   3.158  12.792 -0.0263  1.1105 -1.9221
  185DOPC   H7Y22798   5.768   3.024  12.868 -0.2204  1.0864 -0.5429
  185DOPC   C3822799   5.973   3.023  12.925 -0.0310  0.8586  0.3210
  185DOPC   H8X22800   6.078   3.042  12.893 -0.2588  1.1641 -0.2530
  185DOPC   H8Y22801   5.966   2.918  12.960 -0.5767  1.4938  2.2047
  185DOPC   C3922802   5.944   3.119  13.032 -0.1286  0.3907  0.0616
  185DOPC   H9X22803   5.923   3.219  12.990  1.6159  0.2036 -1.3691
  185DOPC  C31022804   5.935   3.098  13.165 -0.0600 -0.6465 -0.2010
  185DOPC  H10X22805   5.936   3.179  13.239  1.4992 -1.6661  0.9549
  185DOPC  C31122806   5.950   2.961  13.223  0.5461 -0.3050  0.1395
  185DOPC  H11X22807   6.010   2.889  13.163  0.2049 -1.3033  0.9710
  185DOPC  H11Y22808   5.852   2.909  13.234 -0.0486  0.5142 -1.0567
  185DOPC  C31222809   6.019   2.978  13.364  0.0741  0.0939  0.4496
  185DOPC  H12X22810   5.968   3.054  13.426  0.5396  1.4957 -0.8323
  185DOPC  H12Y22811   6.124   3.013  13.358 -0.3896  1.3888 -0.7524
  185DOPC  C31322812   6.010   2.839  13.433 -0.0855  0.2512 -0.6466
  185DOPC  H13X22813   5.901   2.819  13.442  0.1894 -0.9688  0.1722
  185DOPC  H13Y22814   6.067   2.757  13.385  1.3182  1.3820 -0.9760
  185DOPC  C31422815   6.064   2.853  13.582  0.3568 -0.1109 -1.4883
  185DOPC  H14X22816   6.174   2.859  13.578  0.4750  0.8872  0.9514
  185DOPC  H14Y22817   6.027   2.948  13.628  1.3024 -0.7556  0.7562
  185DOPC  C31522818   6.043   2.734  13.668  0.3770 -0.3626  0.4447
  185DOPC  H15X22819   6.111   2.654  13.633  0.3927  1.2368 -3.6521
  185DOPC  H15Y22820   5.934   2.715  13.659 -0.1516  2.8628 -1.1874
  185DOPC  C31622821   6.072   2.760  13.818  0.3314  0.0405  0.9328
  185DOPC  H16X22822   6.174   2.800  13.830 -0.8526  2.9687  2.2262
  185DOPC  H16Y22823   6.001   2.841  13.846 -0.1059  0.1131 -0.3116
  185DOPC  C31722824   6.038   2.641  13.907 -0.0350 -0.0510  0.3258
  185DOPC  H17X22825   5.929   2.617  13.904  0.0189 -0.7116  2.1791
  185DOPC  H17Y22826   6.087   2.550  13.866 -0.7930 -0.0372 -0.6552
  185DOPC  C31822827   6.072   2.669  14.054  0.2798  0.1043  0.2403
  185DOPC  H18X22828   5.998   2.747  14.082 -2.1711 -2.9519  3.1312
  185DOPC  H18Y22829   6.074   2.580  14.120  2.8600  0.5186  0.8037
  185DOPC  H18Z22830   6.175   2.704  14.073  0.1470 -0.2599  1.7141
  186DOPC     N22831   5.749   0.826  12.399  0.4929  0.2579 -0.3017
  186DOPC   C1222832   5.857   0.719  12.435  0.1437 -0.0095  0.0289
  186DOPC  H12A22833   5.822   0.667  12.522 -0.1897  2.8990  1.7465
  186DOPC  H12B22834   5.951   0.767  12.460  0.0154 -0.8405  2.3077
  186DOPC   C1322835   5.726   0.925  12.506 -0.0293  0.0196 -0.2663
  186DOPC  H13A22836   5.698   0.862  12.589 -4.1775 -0.3812 -1.7795
  186DOPC  H13B22837   5.822   0.973  12.522  2.4102 -3.4060 -2.8467
  186DOPC  H13C22838   5.648   0.993  12.478 -0.1936 -0.8737 -2.1368
  186DOPC   C1422839   5.620   0.764  12.358 -0.2479 -0.8624  0.2914
  186DOPC  H14A22840   5.619   0.671  12.303 -1.2604 -0.5220 -0.2872
  186DOPC  H14B22841   5.551   0.749  12.439 -0.6486 -3.0728 -0.4010
  186DOPC  H14C22842   5.562   0.834  12.299  0.2725 -0.4445  0.2658
  186DOPC   C1522843   5.799   0.904  12.287  0.1667 -1.1744 -0.2552
  186DOPC  H15A22844   5.817   0.853  12.194  2.7738  1.3402 -1.2987
  186DOPC  H15B22845   5.899   0.941  12.307 -0.3648  0.0467  0.2566
  186DOPC  H15C22846   5.735   0.990  12.274 -0.2124 -1.0156  2.1995
  186DOPC   C1122847   5.882   0.610  12.329  0.2195  0.7090  0.3942
  186DOPC  H11A22848   5.871   0.664  12.233  1.5951  1.6553  0.7499
  186DOPC  H11B22849   5.986   0.573  12.331 -0.1401 -0.4945 -1.0127
  186DOPC     P22850   5.810   0.376  12.427 -0.2850  0.4466 -0.2726
  186DOPC   O1322851   5.883   0.276  12.345 -0.0497  0.1507 -0.0796
  186DOPC   O1422852   5.687   0.333  12.502  0.1314  0.2972 -0.6710
  186DOPC   O1222853   5.786   0.501  12.335  0.0458 -0.3387 -1.2007
  186DOPC   O1122854   5.912   0.430  12.534  0.3423 -0.3017 -0.9099
  186DOPC    C122855   6.048   0.393  12.540 -0.1665  0.2347  0.7695
  186DOPC    HA22856   6.112   0.443  12.464  0.8109 -0.4708  1.1028
  186DOPC    HB22857   6.056   0.283  12.527  0.8192  0.2904  0.8092
  186DOPC    C222858   6.114   0.422  12.677 -0.1398 -0.1917  0.2409
  186DOPC    HS22859   6.212   0.369  12.676 -0.9844 -1.9419  2.5279
  186DOPC   O2122860   6.026   0.372  12.784  0.3497  0.0176  0.0125
  186DOPC   C2122861   6.092   0.338  12.888 -0.0777 -0.6987 -0.1413
  186DOPC   O2222862   6.213   0.322  12.895  0.4703  0.0627 -0.0395
  186DOPC   C2222863   5.988   0.308  12.998 -0.0486 -0.0147 -0.1990
  186DOPC   H2R22864   5.968   0.199  12.991  0.7371 -0.2886  1.4868
  186DOPC   H2S22865   5.887   0.351  12.983 -1.0224 -1.5403  1.5985
  186DOPC    C322866   6.149   0.580  12.699 -0.1378  0.1862  0.8581
  186DOPC    HX22867   6.054   0.637  12.708  0.8784  2.1108  0.0968
  186DOPC    HY22868   6.194   0.620  12.605 -1.4249 -0.8162 -0.2148
  186DOPC   O3122869   6.226   0.626  12.820  0.5539  0.7738  0.0015
  186DOPC   C3122870   6.355   0.596  12.814  0.5457  0.0902  0.3304
  186DOPC   O3222871   6.414   0.544  12.722 -0.0555  0.1137  0.4486
  186DOPC   C3222872   6.412   0.617  12.955 -0.4959  0.1252 -0.0475
  186DOPC   H2X22873   6.502   0.552  12.952 -0.5886 -0.0014 -0.1091
  186DOPC   H2Y22874   6.438   0.725  12.965  0.2482  0.1726 -2.0807
  186DOPC   C2322875   6.040   0.340  13.144 -0.5419  0.1602  0.0328
  186DOPC   H3R22876   6.078   0.444  13.142 -1.3901  0.5715  2.0925
  186DOPC   H3S22877   6.126   0.272  13.158  1.9344  2.6895 -1.7801
  186DOPC   C2422878   5.940   0.325  13.251 -0.0984 -0.1421 -0.1738
  186DOPC   H4R22879   5.897   0.224  13.238  0.4865 -0.8778  2.9373
  186DOPC   H4S22880   5.854   0.395  13.243 -1.6823 -1.6462  2.3050
  186DOPC   C2522881   5.997   0.328  13.390 -0.1542 -0.3292 -0.6301
  186DOPC   H5R22882   6.053   0.424  13.388  0.4745 -0.7047 -1.3415
  186DOPC   H5S22883   6.073   0.248  13.405 -0.7306 -0.7938 -0.1028
  186DOPC   C2622884   5.896   0.325  13.511  0.5361 -0.2811  0.3885
  186DOPC   H6R22885   5.819   0.405  13.497 -1.8070 -2.3990  0.3398
  186DOPC   H6S22886   5.950   0.342  13.606  2.3094  1.6420 -0.8695
  186DOPC   C2722887   5.818   0.190  13.514 -0.5511 -0.4847  0.2401
  186DOPC   H7R22888   5.890   0.106  13.528 -1.1871 -0.9525  0.7648
  186DOPC   H7S22889   5.779   0.167  13.413  0.9145 -0.2087 -0.4158
  186DOPC   C2822890   5.709   0.181  13.624 -0.1435  0.0971 -0.0264
  186DOPC   H8R22891   5.654   0.092  13.584  0.9680 -0.4882 -0.3068
  186DOPC   H8S22892   5.643   0.269  13.611 -0.5251 -0.4822 -2.6925
  186DOPC   C2922893   5.772   0.150  13.756  1.2468 -0.3245 -0.2346
  186DOPC   H9R22894   5.828   0.055  13.760 -0.8386 -1.5664  1.9605
  186DOPC  C21022895   5.773   0.225  13.863  0.5087 -0.5735 -0.3430
  186DOPC  H10R22896   5.841   0.194  13.944  0.8645  3.8916  1.3330
  186DOPC  C21122897   5.714   0.361  13.889 -0.2097 -0.1445  0.0213
  186DOPC  H11R22898   5.639   0.360  13.971 -1.1449 -0.7437 -0.8182
  186DOPC  H11S22899   5.643   0.389  13.808  0.3121 -0.7998 -0.6822
  186DOPC  C21222900   5.814   0.481  13.889  0.5134  0.7245  0.1049
  186DOPC  H12R22901   5.762   0.574  13.857 -1.0508 -0.6968 -1.7077
  186DOPC  H12S22902   5.890   0.472  13.808 -0.6547 -1.0924 -0.8489
  186DOPC  C21322903   5.880   0.507  14.021 -0.0480 -0.4891 -0.0913
  186DOPC  H13R22904   5.948   0.595  14.019 -0.7645  0.1496  1.7165
  186DOPC  H13S22905   5.935   0.414  14.047 -1.1558 -1.0236  0.4042
  186DOPC  C21422906   5.775   0.544  14.133 -0.2062 -0.2500  0.2152
  186DOPC  H14R22907   5.754   0.448  14.185  1.5113 -0.3525  0.8002
  186DOPC  H14S22908   5.679   0.588  14.098 -0.1404  1.0484  1.5595
  186DOPC  C21522909   5.841   0.646  14.229 -0.3271  0.0390  0.3230
  186DOPC  H15R22910   5.866   0.742  14.180  1.0113  1.0475  2.7894
  186DOPC  H15S22911   5.933   0.589  14.255 -1.0791 -1.2827  0.2013
  186DOPC  C21622912   5.773   0.664  14.363  0.4005  0.0715 -0.3044
  186DOPC  H16R22913   5.737   0.568  14.407  1.0236 -0.4857 -0.9847
  186DOPC  H16S22914   5.676   0.708  14.332 -0.9622 -2.0920  0.6380
  186DOPC  C21722915   5.866   0.736  14.468 -0.2887 -0.3876  0.3653
  186DOPC  H17R22916   5.894   0.835  14.427  0.9352  0.3980  2.9147
  186DOPC  H17S22917   5.959   0.676  14.480  0.5271  0.4537 -1.3525
  186DOPC  C21822918   5.797   0.746  14.601 -0.0374  0.1282  0.2211
  186DOPC  H18R22919   5.863   0.806  14.667 -2.2238  1.3225  1.4512
  186DOPC  H18S22920   5.784   0.643  14.642  0.5383 -0.2255 -0.4580
  186DOPC  H18T22921   5.696   0.791  14.596 -0.1455 -0.1135  0.1937
  186DOPC   C3322922   6.329   0.569  13.077  0.1317  0.5812 -0.4012
  186DOPC   H3X22923   6.307   0.461  13.062 -1.7790  0.8012  0.5861
  186DOPC   H3Y22924   6.235   0.626  13.088  1.0724  2.1904 -0.4416
  186DOPC   C3422925   6.419   0.583  13.205 -0.1482  0.5901 -0.0279
  186DOPC   H4X22926   6.441   0.692  13.207  0.3134  0.5487 -1.5178
  186DOPC   H4Y22927   6.520   0.539  13.206  0.0883  0.9674  2.9529
  186DOPC   C3522928   6.345   0.531  13.336  0.4526  0.3643 -0.2251
  186DOPC   H5X22929   6.353   0.420  13.329  0.5041  0.1831  1.9231
  186DOPC   H5Y22930   6.240   0.565  13.335  0.9224  1.9581  0.5731
  186DOPC   C3622931   6.408   0.583  13.467 -0.5814 -0.8229  0.1025
  186DOPC   H6X22932   6.498   0.525  13.493  0.1111  0.0945 -0.1935
  186DOPC   H6Y22933   6.445   0.688  13.460  0.2459 -1.1150  0.0027
  186DOPC   C3722934   6.309   0.593  13.585  0.0159  0.7973  0.1271
  186DOPC   H7X22935   6.225   0.655  13.546  0.4497  0.7104 -0.9869
  186DOPC   H7Y22936   6.274   0.494  13.621 -0.3090  0.7152 -0.3890
  186DOPC   C3822937   6.357   0.671  13.707  0.5105 -0.7754 -0.5569
  186DOPC   H8X22938   6.389   0.768  13.664  0.2692 -0.5218 -0.1688
  186DOPC   H8Y22939   6.436   0.617  13.763  1.5139  1.3021  0.1126
  186DOPC   C3922940   6.237   0.697  13.806 -0.6652  0.4682  1.0000
  186DOPC   H9X22941   6.148   0.639  13.777 -1.6982  1.7319  1.5028
  186DOPC  C31022942   6.237   0.781  13.907  0.5219 -0.1098 -0.1296
  186DOPC  H10X22943   6.159   0.783  13.984  1.1652  4.2920  0.6522
  186DOPC  C31122944   6.350   0.868  13.950 -0.1591  0.3171  0.5063
  186DOPC  H11X22945   6.378   0.945  13.876 -1.9248  1.6913  1.1921
  186DOPC  H11Y22946   6.438   0.801  13.960 -0.4170  0.0459  1.0212
  186DOPC  C31222947   6.338   0.933  14.087 -0.1312 -0.1966 -0.3537
  186DOPC  H12X22948   6.251   1.001  14.087 -1.0609 -1.3571 -0.9424
  186DOPC  H12Y22949   6.433   0.989  14.099  0.7016 -1.7334  0.6078
  186DOPC  C31322950   6.318   0.834  14.211 -0.3205 -0.5100  0.0427
  186DOPC  H13X22951   6.213   0.797  14.213 -0.7743  0.6987 -0.6208
  186DOPC  H13Y22952   6.399   0.758  14.208 -0.6647 -0.8757 -0.2738
  186DOPC  C31422953   6.335   0.911  14.353 -0.0332  0.8385  0.0586
  186DOPC  H14X22954   6.445   0.920  14.369  0.0069 -1.3703  1.4520
  186DOPC  H14Y22955   6.296   1.015  14.342 -0.6143  0.6993  0.7676
  186DOPC  C31522956   6.272   0.853  14.469  0.5782  0.5451  0.7789
  186DOPC  H15X22957   6.166   0.829  14.447  1.1054 -1.4472  0.2443
  186DOPC  H15Y22958   6.265   0.934  14.545 -0.7020 -0.3448  1.6560
  186DOPC  C31622959   6.344   0.729  14.526 -0.6468 -0.0294  0.1556
  186DOPC  H16X22960   6.354   0.646  14.453  0.1757  0.2136 -0.0195
  186DOPC  H16Y22961   6.447   0.762  14.549 -0.3783 -0.4266 -0.4516
  186DOPC  C31722962   6.283   0.681  14.654 -0.0347  0.2600 -0.5905
  186DOPC  H17X22963   6.304   0.759  14.730  2.3772 -0.7623 -0.1272
  186DOPC  H17Y22964   6.172   0.684  14.646 -0.1699  2.6338  1.0196
  186DOPC  C31822965   6.322   0.538  14.697 -0.4622  0.1405 -0.0177
  186DOPC  H18X22966   6.304   0.457  14.624  0.2765  0.7543 -0.9119
  186DOPC  H18Y22967   6.432   0.535  14.715 -0.6371 -1.4421  0.9428
  186DOPC  H18Z22968   6.264   0.506  14.786  1.1742 -2.6331  0.1501
  187DOPC     N22969   4.652   6.378  12.061  0.0507 -0.0138  0.2166
  187DOPC   C1222970   4.754   6.472  12.123  0.2230  0.2913 -0.1787
  187DOPC  H12A22971   4.782   6.555  12.060 -0.1580  1.0360  0.6096
  187DOPC  H12B22972   4.845   6.416  12.137  0.6757  1.1126  0.2067
  187DOPC   C1322973   4.637   6.249  12.129 -0.0498  0.6014 -0.0082
  187DOPC  H13A22974   4.616   6.256  12.234  3.5107 -1.5459  1.0140
  187DOPC  H13B22975   4.562   6.195  12.071  0.9660  1.4727 -2.2567
  187DOPC  H13C22976   4.723   6.188  12.105  0.2379  1.4454 -1.2598
  187DOPC   C1422977   4.700   6.346  11.922  0.5397 -0.1961  0.1027
  187DOPC  H14A22978   4.788   6.286  11.939  0.9482  0.5537  0.7435
  187DOPC  H14B22979   4.623   6.291  11.870 -0.4486  0.6537  0.5994
  187DOPC  H14C22980   4.720   6.435  11.865  0.4329 -0.7334 -0.7872
  187DOPC   C1522981   4.520   6.437  12.054  0.8523 -0.3218  0.4144
  187DOPC  H15A22982   4.450   6.372  12.004  0.3017  0.1627  0.5403
  187DOPC  H15B22983   4.518   6.527  11.995  0.0485 -0.6154 -0.0303
  187DOPC  H15C22984   4.472   6.463  12.147 -3.9029  0.2998 -1.8684
  187DOPC   C1122985   4.723   6.525  12.263 -0.1942 -0.9000 -0.4533
  187DOPC  H11A22986   4.699   6.454  12.344 -2.1356  0.6829  0.4469
  187DOPC  H11B22987   4.821   6.571  12.291 -0.0777 -1.2275 -0.3203
  187DOPC     P22988   4.662   6.764  12.193 -0.1683  0.1521 -0.1354
  187DOPC   O1322989   4.539   6.826  12.145  0.0607  0.3730  0.4099
  187DOPC   O1422990   4.776   6.747  12.097  0.3120  0.4662  0.0479
  187DOPC   O1222991   4.625   6.631  12.258  0.4320 -0.1276  0.6640
  187DOPC   O1122992   4.699   6.840  12.322 -0.0574  0.4657 -0.1401
  187DOPC    C122993   4.596   6.846  12.426 -0.6657  0.2887 -0.1031
  187DOPC    HA22994   4.542   6.752  12.450 -1.2108  0.6358  0.0431
  187DOPC    HB22995   4.527   6.930  12.400  0.1034  0.7377 -0.7591
  187DOPC    C222996   4.662   6.880  12.562 -0.0269  0.0053  0.5818
  187DOPC    HS22997   4.579   6.865  12.633  0.0202 -0.7169  0.4916
  187DOPC   O2122998   4.723   7.013  12.553 -0.3912  0.8427  0.1055
  187DOPC   C2122999   4.721   7.082  12.667 -0.3503 -0.1678  0.3773
  187DOPC   O2223000   4.652   7.059  12.763  0.6083  0.1930 -0.2409
  187DOPC   C2223001   4.823   7.198  12.671  0.7347 -0.0228 -0.9792
  187DOPC   H2R23002   4.796   7.270  12.592  1.0131 -0.5715 -1.5801
  187DOPC   H2S23003   4.924   7.154  12.661 -0.2430 -2.3587 -1.3555
  187DOPC    C323004   4.773   6.775  12.604 -0.2332 -0.6390  0.1309
  187DOPC    HX23005   4.852   6.769  12.526  0.8365  4.4709  0.4474
  187DOPC    HY23006   4.712   6.682  12.601 -4.0121  1.5418  2.0068
  187DOPC   O3123007   4.835   6.798  12.736  0.5790 -0.0394 -0.0002
  187DOPC   C3123008   4.757   6.761  12.837  0.8549  0.5518 -0.3074
  187DOPC   O3223009   4.647   6.713  12.828 -0.2952 -0.0752  0.2408
  187DOPC   C3223010   4.830   6.769  12.964 -0.1338 -0.2796 -0.3345
  187DOPC   H2X23011   4.901   6.684  12.972  2.7571  1.9460 -0.3627
  187DOPC   H2Y23012   4.891   6.863  12.966  1.5266 -1.2890 -1.2305
  187DOPC   C2323013   4.813   7.267  12.811 -0.2734  0.0638 -0.5655
  187DOPC   H3R23014   4.711   7.301  12.836  0.0517  1.0895 -0.5765
  187DOPC   H3S23015   4.868   7.363  12.815 -1.4425  0.7188  1.4846
  187DOPC   C2423016   4.873   7.166  12.916  0.2013 -0.2220  0.4567
  187DOPC   H4R23017   4.980   7.151  12.889  0.0876  0.2245 -0.2790
  187DOPC   H4S23018   4.838   7.061  12.924  1.4022 -0.6601  0.1676
  187DOPC   C2523019   4.894   7.237  13.043  0.1514  0.5274  0.4823
  187DOPC   H5R23020   4.799   7.249  13.099 -1.8855 -1.4748 -2.2471
  187DOPC   H5S23021   4.937   7.338  13.030 -1.3516  0.9833 -1.4114
  187DOPC   C2623022   4.996   7.163  13.127 -0.3502  0.6671 -0.5685
  187DOPC   H6R23023   5.081   7.124  13.067  1.3056  0.9349  1.4891
  187DOPC   H6S23024   4.940   7.079  13.173 -1.1985  1.8571  0.6420
  187DOPC   C2723025   5.036   7.238  13.247  0.1332 -0.2796 -0.7159
  187DOPC   H7R23026   5.100   7.323  13.214 -2.6725  2.8029  1.1386
  187DOPC   H7S23027   5.091   7.165  13.309  0.9077  0.2988 -0.7038
  187DOPC   C2823028   4.920   7.279  13.333 -0.1213  0.3524 -0.3596
  187DOPC   H8R23029   4.852   7.192  13.346 -0.8671  0.9212 -0.3545
  187DOPC   H8S23030   4.869   7.362  13.281 -1.5683  0.7011  1.4867
  187DOPC   C2923031   4.973   7.335  13.468 -0.6704  0.2670  0.6808
  187DOPC   H9R23032   5.038   7.422  13.452  0.6341 -0.5047  1.6158
  187DOPC  C21023033   4.965   7.285  13.591 -0.7645 -1.2934  0.2373
  187DOPC  H10R23034   5.012   7.328  13.680  3.4029  0.7650 -2.6491
  187DOPC  C21123035   4.881   7.166  13.621  0.0638  0.0258  0.5283
  187DOPC  H11R23036   4.937   7.070  13.627 -2.1642 -1.4208 -0.5820
  187DOPC  H11S23037   4.806   7.153  13.540  0.8497 -0.5886 -0.1285
  187DOPC  C21223038   4.805   7.177  13.751  0.9072  0.3688 -0.5747
  187DOPC  H12R23039   4.728   7.098  13.765 -0.0605  1.2552 -0.7783
  187DOPC  H12S23040   4.745   7.267  13.777  1.3619  0.6538 -0.5128
  187DOPC  C21323041   4.893   7.169  13.874  0.0266 -0.2085 -0.4945
  187DOPC  H13R23042   4.966   7.252  13.868 -0.2003  0.1464  1.3257
  187DOPC  H13S23043   4.945   7.071  13.869  0.4515  0.0697 -1.9906
  187DOPC  C21423044   4.818   7.179  14.010 -0.3333  0.1987 -0.4226
  187DOPC  H14R23045   4.742   7.098  14.024 -0.2551  0.3438  0.9834
  187DOPC  H14S23046   4.770   7.279  14.004 -0.6693  0.0636 -0.0931
  187DOPC  C21523047   4.912   7.186  14.128  0.9620  0.0672 -0.1884
  187DOPC  H15R23048   4.996   7.255  14.106  1.6351 -0.3915  0.8905
  187DOPC  H15S23049   4.952   7.083  14.134  0.1835 -0.2458 -0.3396
  187DOPC  C21623050   4.839   7.225  14.256  0.8292 -0.1747  0.7298
  187DOPC  H16R23051   4.764   7.143  14.259  0.3664  0.2236  0.3321
  187DOPC  H16S23052   4.795   7.327  14.255 -0.3995 -0.6797  1.2335
  187DOPC  C21723053   4.925   7.218  14.387 -0.5032  0.4776  0.0989
  187DOPC  H17R23054   5.006   7.294  14.390 -1.3465  1.3895  0.1920
  187DOPC  H17S23055   4.991   7.131  14.406 -1.0936  0.0715  0.3346
  187DOPC  C21823056   4.850   7.250  14.507  0.3121 -0.9065 -0.8214
  187DOPC  H18R23057   4.756   7.191  14.515  0.6764 -1.6240 -1.5933
  187DOPC  H18S23058   4.829   7.359  14.503  1.6979 -0.6366 -2.3624
  187DOPC  H18T23059   4.910   7.232  14.599 -0.4410  1.1345  0.1258
  187DOPC   C3323060   4.737   6.760  13.088  0.8589 -0.0193  0.8462
  187DOPC   H3X23061   4.692   6.658  13.084 -0.5111  0.5964 -2.1169
  187DOPC   H3Y23062   4.653   6.832  13.079  1.0043 -0.0745 -1.9746
  187DOPC   C3423063   4.816   6.783  13.213 -0.1692 -0.2704  0.0817
  187DOPC   H4X23064   4.888   6.868  13.210  3.1669 -2.8860 -0.1367
  187DOPC   H4Y23065   4.878   6.691  13.219 -0.5660 -0.6847 -1.6256
  187DOPC   C3523066   4.713   6.799  13.333 -0.9437  0.4007  0.1813
  187DOPC   H5X23067   4.622   6.737  13.322 -0.8034  0.4637 -1.5888
  187DOPC   H5Y23068   4.694   6.908  13.330 -0.9647  0.3834 -0.7212
  187DOPC   C3623069   4.776   6.768  13.471  0.2501  0.3833  1.0146
  187DOPC   H6X23070   4.800   6.660  13.474  2.2687  0.7440  0.1006
  187DOPC   H6Y23071   4.873   6.822  13.478  2.0111 -2.3594 -0.2632
  187DOPC   C3723072   4.691   6.799  13.584  0.0140 -0.3315 -0.2876
  187DOPC   H7X23073   4.656   6.901  13.558 -1.7042 -0.8130  0.0265
  187DOPC   H7Y23074   4.597   6.740  13.593 -0.6672  0.8756  1.0254
  187DOPC   C3823075   4.760   6.789  13.724 -0.2066 -0.3967 -0.3659
  187DOPC   H8X23076   4.842   6.864  13.723 -1.0777  0.6218  0.7122
  187DOPC   H8Y23077   4.800   6.688  13.745 -0.5373 -1.1885 -3.1187
  187DOPC   C3923078   4.665   6.832  13.836 -0.0421  0.5528  0.1501
  187DOPC   H9X23079   4.585   6.903  13.809  0.3587  1.5349  1.4840
  187DOPC  C31023080   4.648   6.774  13.955 -0.2400  0.6950 -0.3022
  187DOPC  H10X23081   4.570   6.815  14.022  2.4030  2.6141  1.8179
  187DOPC  C31123082   4.731   6.660  14.014  0.1921 -0.6788  0.4285
  187DOPC  H11X23083   4.804   6.618  13.941  0.9009 -0.4634  1.0052
  187DOPC  H11Y23084   4.669   6.574  14.045 -0.5906 -0.0994  0.4923
  187DOPC  C31223085   4.824   6.718  14.125 -0.2401  0.1711 -0.6822
  187DOPC  H12X23086   4.875   6.807  14.082  0.8627  0.8836  1.8749
  187DOPC  H12Y23087   4.898   6.640  14.151  0.6380  1.8539  2.4152
  187DOPC  C31323088   4.749   6.771  14.252 -0.4138 -0.1736  0.4036
  187DOPC  H13X23089   4.817   6.849  14.295  0.0110  0.5077 -1.4159
  187DOPC  H13Y23090   4.651   6.818  14.227 -0.6074 -0.8545 -0.1252
  187DOPC  C31423091   4.723   6.671  14.359  0.3517  0.3765  0.4481
  187DOPC  H14X23092   4.659   6.584  14.334  1.6557 -0.4558 -0.1153
  187DOPC  H14Y23093   4.814   6.621  14.399  0.5280 -0.6443 -1.1079
  187DOPC  C31523094   4.662   6.723  14.493  0.2011  0.5467 -0.4262
  187DOPC  H15X23095   4.552   6.711  14.499  0.3087  0.3737  3.2949
  187DOPC  H15Y23096   4.702   6.825  14.511  2.2148 -0.5260  1.6313
  187DOPC  C31623097   4.697   6.633  14.614  0.2515 -1.0201  0.1470
  187DOPC  H16X23098   4.644   6.539  14.587  0.7315 -0.8153 -1.6668
  187DOPC  H16Y23099   4.806   6.623  14.631  0.1125 -0.3373  1.5901
  187DOPC  C31723100   4.646   6.696  14.745 -0.6380 -0.4674  0.5526
  187DOPC  H17X23101   4.685   6.797  14.766 -1.0798 -0.0534 -0.5013
  187DOPC  H17Y23102   4.539   6.724  14.729 -0.9349 -0.9251  1.6462
  187DOPC  C31823103   4.663   6.599  14.861 -0.0510  0.3662 -0.3724
  187DOPC  H18X23104   4.591   6.634  14.939 -0.0008 -0.4858  0.0622
  187DOPC  H18Y23105   4.630   6.501  14.822 -0.3327  1.2400 -2.4947
  187DOPC  H18Z23106   4.757   6.612  14.919 -0.1677  2.8556 -0.6174
  188DOPC     N23107   1.976   0.558  12.135  0.6363 -0.0891  0.1124
  188DOPC   C1223108   2.005   0.571  12.285 -0.7282 -0.1984  0.1814
  188DOPC  H12A23109   2.014   0.674  12.316 -1.1767 -1.1299  4.0367
  188DOPC  H12B23110   2.099   0.525  12.311  0.1221  0.8720 -0.9104
  188DOPC   C1323111   1.868   0.649  12.084  0.5425 -0.4480  0.0882
  188DOPC  H13A23112   1.907   0.748  12.070 -2.4427  0.9499  0.7831
  188DOPC  H13B23113   1.817   0.618  11.994 -1.3436  0.0548  0.9275
  188DOPC  H13C23114   1.795   0.648  12.164  0.5283  1.2356  0.1268
  188DOPC   C1423115   1.943   0.422  12.094  0.1039  0.6174 -0.1375
  188DOPC  H14A23116   1.939   0.413  11.986 -0.8885  2.4187 -0.2897
  188DOPC  H14B23117   2.018   0.355  12.133 -0.3342  0.1977 -0.0072
  188DOPC  H14C23118   1.843   0.404  12.128  0.3717  1.3426  1.0764
  188DOPC   C1523119   2.098   0.595  12.062  0.1575 -0.4484  0.0634
  188DOPC  H15A23120   2.078   0.580  11.957 -3.5385 -1.0704  0.7139
  188DOPC  H15B23121   2.185   0.538  12.091 -0.6548 -1.0316  1.4383
  188DOPC  H15C23122   2.126   0.699  12.067  2.6821 -1.0724  0.1818
  188DOPC   C1123123   1.899   0.516  12.389 -0.2988 -0.1746 -0.5393
  188DOPC  H11A23124   1.886   0.406  12.376  0.9330 -0.2363 -1.4560
  188DOPC  H11B23125   1.951   0.524  12.486 -0.2021 -3.3876 -0.2200
  188DOPC     P23126   1.637   0.532  12.386  0.0657 -0.2266  0.3170
  188DOPC   O1323127   1.625   0.396  12.333 -0.8188  0.6671  0.2494
  188DOPC   O1423128   1.548   0.631  12.320  0.8503  0.1560 -0.1703
  188DOPC   O1223129   1.779   0.593  12.387 -0.3493  0.2856 -0.3108
  188DOPC   O1123130   1.605   0.526  12.544  0.3135  0.5967 -0.3106
  188DOPC    C123131   1.700   0.490  12.648  1.0537 -0.6510  0.1342
  188DOPC    HA23132   1.781   0.566  12.645  1.6965 -1.3161  0.1252
  188DOPC    HB23133   1.739   0.391  12.615 -0.4943 -1.1245 -0.3336
  188DOPC    C223134   1.629   0.477  12.786  0.0433 -0.5412 -0.0378
  188DOPC    HS23135   1.581   0.575  12.800 -0.2937 -0.7248  0.0967
  188DOPC   O2123136   1.732   0.453  12.891  0.0325 -0.1934  0.1844
  188DOPC   C2123137   1.692   0.503  13.009 -0.0951 -0.5542 -0.4279
  188DOPC   O2223138   1.619   0.602  13.020 -0.0322 -0.4899  0.5441
  188DOPC   C2223139   1.768   0.435  13.123  0.7485  0.2255 -0.1554
  188DOPC   H2R23140   1.874   0.465  13.140  0.6964 -0.3239  1.2544
  188DOPC   H2S23141   1.757   0.325  13.111 -2.0083  0.4805 -0.5278
  188DOPC    C323142   1.509   0.365  12.785 -0.1661  0.1667  0.5535
  188DOPC    HX23143   1.552   0.273  12.739 -0.9365 -0.0637  0.2781
  188DOPC    HY23144   1.432   0.386  12.708  0.1197  0.5438  0.3636
  188DOPC   O3123145   1.436   0.342  12.914  0.2478 -0.1568 -0.1456
  188DOPC   C3123146   1.326   0.413  12.934  0.4580 -0.0398 -0.0147
  188DOPC   O3223147   1.281   0.512  12.882  0.2551 -0.0927  0.0762
  188DOPC   C3223148   1.266   0.343  13.064 -0.1300  0.1312  0.6114
  188DOPC   H2X23149   1.158   0.331  13.043  0.0568 -0.5502 -0.0146
  188DOPC   H2Y23150   1.317   0.244  13.068  4.1077  2.0350 -0.3873
  188DOPC   C2323151   1.696   0.471  13.254 -0.2970  0.3460 -0.6254
  188DOPC   H3R23152   1.593   0.429  13.250 -0.4193  0.6119 -0.3524
  188DOPC   H3S23153   1.688   0.581  13.265  1.8993  0.7978 -2.7542
  188DOPC   C2423154   1.765   0.417  13.379 -0.2762  0.4027 -1.0852
  188DOPC   H4R23155   1.871   0.446  13.384 -0.5248  1.6544 -2.4835
  188DOPC   H4S23156   1.741   0.308  13.386 -2.4183  0.8862 -0.2109
  188DOPC   C2523157   1.697   0.483  13.504 -0.5955  0.3175 -0.2612
  188DOPC   H5R23158   1.587   0.469  13.511 -0.4429 -0.3582  1.0071
  188DOPC   H5S23159   1.711   0.593  13.504 -0.0853  0.3190  2.4345
  188DOPC   C2623160   1.754   0.427  13.637  0.1257 -0.0065 -0.0868
  188DOPC   H6R23161   1.862   0.451  13.633  0.2326  0.0858  2.3865
  188DOPC   H6S23162   1.744   0.317  13.627  0.3938  0.0734 -1.4158
  188DOPC   C2723163   1.688   0.490  13.758  0.6822  0.1639 -0.0802
  188DOPC   H7R23164   1.582   0.456  13.759  0.6512  0.2595 -0.0853
  188DOPC   H7S23165   1.678   0.599  13.738  2.1630  0.0064 -1.9267
  188DOPC   C2823166   1.772   0.463  13.884 -0.0242  0.1787 -0.7474
  188DOPC   H8R23167   1.729   0.518  13.970 -1.0343 -0.2838 -0.9366
  188DOPC   H8S23168   1.865   0.523  13.874  0.3283  0.3319  2.4747
  188DOPC   C2923169   1.784   0.321  13.930  0.1940 -0.0577 -0.6228
  188DOPC   H9R23170   1.853   0.262  13.868 -0.2135 -2.0933  0.7897
  188DOPC  C21023171   1.725   0.260  14.033 -0.8549 -0.4466  0.2749
  188DOPC  H10R23172   1.723   0.150  14.044 -1.7288 -0.2300  3.2722
  188DOPC  C21123173   1.628   0.325  14.132  0.0926 -0.0929  0.7832
  188DOPC  H11R23174   1.556   0.252  14.173 -0.7076  0.2180 -0.0253
  188DOPC  H11S23175   1.567   0.401  14.078  1.0425 -1.1192 -1.9078
  188DOPC  C21223176   1.692   0.403  14.247 -0.0917  0.0287 -0.4568
  188DOPC  H12R23177   1.623   0.456  14.316  0.8651  1.4687 -0.5618
  188DOPC  H12S23178   1.753   0.487  14.206  0.4848  1.0481  2.3048
  188DOPC  C21323179   1.787   0.314  14.333 -0.1220  0.1967 -0.0465
  188DOPC  H13R23180   1.826   0.384  14.411 -1.2873 -0.5186  1.2081
  188DOPC  H13S23181   1.873   0.280  14.271  0.0602 -0.6278  0.6462
  188DOPC  C21423182   1.724   0.196  14.409 -0.4514  0.0835 -0.0192
  188DOPC  H14R23183   1.797   0.158  14.483 -2.0491 -0.0775  1.5539
  188DOPC  H14S23184   1.718   0.116  14.332  1.7791 -0.4571  0.2865
  188DOPC  C21523185   1.592   0.231  14.479  0.4370 -0.0094  0.2051
  188DOPC  H15R23186   1.530   0.254  14.390  1.8855 -1.9347 -1.4045
  188DOPC  H15S23187   1.604   0.317  14.548  3.5820  1.3334 -1.8087
  188DOPC  C21623188   1.549   0.107  14.564 -0.3070 -0.0713 -0.4519
  188DOPC  H16R23189   1.634   0.047  14.602 -2.3916 -4.1151 -1.5927
  188DOPC  H16S23190   1.497   0.038  14.494 -1.7566  2.0361 -1.5829
  188DOPC  C21723191   1.447   0.132  14.675  0.3812 -0.7031 -0.0556
  188DOPC  H17R23192   1.382   0.045  14.698 -0.2058 -0.4174 -0.5888
  188DOPC  H17S23193   1.378   0.215  14.647 -1.5734 -1.4548  2.1928
  188DOPC  C21823194   1.498   0.173  14.814 -0.3339 -0.0253  0.0440
  188DOPC  H18R23195   1.578   0.250  14.805  0.1583 -0.1039  2.9409
  188DOPC  H18S23196   1.545   0.080  14.852  0.4332  0.0493 -0.6718
  188DOPC  H18T23197   1.417   0.219  14.875  0.0661  1.5657 -0.5463
  188DOPC   C3323198   1.286   0.434  13.186  0.6633 -0.4092  0.4187
  188DOPC   H3X23199   1.226   0.525  13.164  1.6122 -0.6914 -4.6227
  188DOPC   H3Y23200   1.388   0.477  13.193  0.2032  1.2264 -1.8875
  188DOPC   C3423201   1.243   0.374  13.319  0.2701 -0.0350 -1.2040
  188DOPC   H4X23202   1.135   0.352  13.304  0.2691  0.2421 -1.6173
  188DOPC   H4Y23203   1.243   0.450  13.400  0.5156 -0.7410 -0.5340
  188DOPC   C3523204   1.325   0.251  13.354  0.0836 -0.0075 -0.4932
  188DOPC   H5X23205   1.413   0.256  13.287  0.0032 -2.5201 -0.8930
  188DOPC   H5Y23206   1.273   0.155  13.334 -0.1166  0.1610 -0.7977
  188DOPC   C3623207   1.365   0.255  13.500  0.4447  0.4161 -0.0113
  188DOPC   H6X23208   1.433   0.340  13.522 -0.4179  1.0120  0.3912
  188DOPC   H6Y23209   1.275   0.264  13.564 -0.4764 -1.0064 -1.0244
  188DOPC   C3723210   1.448   0.132  13.535  0.3586  0.0824 -0.9668
  188DOPC   H7X23211   1.392   0.039  13.515  0.0031  0.1756 -0.4327
  188DOPC   H7Y23212   1.536   0.130  13.467  0.2762 -0.5287 -1.0611
  188DOPC   C3823213   1.491   0.146  13.681 -0.0890  0.3895 -0.3720
  188DOPC   H8X23214   1.400   0.148  13.745 -0.4956  3.6905 -0.8780
  188DOPC   H8Y23215   1.549   0.240  13.693  0.8909 -0.3346  0.7458
  188DOPC   C3923216   1.583   0.044  13.721 -0.4271  0.6319  0.0922
  188DOPC   H9X23217   1.658   0.033  13.642 -0.3108 -2.4427  0.5409
  188DOPC  C31023218   1.577  -0.044  13.815 -0.1099  0.5306 -0.1776
  188DOPC  H10X23219   1.661  -0.111  13.839 -0.0738  0.8969  0.7653
  188DOPC  C31123220   1.457  -0.060  13.907 -0.4691  0.5401  0.4812
  188DOPC  H11X23221   1.385  -0.136  13.870 -3.3230  2.4131  1.8093
  188DOPC  H11Y23222   1.398   0.034  13.911  0.6108  1.2186  1.1511
  188DOPC  C31223223   1.488  -0.100  14.056 -0.2181 -0.7156 -0.6914
  188DOPC  H12X23224   1.387  -0.097  14.102 -0.8589  0.8481 -2.1090
  188DOPC  H12Y23225   1.552  -0.030  14.113  0.9029 -2.6951  0.6160
  188DOPC  C31323226   1.543  -0.241  14.081  0.0219 -0.0999 -0.0255
  188DOPC  H13X23227   1.458  -0.305  14.049 -0.5352 -0.6094  2.3417
  188DOPC  H13Y23228   1.629  -0.268  14.016 -0.9345  0.0533 -1.4104
  188DOPC  C31423229   1.567  -0.280  14.225 -0.0772 -0.1884  0.5663
  188DOPC  H14X23230   1.640  -0.212  14.274 -1.1605  0.7763  0.8796
  188DOPC  H14Y23231   1.464  -0.270  14.267 -1.5669 -1.0400 -2.5640
  188DOPC  C31523232   1.603  -0.431  14.241  0.3203  1.3773 -0.7174
  188DOPC  H15X23233   1.520  -0.504  14.229  0.9708  0.2813  1.1251
  188DOPC  H15Y23234   1.640  -0.438  14.345  1.9841 -0.7159 -1.3704
  188DOPC  C31623235   1.725  -0.477  14.159  0.1853 -0.0910  0.4543
  188DOPC  H16X23236   1.709  -0.474  14.049  3.3360 -1.6872 -0.1653
  188DOPC  H16Y23237   1.801  -0.397  14.176 -1.5293  2.1632 -1.7548
  188DOPC  C31723238   1.789  -0.617  14.187 -0.1812  0.3028 -0.1216
  188DOPC  H17X23239   1.828  -0.619  14.291  0.6974  1.3318 -0.4098
  188DOPC  H17Y23240   1.711  -0.695  14.170  0.3072  0.0142 -1.1043
  188DOPC  C31823241   1.908  -0.647  14.092 -0.6947  0.2770  0.5661
  188DOPC  H18X23242   1.937  -0.754  14.089 -0.4296  0.3751 -0.6581
  188DOPC  H18Y23243   1.866  -0.623  13.992 -2.4741  0.8703  1.3979
  188DOPC  H18Z23244   1.998  -0.585  14.109  0.2641 -0.2225 -2.2303
  189DOPC     N23245   3.311   4.927  11.841  0.3829  0.3310 -0.2144
  189DOPC   C1223246   3.189   4.960  11.929  0.4188  0.2698 -0.1122
  189DOPC  H12A23247   3.119   4.880  11.910 -0.4991  1.0314 -0.0419
  189DOPC  H12B23248   3.138   5.052  11.902  0.9910  1.0334  1.2953
  189DOPC   C1323249   3.422   5.037  11.826 -0.0762  0.2623  0.5888
  189DOPC  H13A23250   3.449   5.079  11.922 -0.5943  1.0114  0.4166
  189DOPC  H13B23251   3.513   4.994  11.788  0.9897  0.8884  2.2720
  189DOPC  H13C23252   3.389   5.121  11.767 -0.7602  0.0826  0.6955
  189DOPC   C1423253   3.270   4.898  11.698 -0.2585 -0.0712  0.2327
  189DOPC  H14A23254   3.229   4.983  11.646 -2.1527 -1.4127 -0.5783
  189DOPC  H14B23255   3.357   4.863  11.643 -1.0868 -0.6317 -0.7547
  189DOPC  H14C23256   3.192   4.823  11.695 -2.2968  1.9583 -0.1895
  189DOPC   C1523257   3.369   4.793  11.900 -0.6814 -0.5338  0.5837
  189DOPC  H15A23258   3.303   4.709  11.882 -0.0773 -0.8273 -0.3835
  189DOPC  H15B23259   3.394   4.793  12.005  0.0103 -1.7577  0.4461
  189DOPC  H15C23260   3.461   4.767  11.848 -0.6008 -0.7073  0.8139
  189DOPC   C1123261   3.209   4.973  12.073  0.9312 -0.3404 -1.2516
  189DOPC  H11A23262   3.120   4.978  12.139  1.5505  2.1564 -0.4708
  189DOPC  H11B23263   3.270   4.886  12.104  1.8383 -0.0276 -2.1001
  189DOPC     P23264   3.222   5.231  12.117  0.0081  0.2488 -0.1022
  189DOPC   O1323265   3.093   5.215  12.045 -0.1534 -0.3645  0.2164
  189DOPC   O1423266   3.320   5.339  12.084 -0.4093  0.0939  0.4411
  189DOPC   O1223267   3.290   5.082  12.116  0.5931 -0.5154  0.4146
  189DOPC   O1123268   3.190   5.263  12.265  0.1062 -0.1961 -0.1945
  189DOPC    C123269   3.223   5.164  12.362 -0.3554 -0.7345  0.1381
  189DOPC    HA23270   3.190   5.061  12.339  2.2871 -1.3073 -1.4340
  189DOPC    HB23271   3.166   5.194  12.453 -0.4171  2.7263 -0.8829
  189DOPC    C223272   3.369   5.167  12.403 -0.4901  0.3677  0.5612
  189DOPC    HS23273   3.434   5.137  12.318  1.9128  1.8579  1.7605
  189DOPC   O2123274   3.380   5.067  12.508  0.0204  0.1706 -0.1611
  189DOPC   C2123275   3.499   5.024  12.544 -0.6568 -0.2605 -0.6700
  189DOPC   O2223276   3.604   5.041  12.483 -0.0191 -0.2196  0.1901
  189DOPC   C2223277   3.470   4.926  12.653 -0.0369  0.7032  0.4865
  189DOPC   H2R23278   3.403   4.849  12.610  1.4022 -0.4072  0.1666
  189DOPC   H2S23279   3.410   4.971  12.735 -1.1559 -0.5389  0.3763
  189DOPC    C323280   3.412   5.306  12.453 -0.2542 -0.5270  0.3791
  189DOPC    HX23281   3.420   5.378  12.368 -1.0890 -0.2950  0.4936
  189DOPC    HY23282   3.517   5.296  12.490 -0.2885  1.6148  1.2305
  189DOPC   O3123283   3.320   5.364  12.552 -0.1914 -0.4670 -0.1457
  189DOPC   C3123284   3.358   5.367  12.681  0.3330 -0.0714 -0.0427
  189DOPC   O3223285   3.457   5.313  12.728 -0.2642 -0.0582  0.4668
  189DOPC   C3223286   3.256   5.447  12.771 -0.5855 -0.1212 -0.0795
  189DOPC   H2X23287   3.154   5.442  12.727  0.1347  1.5302 -2.1047
  189DOPC   H2Y23288   3.256   5.397  12.870  0.2082  0.6724  0.3356
  189DOPC   C2323289   3.607   4.862  12.697  0.4733  0.0157  0.0160
  189DOPC   H3R23290   3.666   4.953  12.719  0.0672  0.5941 -1.1974
  189DOPC   H3S23291   3.656   4.800  12.619  2.0710 -0.6462  1.4864
  189DOPC   C2423292   3.602   4.776  12.830  0.5321 -0.2592  0.5281
  189DOPC   H4R23293   3.703   4.742  12.863  0.6148 -1.8627 -1.2764
  189DOPC   H4S23294   3.543   4.686  12.804  1.2983 -0.3784 -0.8899
  189DOPC   C2523295   3.531   4.845  12.944  0.8158 -0.0706  0.6944
  189DOPC   H5R23296   3.427   4.870  12.913  1.0998  2.2653  1.4047
  189DOPC   H5S23297   3.590   4.936  12.966  2.2702 -0.4369 -1.4231
  189DOPC   C2623298   3.536   4.756  13.065 -0.2935  0.3226 -0.0945
  189DOPC   H6R23299   3.646   4.760  13.077 -0.2110  1.5077 -1.0936
  189DOPC   H6S23300   3.498   4.657  13.030  0.3171  0.4946 -1.2913
  189DOPC   C2723301   3.465   4.824  13.186 -0.0731 -0.2556  0.6010
  189DOPC   H7R23302   3.356   4.838  13.172 -0.5737 -1.6291  2.7298
  189DOPC   H7S23303   3.513   4.922  13.205 -0.3881  0.1020 -0.3662
  189DOPC   C2823304   3.486   4.736  13.312  0.9302  0.3221 -0.4879
  189DOPC   H8R23305   3.595   4.729  13.336  0.5801 -1.2504  0.8839
  189DOPC   H8S23306   3.454   4.630  13.301  2.9785 -0.2472 -1.5449
  189DOPC   C2923307   3.420   4.810  13.425  0.5152 -0.4330 -0.2485
  189DOPC   H9R23308   3.334   4.873  13.397  0.2027 -0.2515  1.0282
  189DOPC  C21023309   3.428   4.778  13.559  0.3746  0.1484  0.0374
  189DOPC  H10R23310   3.378   4.845  13.630 -0.4047  0.3920 -0.7290
  189DOPC  C21123311   3.512   4.675  13.627 -0.2677 -0.2390 -0.2446
  189DOPC  H11R23312   3.556   4.721  13.718 -1.0060 -0.7752  0.3962
  189DOPC  H11S23313   3.597   4.645  13.561 -0.0958 -0.4886  0.0851
  189DOPC  C21223314   3.429   4.552  13.682 -0.5088  0.0543 -0.5520
  189DOPC  H12R23315   3.391   4.495  13.594 -2.0325  0.4174 -0.1533
  189DOPC  H12S23316   3.347   4.573  13.753 -1.2787 -1.4518 -0.9500
  189DOPC  C21323317   3.514   4.452  13.770  0.1729  0.3651 -0.1489
  189DOPC  H13R23318   3.606   4.422  13.715  0.4151 -0.3707  0.6248
  189DOPC  H13S23319   3.456   4.359  13.789 -2.1033  1.9356  1.0864
  189DOPC  C21423320   3.543   4.525  13.901  0.0867 -0.7766  0.1432
  189DOPC  H14R23321   3.455   4.562  13.959  0.4268 -1.2997  1.0202
  189DOPC  H14S23322   3.606   4.615  13.883 -0.7234 -0.5381 -1.7184
  189DOPC  C21523323   3.634   4.445  13.994  0.5899  0.0309  0.3566
  189DOPC  H15R23324   3.736   4.446  13.951  0.5153 -0.0141  0.1758
  189DOPC  H15S23325   3.587   4.344  13.992 -0.3571  0.4495  0.6791
  189DOPC  C21623326   3.627   4.493  14.131  0.3780  0.3453 -0.2319
  189DOPC  H16R23327   3.520   4.500  14.161 -0.1590 -1.6227 -1.5626
  189DOPC  H16S23328   3.658   4.600  14.132 -0.0833  0.4827 -0.2428
  189DOPC  C21723329   3.698   4.410  14.242 -0.1150  0.1267 -0.0909
  189DOPC  H17R23330   3.671   4.302  14.244 -2.7647  0.7544  1.5322
  189DOPC  H17S23331   3.677   4.450  14.343 -0.8815  0.2401 -0.2921
  189DOPC  C21823332   3.849   4.417  14.228  0.6336 -0.4544 -0.1767
  189DOPC  H18R23333   3.898   4.381  14.320  3.2882 -0.4412 -1.4869
  189DOPC  H18S23334   3.871   4.520  14.192 -1.5921  0.2572  0.3724
  189DOPC  H18T23335   3.881   4.342  14.152  2.1120 -1.7260  1.6096
  189DOPC   C3323336   3.305   5.596  12.773 -0.6457  0.0194 -0.4391
  189DOPC   H3X23337   3.226   5.649  12.830  0.2772  0.8067  0.1149
  189DOPC   H3Y23338   3.307   5.641  12.671  3.2767 -0.8591 -0.8972
  189DOPC   C3423339   3.447   5.621  12.825 -1.0567 -0.3947  0.5070
  189DOPC   H4X23340   3.470   5.729  12.820 -0.6854 -0.5045 -0.4720
  189DOPC   H4Y23341   3.525   5.573  12.762  1.2535  2.8625  0.6213
  189DOPC   C3523342   3.463   5.586  12.969 -0.0729 -0.2704 -0.0660
  189DOPC   H5X23343   3.452   5.476  12.973 -1.0240 -0.1544  1.5187
  189DOPC   H5Y23344   3.373   5.613  13.028 -0.0460 -0.0861 -0.1069
  189DOPC   C3623345   3.588   5.643  13.026 -0.1044 -0.4511 -0.4926
  189DOPC   H6X23346   3.675   5.608  12.968  0.7165  2.7009 -1.3015
  189DOPC   H6Y23347   3.588   5.754  13.022  1.6018 -0.4625 -3.1364
  189DOPC   C3723348   3.600   5.592  13.174 -0.1743  0.9591  0.5099
  189DOPC   H7X23349   3.515   5.638  13.227 -0.5438  0.4876  0.3391
  189DOPC   H7Y23350   3.588   5.482  13.180  0.5877  0.8795  0.7785
  189DOPC   C3823351   3.733   5.637  13.242 -0.1235 -0.1495  0.6889
  189DOPC   H8X23352   3.824   5.611  13.185  1.0952  0.3504  2.3237
  189DOPC   H8Y23353   3.750   5.583  13.338  2.6321  1.0641  0.9707
  189DOPC   C3923354   3.729   5.781  13.271 -0.4013 -0.3044  0.2679
  189DOPC   H9X23355   3.746   5.849  13.186  2.1435  1.9518  2.3860
  189DOPC  C31023356   3.710   5.843  13.387 -0.2595  0.0950 -0.5980
  189DOPC  H10X23357   3.735   5.950  13.398  2.1778 -0.5972  1.7888
  189DOPC  C31123358   3.686   5.776  13.518 -0.1738 -0.4326  0.5752
  189DOPC  H11X23359   3.783   5.776  13.572 -0.4819  1.3397  1.2054
  189DOPC  H11Y23360   3.646   5.672  13.511 -1.5212  0.1127 -0.1332
  189DOPC  C31223361   3.593   5.874  13.590  0.1884 -0.1863 -0.0485
  189DOPC  H12X23362   3.509   5.906  13.525 -0.1744  0.5416  0.7493
  189DOPC  H12Y23363   3.656   5.957  13.629  1.2177 -1.3284  0.7800
  189DOPC  C31323364   3.514   5.790  13.694 -0.6350 -0.2492 -0.0977
  189DOPC  H13X23365   3.435   5.726  13.649  0.4390 -0.8058 -1.2438
  189DOPC  H13Y23366   3.588   5.734  13.755 -0.9745  0.8324  1.3459
  189DOPC  C31423367   3.445   5.876  13.798 -0.1852 -0.1606 -0.5961
  189DOPC  H14X23368   3.514   5.907  13.879 -0.9142  1.2867 -0.5017
  189DOPC  H14Y23369   3.419   5.974  13.751  1.0853  0.6954  0.4143
  189DOPC  C31523370   3.341   5.797  13.883 -0.1213 -0.7394 -0.1490
  189DOPC  H15X23371   3.391   5.707  13.923  2.3080  1.0336  1.0529
  189DOPC  H15Y23372   3.248   5.777  13.825 -0.2902 -0.2364 -0.0580
  189DOPC  C31623373   3.287   5.886  14.001 -0.3799  0.2010  0.9179
  189DOPC  H16X23374   3.370   5.932  14.059  0.9513 -0.7112 -0.1921
  189DOPC  H16Y23375   3.242   5.976  13.953  1.0726  0.8482  0.6941
  189DOPC  C31723376   3.174   5.817  14.084 -0.4103  0.3042 -0.4539
  189DOPC  H17X23377   3.091   5.776  14.022 -2.6443 -0.8813  3.0277
  189DOPC  H17Y23378   3.231   5.739  14.140 -1.0331 -0.7773 -1.2827
  189DOPC  C31823379   3.109   5.921  14.177  0.5757  0.7338 -1.2285
  189DOPC  H18X23380   3.174   5.986  14.240 -0.4372 -0.6446  1.3856
  189DOPC  H18Y23381   3.054   5.988  14.108 -0.4203  1.8420  0.5623
  189DOPC  H18Z23382   3.040   5.874  14.250  0.5494  1.1674 -0.9750
  190DOPC     N23383   2.284   5.864  12.268  0.1234  0.4222 -0.5054
  190DOPC   C1223384   2.254   5.941  12.397  0.8636  0.6749  0.3188
  190DOPC  H12A23385   2.241   6.035  12.347 -0.1932 -0.6190 -1.9887
  190DOPC  H12B23386   2.343   5.934  12.458  0.8143 -0.4840  0.2913
  190DOPC   C1323387   2.406   5.922  12.215 -0.5199 -0.4561  0.1056
  190DOPC  H13A23388   2.397   6.022  12.174  0.2118 -0.4219  0.0273
  190DOPC  H13B23389   2.476   5.943  12.294 -0.3512 -0.0938 -0.1374
  190DOPC  H13C23390   2.455   5.858  12.143  0.7236  0.1540  0.3919
  190DOPC   C1423391   2.165   5.877  12.172 -0.1529 -0.5253 -0.4494
  190DOPC  H14A23392   2.142   5.778  12.134 -2.7613 -1.1899  2.5069
  190DOPC  H14B23393   2.072   5.907  12.218  0.2182 -0.2674  0.1453
  190DOPC  H14C23394   2.186   5.946  12.091  0.7656  0.9842  1.0295
  190DOPC   C1523395   2.316   5.720  12.293  0.0851 -0.0606 -0.1621
  190DOPC  H15A23396   2.234   5.672  12.343  0.9394 -0.6348  0.7262
  190DOPC  H15B23397   2.400   5.709  12.359  1.0819 -1.8192 -1.6410
  190DOPC  H15C23398   2.334   5.671  12.199  0.6926 -3.1647  1.4609
  190DOPC   C1123399   2.120   5.897  12.480 -0.6819 -0.2516  0.2852
  190DOPC  H11A23400   2.115   5.786  12.482 -3.9118 -0.2823 -1.9798
  190DOPC  H11B23401   2.136   5.924  12.587  0.9181 -0.4571  0.1329
  190DOPC     P23402   1.997   6.118  12.440  0.1734  0.0838  0.1964
  190DOPC   O1323403   1.854   6.160  12.415 -0.2551  0.4212 -0.4153
  190DOPC   O1423404   2.093   6.164  12.340 -0.2744  0.3797  0.7086
  190DOPC   O1223405   2.003   5.959  12.417  0.0620 -0.7756  0.3553
  190DOPC   O1123406   2.037   6.149  12.592 -0.6329  0.0155  0.2973
  190DOPC    C123407   1.948   6.141  12.699  0.2255  0.2539 -0.5512
  190DOPC    HA23408   1.863   6.071  12.687 -2.1543  2.5655  1.3205
  190DOPC    HB23409   1.892   6.235  12.723 -2.1177 -1.6019  1.9876
  190DOPC    C223410   2.021   6.125  12.833  0.3447  1.0997  0.1388
  190DOPC    HS23411   2.118   6.179  12.834 -0.5052  2.8387 -2.0723
  190DOPC   O2123412   2.047   5.980  12.835  0.0799  0.3909  0.1521
  190DOPC   C2123413   2.164   5.952  12.904  0.4724 -0.3165  0.0403
  190DOPC   O2223414   2.233   6.029  12.963  0.0216 -0.2209  0.4377
  190DOPC   C2223415   2.182   5.800  12.895  0.0403 -0.1233  0.1502
  190DOPC   H2R23416   2.292   5.789  12.892  0.3099  1.9773  0.5422
  190DOPC   H2S23417   2.139   5.759  12.801 -1.3469  1.9283 -0.1863
  190DOPC    C323418   1.932   6.166  12.952  0.6160  0.1997  0.4351
  190DOPC    HX23419   1.833   6.116  12.948 -0.2308  1.8304 -0.1053
  190DOPC    HY23420   1.900   6.273  12.952 -0.0526  0.0144  1.3242
  190DOPC   O3123421   1.991   6.134  13.087  0.1181 -0.4568  0.0707
  190DOPC   C3123422   2.093   6.224  13.119  0.2580  0.6192 -0.0972
  190DOPC   O3223423   2.130   6.315  13.055  0.2921 -0.1494 -0.0861
  190DOPC   C3223424   2.150   6.185  13.252 -0.2215  0.8721  0.0708
  190DOPC   H2X23425   2.082   6.120  13.312  0.4722  0.4162  0.3810
  190DOPC   H2Y23426   2.230   6.116  13.218  0.1842  0.5044  1.6685
  190DOPC   C2323427   2.116   5.707  13.008  0.3179 -1.2045  0.7667
  190DOPC   H3R23428   2.149   5.602  12.997 -3.0447 -2.2321 -0.8091
  190DOPC   H3S23429   2.005   5.717  13.004  0.5297  2.8299  0.6708
  190DOPC   C2423430   2.164   5.769  13.144 -0.0821  0.1922  0.0188
  190DOPC   H4R23431   2.243   5.845  13.130  0.7349 -0.6508 -0.0295
  190DOPC   H4S23432   2.216   5.688  13.199 -0.1449 -0.8111 -1.3461
  190DOPC   C2523433   2.048   5.817  13.236  0.1075  1.3477 -0.1179
  190DOPC   H5R23434   1.978   5.731  13.229  1.5913  0.0306  0.6571
  190DOPC   H5S23435   2.000   5.904  13.185  0.4429  1.4251 -0.3024
  190DOPC   C2623436   2.082   5.852  13.378  0.0813 -0.0512 -0.5271
  190DOPC   H6R23437   2.150   5.940  13.374  1.4821 -1.1157 -0.9266
  190DOPC   H6S23438   2.146   5.774  13.423 -2.1986 -1.5333  0.3412
  190DOPC   C2723439   1.960   5.874  13.467 -0.3954  0.5383 -0.1987
  190DOPC   H7R23440   1.887   5.790  13.460  2.3152 -2.1377  1.1883
  190DOPC   H7S23441   1.908   5.967  13.434  0.7942  0.1280 -3.6615
  190DOPC   C2823442   1.988   5.886  13.615 -0.2429  0.0427  0.3153
  190DOPC   H8R23443   1.899   5.936  13.659  0.1257  0.9525  0.0661
  190DOPC   H8S23444   2.067   5.962  13.631 -2.0522  2.0029  0.4911
  190DOPC   C2923445   2.015   5.757  13.692  0.5761  0.0107  0.2532
  190DOPC   H9R23446   2.122   5.739  13.711  1.0077  3.5664  2.0452
  190DOPC  C21023447   1.928   5.669  13.742  0.3504  0.2175  0.1054
  190DOPC  H10R23448   1.973   5.591  13.806 -0.8800 -0.1480  0.5443
  190DOPC  C21123449   1.780   5.683  13.730 -0.1021  0.3458 -0.1210
  190DOPC  H11R23450   1.735   5.584  13.707 -0.3703  0.3727  0.2682
  190DOPC  H11S23451   1.750   5.757  13.653 -0.2682  1.3124  0.8404
  190DOPC  C21223452   1.716   5.729  13.861  0.1384 -0.1767 -0.3836
  190DOPC  H12R23453   1.605   5.730  13.865  0.1357 -0.2983 -0.4237
  190DOPC  H12S23454   1.747   5.835  13.874 -1.4699  0.0873  1.8830
  190DOPC  C21323455   1.749   5.638  13.986 -0.0653 -0.1583  0.0106
  190DOPC  H13R23456   1.850   5.663  14.025  0.3429  1.3312 -1.8650
  190DOPC  H13S23457   1.740   5.534  13.947  0.5574  0.4966 -2.0356
  190DOPC  C21423458   1.644   5.658  14.095  0.5313 -0.6163 -0.3398
  190DOPC  H14R23459   1.543   5.647  14.050  0.9192 -3.1368 -0.7219
  190DOPC  H14S23460   1.648   5.764  14.128  0.1397 -1.0578  1.2064
  190DOPC  C21523461   1.658   5.550  14.207 -0.3021 -0.1399  0.5036
  190DOPC  H15R23462   1.759   5.518  14.239 -0.3098 -2.7514 -1.6919
  190DOPC  H15S23463   1.607   5.459  14.166  1.2969 -0.4986 -0.7770
  190DOPC  C21623464   1.572   5.592  14.323 -0.2689  0.6438  0.4134
  190DOPC  H16R23465   1.474   5.625  14.282 -0.4548 -0.8038 -0.3721
  190DOPC  H16S23466   1.619   5.684  14.363  2.0400 -1.1561  2.0994
  190DOPC  C21723467   1.555   5.483  14.427  0.5060 -0.1347  0.4059
  190DOPC  H17R23468   1.519   5.387  14.384  0.0752  0.3833 -0.4104
  190DOPC  H17S23469   1.473   5.518  14.492  0.6306 -1.2295  1.1805
  190DOPC  C21823470   1.682   5.463  14.512  0.1455  0.3657  0.3822
  190DOPC  H18R23471   1.671   5.387  14.592 -1.5985 -1.3768 -1.4016
  190DOPC  H18S23472   1.712   5.567  14.538  1.6329  0.8974 -2.9864
  190DOPC  H18T23473   1.755   5.413  14.444 -0.3311 -2.7318  1.9426
  190DOPC   C3323474   2.210   6.298  13.335  0.0566 -0.6591  0.3343
  190DOPC   H3X23475   2.125   6.362  13.367 -1.9825 -3.0428 -0.0068
  190DOPC   H3Y23476   2.283   6.357  13.276  0.8798  0.8920  2.7320
  190DOPC   C3423477   2.269   6.250  13.470 -0.5202 -1.2258  0.0281
  190DOPC   H4X23478   2.376   6.218  13.469 -0.6402 -1.6193 -0.1090
  190DOPC   H4Y23479   2.218   6.158  13.505 -0.5544 -0.7700  1.2429
  190DOPC   C3523480   2.252   6.356  13.580  0.1777  0.1269  0.6228
  190DOPC   H5X23481   2.147   6.393  13.580 -0.2330 -0.6451 -2.9928
  190DOPC   H5Y23482   2.308   6.449  13.556 -1.8270  1.1810 -0.2303
  190DOPC   C3623483   2.271   6.290  13.719 -0.0813 -0.1561  0.1802
  190DOPC   H6X23484   2.192   6.215  13.739 -0.7555  0.9789  2.0612
  190DOPC   H6Y23485   2.362   6.225  13.719  0.5259  0.6766 -0.0976
  190DOPC   C3723486   2.278   6.398  13.830 -0.2258  0.0457 -0.3723
  190DOPC   H7X23487   2.385   6.424  13.845  0.0953 -0.9748 -0.8423
  190DOPC   H7Y23488   2.214   6.484  13.800  0.0529  0.1294 -0.7261
  190DOPC   C3823489   2.211   6.347  13.965  0.0765  0.3461  0.8160
  190DOPC   H8X23490   2.107   6.328  13.929  0.6990 -1.4141 -0.1726
  190DOPC   H8Y23491   2.205   6.424  14.045 -1.4140  0.7261  0.3756
  190DOPC   C3923492   2.267   6.209  14.015  0.3402  1.1385 -0.4974
  190DOPC   H9X23493   2.205   6.127  13.975  0.5087  0.2991  0.8771
  190DOPC  C31023494   2.365   6.187  14.106  0.6990  0.5861  0.3371
  190DOPC  H10X23495   2.399   6.086  14.135 -0.3872  0.8487  2.7747
  190DOPC  C31123496   2.450   6.298  14.164  0.4954 -0.6193  0.0814
  190DOPC  H11X23497   2.387   6.380  14.205 -1.0208 -0.9892 -1.3823
  190DOPC  H11Y23498   2.509   6.350  14.085 -0.9018 -0.5111 -0.9346
  190DOPC  C31223499   2.550   6.263  14.280  0.6008 -0.1806 -0.3448
  190DOPC  H12X23500   2.591   6.359  14.320 -0.9899  0.5031 -0.3015
  190DOPC  H12Y23501   2.630   6.208  14.226 -0.8612  0.8365 -3.7749
  190DOPC  C31323502   2.497   6.182  14.399 -0.2860  0.5605 -0.1007
  190DOPC  H13X23503   2.400   6.236  14.410 -0.4682  0.4426 -1.0911
  190DOPC  H13Y23504   2.478   6.076  14.376  1.4117  0.3965 -0.9404
  190DOPC  C31423505   2.589   6.205  14.529 -0.2963  0.0511  0.7259
  190DOPC  H14X23506   2.688   6.154  14.527  0.5060  1.5269  1.0750
  190DOPC  H14Y23507   2.609   6.314  14.527 -0.7479  0.1261 -0.7578
  190DOPC  C31523508   2.519   6.158  14.660  0.1143  0.6749 -0.0823
  190DOPC  H15X23509   2.571   6.194  14.752  0.8540  1.0706 -0.6482
  190DOPC  H15Y23510   2.520   6.047  14.664 -1.9379  0.6538  2.1530
  190DOPC  C31623511   2.372   6.210  14.652 -0.3003  0.1641 -0.0382
  190DOPC  H16X23512   2.345   6.298  14.590 -0.1771 -0.2727 -0.7246
  190DOPC  H16Y23513   2.325   6.138  14.582 -0.8342 -0.4745  0.9557
  190DOPC  C31723514   2.302   6.190  14.782  0.5560 -0.1307  0.5775
  190DOPC  H17X23515   2.349   6.248  14.865 -0.2895 -0.4690  1.3054
  190DOPC  H17Y23516   2.199   6.226  14.764  0.8218 -1.0647 -3.7600
  190DOPC  C31823517   2.280   6.049  14.825  0.8577  0.0680 -0.9262
  190DOPC  H18X23518   2.380   6.001  14.834  1.3089  1.0168 -0.6970
  190DOPC  H18Y23519   2.231   6.028  14.923  1.3280 -0.2336 -0.7486
  190DOPC  H18Z23520   2.216   5.996  14.752 -0.5607 -2.0578  1.6593
  191DOPC     N23521   5.005   6.154  12.516 -0.5030 -0.4374  0.2940
  191DOPC   C1223522   4.944   6.015  12.511 -0.0482 -0.8587  0.2854
  191DOPC  H12A23523   5.012   5.933  12.524  0.4241 -0.7530 -1.2787
  191DOPC  H12B23524   4.903   6.002  12.411 -2.7536 -0.6643  1.2683
  191DOPC   C1323525   5.118   6.164  12.420 -0.1144 -0.3324 -0.1620
  191DOPC  H13A23526   5.196   6.094  12.445 -0.1995 -1.0652 -1.7902
  191DOPC  H13B23527   5.084   6.128  12.323 -2.0802  0.5986  0.1323
  191DOPC  H13C23528   5.163   6.261  12.409 -2.0443  0.5299 -1.0556
  191DOPC   C1423529   5.062   6.176  12.651 -0.3470  0.5820  0.5073
  191DOPC  H14A23530   5.115   6.270  12.656  0.0605  0.4113 -0.4490
  191DOPC  H14B23531   4.980   6.180  12.721 -0.8434 -2.2409  0.2247
  191DOPC  H14C23532   5.136   6.103  12.683 -2.9213 -1.5346  2.0643
  191DOPC   C1523533   4.912   6.264  12.484 -0.1692 -0.0573 -0.0213
  191DOPC  H15A23534   4.954   6.363  12.484  1.7801 -0.8470  0.6946
  191DOPC  H15B23535   4.822   6.271  12.543 -0.7832 -0.7328 -0.8510
  191DOPC  H15C23536   4.886   6.251  12.380 -2.5562 -0.9987  0.6149
  191DOPC   C1123537   4.815   5.987  12.603 -0.2842 -0.7706  0.1285
  191DOPC  H11A23538   4.781   5.884  12.575 -0.0909 -0.7566 -0.1655
  191DOPC  H11B23539   4.861   5.990  12.704  1.6138  0.4248 -0.7207
  191DOPC     P23540   4.610   6.073  12.468  0.0575  0.0202  0.1391
  191DOPC   O1323541   4.631   5.966  12.368  0.6930  0.1753 -0.5717
  191DOPC   O1423542   4.572   6.212  12.430 -0.6910  0.3354  0.4867
  191DOPC   O1223543   4.717   6.084  12.581  0.0190  0.2470 -0.8633
  191DOPC   O1123544   4.486   6.018  12.542 -0.0860  0.1650 -0.6482
  191DOPC    C123545   4.450   6.070  12.674  0.6379 -0.4213 -0.7417
  191DOPC    HA23546   4.392   6.164  12.665 -0.7528 -0.3836  5.0159
  191DOPC    HB23547   4.534   6.114  12.731 -0.7660 -0.0010  1.0808
  191DOPC    C223548   4.366   5.971  12.753  0.3846  0.5257 -0.8811
  191DOPC    HS23549   4.280   5.937  12.691  0.8396 -3.4705  0.3374
  191DOPC   O2123550   4.323   6.040  12.864  0.0333  0.1061 -0.1062
  191DOPC   C2123551   4.228   5.991  12.943  0.0479  0.4823 -0.1213
  191DOPC   O2223552   4.169   5.887  12.920  0.1481 -0.2493 -0.2166
  191DOPC   C2223553   4.178   6.088  13.041 -0.5112  0.1692 -0.3011
  191DOPC   H2R23554   4.070   6.110  13.029 -1.1628 -2.1262  0.6141
  191DOPC   H2S23555   4.235   6.182  13.028  0.5623 -0.7348 -2.6697
  191DOPC    C323556   4.442   5.841  12.793  0.1261  0.3025  0.8391
  191DOPC    HX23557   4.479   5.811  12.692  1.2102  1.3033  0.9277
  191DOPC    HY23558   4.365   5.771  12.832  0.8867  0.4921  2.7917
  191DOPC   O3123559   4.544   5.851  12.897 -0.3555 -0.6272 -0.0385
  191DOPC   C3123560   4.650   5.774  12.880 -0.2805  0.1912 -0.0030
  191DOPC   O3223561   4.672   5.691  12.790  0.2244 -0.5539 -0.6255
  191DOPC   C3223562   4.733   5.786  13.008  0.7619 -0.0997  0.2999
  191DOPC   H2X23563   4.835   5.815  12.974 -0.7153  3.5765 -1.5055
  191DOPC   H2Y23564   4.680   5.868  13.061 -1.5760 -1.2682 -0.0924
  191DOPC   C2323565   4.195   6.045  13.184 -0.1394  1.1361 -0.2402
  191DOPC   H3R23566   4.206   6.139  13.243  1.8640  1.1566 -0.6079
  191DOPC   H3S23567   4.285   5.985  13.208 -1.2029  0.0293  1.1501
  191DOPC   C2423568   4.063   5.982  13.245  0.2959  0.5443  0.4163
  191DOPC   H4R23569   4.018   5.912  13.171 -1.4128  1.4724  0.5361
  191DOPC   H4S23570   3.992   6.061  13.277 -0.8637 -0.5158  0.5740
  191DOPC   C2523571   4.095   5.904  13.376 -0.4095 -0.1657  0.3484
  191DOPC   H5R23572   4.145   5.810  13.342 -1.2863 -1.1830  1.7334
  191DOPC   H5S23573   3.997   5.874  13.420 -0.5664 -0.1605  0.0060
  191DOPC   C2623574   4.174   5.976  13.486  0.4174  0.7862 -0.5498
  191DOPC   H6R23575   4.126   6.072  13.512 -1.1243  0.2816 -1.4035
  191DOPC   H6S23576   4.269   6.001  13.434 -0.4589 -1.3526 -3.4495
  191DOPC   C2723577   4.205   5.884  13.611  0.0058 -0.3756  0.0070
  191DOPC   H7R23578   4.279   5.945  13.667  0.1507  1.8605 -2.3788
  191DOPC   H7S23579   4.256   5.795  13.570  0.2215  0.4794 -1.7039
  191DOPC   C2823580   4.084   5.845  13.694 -0.3552 -0.3436  0.0916
  191DOPC   H8R23581   4.119   5.805  13.792  1.4503 -2.2648 -1.2404
  191DOPC   H8S23582   4.030   5.762  13.643 -2.6599  0.4276  1.1670
  191DOPC   C2923583   3.983   5.950  13.710  0.6134  0.6928 -0.0960
  191DOPC   H9R23584   3.906   5.958  13.631 -0.7127  0.3097  1.1016
  191DOPC  C21023585   3.956   6.021  13.823  0.6313  0.0449  0.8055
  191DOPC  H10R23586   3.857   6.067  13.831  1.3367  1.5621  1.1604
  191DOPC  C21123587   4.035   6.006  13.946 -0.0093  0.3174 -0.5128
  191DOPC  H11R23588   4.047   6.108  13.988  1.4847 -1.1299  2.9517
  191DOPC  H11S23589   4.141   5.981  13.925  0.0440  0.6319 -0.6318
  191DOPC  C21223590   3.963   5.902  14.032  0.5411 -0.7992  0.5731
  191DOPC  H12R23591   3.997   5.801  14.001  0.6595 -0.8028  0.7131
  191DOPC  H12S23592   3.853   5.910  14.019  0.6421  1.1093  0.5826
  191DOPC  C21323593   4.012   5.906  14.179  0.0440  0.0456  0.1372
  191DOPC  H13R23594   4.122   5.920  14.183  0.1478  0.6098 -2.5561
  191DOPC  H13S23595   3.981   5.810  14.227 -2.0221  0.6342  0.0746
  191DOPC  C21423596   3.957   6.027  14.251  0.1006  0.8170  0.1310
  191DOPC  H14R23597   3.851   6.049  14.224 -0.1899  2.4027  2.2870
  191DOPC  H14S23598   4.016   6.115  14.218  0.6745 -0.0317 -1.1710
  191DOPC  C21523599   3.962   6.025  14.403 -0.8025  0.1854 -0.3709
  191DOPC  H15R23600   4.069   6.039  14.431 -0.3049  3.8982 -3.3440
  191DOPC  H15S23601   3.921   5.929  14.440  0.5624 -0.1318  0.3977
  191DOPC  C21623602   3.874   6.145  14.458  0.3813  0.0988  0.3811
  191DOPC  H16R23603   3.767   6.133  14.434  0.9184 -1.1085 -1.6927
  191DOPC  H16S23604   3.906   6.226  14.389  0.8237 -0.2821  0.1254
  191DOPC  C21723605   3.890   6.174  14.610 -0.0605 -0.1711  1.0198
  191DOPC  H17R23606   3.991   6.214  14.631  0.6288  0.1435 -2.3292
  191DOPC  H17S23607   3.890   6.071  14.651 -0.5500 -0.7251 -0.3209
  191DOPC  C21823608   3.783   6.264  14.659  0.3171  0.2666  0.9345
  191DOPC  H18R23609   3.780   6.267  14.770 -1.1635  3.1101  0.9043
  191DOPC  H18S23610   3.681   6.228  14.633  0.2681 -0.5469  2.1784
  191DOPC  H18T23611   3.807   6.363  14.616  2.4993  0.7142  2.9600
  191DOPC   C3323612   4.731   5.651  13.091 -0.6108 -0.6797  0.0958
  191DOPC   H3X23613   4.830   5.657  13.142 -0.9687  0.9869  0.6622
  191DOPC   H3Y23614   4.726   5.556  13.034  1.0958 -3.1692  3.6889
  191DOPC   C3423615   4.617   5.633  13.190  0.5340 -0.0935  0.2801
  191DOPC   H4X23616   4.636   5.543  13.252 -1.4057  0.4924  1.8205
  191DOPC   H4Y23617   4.520   5.619  13.138  0.4217  0.5505  0.3109
  191DOPC   C3523618   4.610   5.744  13.296  0.4321  0.5246  0.8054
  191DOPC   H5X23619   4.606   5.848  13.258  0.2198  0.8385  1.6541
  191DOPC   H5Y23620   4.701   5.728  13.358 -1.0534  0.1583  2.9954
  191DOPC   C3623621   4.497   5.725  13.399  0.1587  0.7569 -0.3223
  191DOPC   H6X23622   4.489   5.814  13.464 -0.3265  1.4168 -1.2500
  191DOPC   H6Y23623   4.404   5.706  13.340 -1.5652  0.6737  2.2825
  191DOPC   C3723624   4.511   5.595  13.490 -0.6682  0.0351  0.4973
  191DOPC   H7X23625   4.417   5.579  13.547 -1.2530  1.3357 -0.0644
  191DOPC   H7Y23626   4.549   5.512  13.428  0.5025  0.3170  0.8195
  191DOPC   C3823627   4.627   5.614  13.593 -0.1774 -1.0216  0.0676
  191DOPC   H8X23628   4.717   5.633  13.530 -0.5955  1.8965  0.2120
  191DOPC   H8Y23629   4.636   5.520  13.652  2.8827 -1.4484 -0.8831
  191DOPC   C3923630   4.616   5.734  13.682 -0.4188 -0.1892  0.4873
  191DOPC   H9X23631   4.651   5.834  13.650  2.1743 -0.8792  0.9672
  191DOPC  C31023632   4.567   5.724  13.807  0.6389  0.3938  0.0218
  191DOPC  H10X23633   4.542   5.812  13.868 -0.1593  2.1072 -2.5877
  191DOPC  C31123634   4.497   5.604  13.868 -0.6958 -0.7195  0.6607
  191DOPC  H11X23635   4.567   5.551  13.936 -3.7354 -2.5566  2.6126
  191DOPC  H11Y23636   4.463   5.531  13.792  2.5439 -0.7202 -0.9530
  191DOPC  C31223637   4.381   5.643  13.969 -0.8141 -0.2488 -0.6338
  191DOPC  H12X23638   4.284   5.645  13.915  0.0657  1.7743 -2.2957
  191DOPC  H12Y23639   4.403   5.741  14.017  0.2756 -1.1448  0.7820
  191DOPC  C31323640   4.370   5.538  14.081 -0.2583  0.2532  0.7192
  191DOPC  H13X23641   4.361   5.438  14.034 -1.7203 -0.0501  1.5570
  191DOPC  H13Y23642   4.469   5.532  14.130  0.4739 -2.5461 -0.8769
  191DOPC  C31423643   4.265   5.567  14.185  0.9774  0.3176 -0.4673
  191DOPC  H14X23644   4.179   5.623  14.141  2.4916  0.1937 -3.9491
  191DOPC  H14Y23645   4.226   5.475  14.232  0.4106 -0.3658 -2.1933
  191DOPC  C31523646   4.308   5.652  14.306 -0.3638  0.1251  0.3849
  191DOPC  H15X23647   4.330   5.760  14.287 -0.1596  0.1438  0.7124
  191DOPC  H15Y23648   4.409   5.617  14.336 -0.1255  1.6589  1.5010
  191DOPC  C31623649   4.220   5.633  14.428  0.3528  0.0167  0.5632
  191DOPC  H16X23650   4.117   5.614  14.392  0.4978 -2.5353  1.2814
  191DOPC  H16Y23651   4.253   5.544  14.486 -1.9773 -0.0915  1.8349
  191DOPC  C31723652   4.206   5.748  14.531  0.0707 -0.0779 -0.0257
  191DOPC  H17X23653   4.302   5.770  14.582  0.4176 -0.1964 -0.6232
  191DOPC  H17Y23654   4.182   5.842  14.477 -0.7063  0.3039  0.9561
  191DOPC  C31823655   4.103   5.717  14.635  0.4079  0.1984 -0.1318
  191DOPC  H18X23656   4.006   5.693  14.586 -0.2262 -3.2461  2.4326
  191DOPC  H18Y23657   4.129   5.630  14.699 -0.9765  1.3902  2.1963
  191DOPC  H18Z23658   4.079   5.800  14.705  0.6689  1.3266 -1.3311
  192DOPC     N23659   0.485   2.599  10.887  0.2403 -0.3351  0.2328
  192DOPC   C1223660   0.355   2.547  10.943 -0.0519 -0.2402 -0.6150
  192DOPC  H12A23661   0.379   2.452  10.989  1.1739  0.5454  0.4401
  192DOPC  H12B23662   0.283   2.523  10.866 -1.2028  3.0682 -0.7305
  192DOPC   C1323663   0.549   2.507  10.783  0.2951 -0.2099 -0.0755
  192DOPC  H13A23664   0.483   2.500  10.698  3.7528 -1.1112 -2.9197
  192DOPC  H13B23665   0.638   2.558  10.748  1.6114 -1.7504  0.9211
  192DOPC  H13C23666   0.562   2.408  10.822 -0.3702  0.3022  1.5236
  192DOPC   C1423667   0.584   2.602  11.003 -0.0562 -0.0045 -0.3765
  192DOPC  H14A23668   0.681   2.641  10.974 -1.1358  0.9084 -2.9760
  192DOPC  H14B23669   0.543   2.665  11.081  2.0454  0.4536  0.4569
  192DOPC  H14C23670   0.603   2.506  11.048  3.0836 -0.1483 -1.7414
  192DOPC   C1523671   0.465   2.731  10.810 -0.3421 -0.0234 -0.6726
  192DOPC  H15A23672   0.558   2.765  10.766  0.3894 -0.9636  0.0971
  192DOPC  H15B23673   0.435   2.809  10.878  0.6379  1.6845 -2.1211
  192DOPC  H15C23674   0.398   2.712  10.728 -1.2385 -1.9957  0.4437
  192DOPC   C1123675   0.280   2.632  11.048  0.0952 -0.3286 -0.1958
  192DOPC  H11A23676   0.257   2.733  11.008 -1.8153 -0.3834  0.6315
  192DOPC  H11B23677   0.183   2.580  11.066 -0.5855  0.4969 -1.3115
  192DOPC     P23678   0.359   2.531  11.273  0.1038 -0.1674 -0.1516
  192DOPC   O1323679   0.494   2.506  11.331  0.2572  0.6093  0.2296
  192DOPC   O1423680   0.287   2.415  11.214 -0.2537  0.1381  0.1614
  192DOPC   O1223681   0.364   2.651  11.165 -0.1955  0.0480  0.1544
  192DOPC   O1123682   0.282   2.594  11.391  0.3703 -0.0186 -0.1464
  192DOPC    C123683   0.225   2.726  11.395  0.3437  0.6600 -0.7981
  192DOPC    HA23684   0.145   2.728  11.472 -0.4975 -0.1257 -1.6312
  192DOPC    HB23685   0.193   2.759  11.294 -0.9228 -1.7209 -1.2350
  192DOPC    C223686   0.324   2.836  11.450 -0.3408 -0.5451  0.2170
  192DOPC    HS23687   0.426   2.827  11.405 -0.7483 -0.2248 -0.7940
  192DOPC   O2123688   0.325   2.817  11.591 -0.7466 -0.0230  0.0851
  192DOPC   C2123689   0.426   2.880  11.645  0.3778  0.1661  0.4729
  192DOPC   O2223690   0.500   2.958  11.585  0.0406 -0.0546  0.5133
  192DOPC   C2223691   0.438   2.844  11.792  0.3331  0.5864 -0.1019
  192DOPC   H2R23692   0.436   2.733  11.801 -0.2787  0.6774  1.2229
  192DOPC   H2S23693   0.345   2.879  11.841 -0.2789  0.1284 -0.9238
  192DOPC    C323694   0.265   2.974  11.410  0.5431 -0.1001 -0.6929
  192DOPC    HX23695   0.259   2.986  11.300 -1.1230  1.9479 -0.4545
  192DOPC    HY23696   0.328   3.059  11.444 -0.0579  0.2913 -0.5278
  192DOPC   O3123697   0.128   2.980  11.460 -0.9936 -0.4003 -0.2758
  192DOPC   C3123698   0.092   3.062  11.561  0.2126  0.2260 -0.9683
  192DOPC   O3223699   0.171   3.134  11.617 -0.1047  0.4197  0.2290
  192DOPC   C3223700  -0.053   3.042  11.603 -0.3882 -0.3837  0.2185
  192DOPC   H2X23701  -0.111   3.064  11.510 -1.6842  1.6796  1.4312
  192DOPC   H2Y23702  -0.073   2.941  11.643 -1.3603  0.2749  1.4557
  192DOPC   C2323703   0.567   2.903  11.853  0.0217 -0.2692 -0.4054
  192DOPC   H3R23704   0.556   3.014  11.857 -1.6489 -0.4315  0.6207
  192DOPC   H3S23705   0.662   2.880  11.801  0.6744  1.9589 -0.3237
  192DOPC   C2423706   0.590   2.849  11.990  0.2554 -0.2024 -0.7798
  192DOPC   H4R23707   0.618   2.742  11.982 -1.2506 -0.4472 -3.8523
  192DOPC   H4S23708   0.507   2.863  12.062  0.1239  0.3719 -1.0378
  192DOPC   C2523709   0.725   2.910  12.050 -0.5115  0.3853 -0.4162
  192DOPC   H5R23710   0.708   3.019  12.050  0.8608  0.6241 -1.2787
  192DOPC   H5S23711   0.813   2.885  11.987  1.4365  1.5570  1.7158
  192DOPC   C2623712   0.741   2.844  12.189 -0.4361 -0.7064  0.4390
  192DOPC   H6R23713   0.851   2.841  12.203 -0.0603 -0.2315 -1.8982
  192DOPC   H6S23714   0.684   2.749  12.188 -1.4209 -0.1612  1.7675
  192DOPC   C2723715   0.674   2.927  12.301 -0.2856  0.2917  0.0466
  192DOPC   H7R23716   0.563   2.919  12.296 -0.3335  0.7036  0.3378
  192DOPC   H7S23717   0.708   3.031  12.283 -1.1383  0.8349  1.4198
  192DOPC   C2823718   0.711   2.895  12.448 -0.6175  0.1105 -0.3284
  192DOPC   H8R23719   0.672   2.975  12.514 -1.1649  0.8037 -1.4638
  192DOPC   H8S23720   0.822   2.905  12.446 -0.6501  0.3955 -1.0979
  192DOPC   C2923721   0.677   2.754  12.490 -0.3319 -0.1896 -0.4520
  192DOPC   H9R23722   0.667   2.672  12.418 -1.7084 -0.9080  0.5183
  192DOPC  C21023723   0.644   2.730  12.623 -0.2158 -0.0680  0.1053
  192DOPC  H10R23724   0.622   2.625  12.648 -2.9528  0.5407  0.5247
  192DOPC  C21123725   0.657   2.824  12.746  0.3009 -0.0531 -0.0140
  192DOPC  H11R23726   0.636   2.931  12.723 -0.0524 -0.5162 -2.1042
  192DOPC  H11S23727   0.758   2.825  12.791  0.3155  5.1849  0.4822
  192DOPC  C21223728   0.561   2.777  12.856  0.4728  0.4219  0.6906
  192DOPC  H12R23729   0.585   2.680  12.905 -2.1703  0.0998  1.4676
  192DOPC  H12S23730   0.464   2.761  12.805  1.2394 -1.1171 -0.3666
  192DOPC  C21323731   0.540   2.888  12.962  0.0815 -0.0495  0.1137
  192DOPC  H13R23732   0.441   2.875  13.010 -0.6337  1.8640 -0.7580
  192DOPC  H13S23733   0.524   2.982  12.905 -2.0521  0.8573  2.0244
  192DOPC  C21423734   0.635   2.909  13.074  0.1197 -0.6286 -0.5867
  192DOPC  H14R23735   0.602   2.996  13.135  0.6576  0.0274 -1.2135
  192DOPC  H14S23736   0.738   2.935  13.044  1.9161 -0.3842  4.8163
  192DOPC  C21523737   0.639   2.780  13.159 -0.7122 -0.7771  0.9506
  192DOPC  H15R23738   0.684   2.702  13.093  0.9087  1.2482 -0.4599
  192DOPC  H15S23739   0.538   2.736  13.175 -0.8542 -0.1262  1.8625
  192DOPC  C21623740   0.709   2.791  13.288  0.0090  0.2878 -0.0947
  192DOPC  H16R23741   0.819   2.805  13.276  0.0013  3.5315  2.2120
  192DOPC  H16S23742   0.700   2.698  13.349  0.8969 -0.8340 -1.5993
  192DOPC  C21723743   0.663   2.909  13.382 -0.2080  0.3841  1.2454
  192DOPC  H17R23744   0.552   2.910  13.392 -0.2326 -0.0281  1.0014
  192DOPC  H17S23745   0.706   2.996  13.329  2.3418 -1.6260 -0.2106
  192DOPC  C21823746   0.716   2.913  13.530 -0.0467 -0.5019 -0.0658
  192DOPC  H18R23747   0.826   2.904  13.529  0.1627  1.4933  0.4380
  192DOPC  H18S23748   0.672   2.833  13.593  0.0368 -1.8921 -1.7031
  192DOPC  H18T23749   0.690   3.014  13.570  0.5667  0.1512 -1.2615
  192DOPC   C3323750  -0.110   3.142  11.706 -0.2433  0.4588 -0.2788
  192DOPC   H3X23751  -0.220   3.127  11.709 -0.2185  0.3173 -0.0980
  192DOPC   H3Y23752  -0.092   3.250  11.688 -2.0322  0.7152 -0.7275
  192DOPC   C3423753  -0.063   3.103  11.842  0.0819 -0.5607 -0.1541
  192DOPC   H4X23754   0.046   3.124  11.854 -0.2080  1.4287 -0.6070
  192DOPC   H4Y23755  -0.080   2.994  11.857  2.3213 -0.6567  2.5614
  192DOPC   C3523756  -0.133   3.186  11.948 -0.1606  0.3428 -0.0241
  192DOPC   H5X23757  -0.232   3.136  11.963  0.0394 -0.8476 -2.3051
  192DOPC   H5Y23758  -0.143   3.287  11.903 -2.6524  0.7091  1.1339
  192DOPC   C3623759  -0.056   3.202  12.079 -0.2341 -0.6408  0.4533
  192DOPC   H6X23760  -0.042   3.109  12.139  0.2220 -0.2768  0.9214
  192DOPC   H6Y23761   0.049   3.232  12.058 -0.1803 -0.2681  1.2227
  192DOPC   C3723762  -0.113   3.319  12.153  0.4500  0.0230 -0.0551
  192DOPC   H7X23763  -0.122   3.410  12.089 -2.0093 -0.7112 -0.8601
  192DOPC   H7Y23764  -0.217   3.297  12.185  0.4915  1.2534  1.0288
  192DOPC   C3823765  -0.035   3.354  12.276  0.1035 -0.6519 -0.7351
  192DOPC   H8X23766  -0.083   3.438  12.331  1.5591 -1.7673  2.4896
  192DOPC   H8Y23767   0.059   3.389  12.229 -0.6328 -1.4044 -2.8534
  192DOPC   C3923768  -0.011   3.236  12.369 -0.5062  0.3361  0.3292
  192DOPC   H9X23769   0.063   3.160  12.342 -1.5605 -0.8860  0.7910
  192DOPC  C31023770  -0.085   3.211  12.475  1.3436  0.3295  0.2260
  192DOPC  H10X23771  -0.055   3.127  12.540  1.5049 -1.1905 -1.7337
  192DOPC  C31123772  -0.208   3.283  12.524 -0.0351  0.1787 -0.0006
  192DOPC  H11X23773  -0.291   3.209  12.538  0.4104 -0.0589  1.5232
  192DOPC  H11Y23774  -0.250   3.350  12.446 -2.0166 -1.6440 -0.5961
  192DOPC  C31223775  -0.193   3.357  12.658 -0.1621  0.6237 -0.7144
  192DOPC  H12X23776  -0.280   3.420  12.686  0.1268  0.7889 -0.1848
  192DOPC  H12Y23777  -0.106   3.425  12.652 -1.5434  2.4563 -0.7851
  192DOPC  C31323778  -0.163   3.264  12.781 -0.1403  0.3859 -0.7048
  192DOPC  H13X23779  -0.260   3.214  12.803 -1.7006  3.0132 -1.2373
  192DOPC  H13Y23780  -0.088   3.186  12.757  0.1514  0.0063  1.2954
  192DOPC  C31423781  -0.120   3.342  12.908  0.2564  0.2378 -0.0903
  192DOPC  H14X23782  -0.016   3.378  12.891  0.2068  0.2460 -0.3810
  192DOPC  H14Y23783  -0.190   3.427  12.925 -1.0126 -1.0545  1.3271
  192DOPC  C31523784  -0.131   3.259  13.033  0.0637  0.5494  0.3270
  192DOPC  H15X23785  -0.070   3.166  13.030  0.7291  0.9826  0.1863
  192DOPC  H15Y23786  -0.236   3.227  13.051  0.0288  0.8893  0.7411
  192DOPC  C31623787  -0.077   3.325  13.160 -0.2265 -0.4857  0.1151
  192DOPC  H16X23788   0.030   3.347  13.140 -0.2413 -1.6410 -1.3902
  192DOPC  H16Y23789  -0.125   3.424  13.179  2.3817  0.7502  0.7269
  192DOPC  C31723790  -0.091   3.230  13.271  0.8990 -0.7110 -0.4628
  192DOPC  H17X23791  -0.195   3.191  13.267  0.1941  1.0796 -0.4452
  192DOPC  H17Y23792  -0.025   3.143  13.255  1.3955 -0.4319  0.0244
  192DOPC  C31823793  -0.070   3.300  13.407  0.0466 -0.2745 -0.0077
  192DOPC  H18X23794  -0.059   3.236  13.496 -0.0935 -1.4442 -0.8075
  192DOPC  H18Y23795   0.016   3.369  13.394  0.2341 -0.5069  0.0063
  192DOPC  H18Z23796  -0.168   3.349  13.430 -0.3487  0.3658 -2.6894
  193DOPC     N23797   5.982   0.015  11.832  0.1900 -0.4370 -0.0844
  193DOPC   C1223798   6.052  -0.113  11.879 -0.3478 -0.4357  0.1512
  193DOPC  H12A23799   6.156  -0.099  11.856 -0.3356 -2.8589 -1.6262
  193DOPC  H12B23800   6.020  -0.187  11.808  0.9142  0.1829 -1.1132
  193DOPC   C1323801   5.993   0.025  11.683 -0.0614 -0.2538 -0.4406
  193DOPC  H13A23802   6.092   0.066  11.665 -0.2500  0.7102  0.6536
  193DOPC  H13B23803   5.981  -0.073  11.639 -1.9069 -0.0325 -0.4995
  193DOPC  H13C23804   5.913   0.087  11.646  0.5182  1.5615  1.2086
  193DOPC   C1423805   6.039   0.137  11.895 -0.3446 -0.0938 -0.2589
  193DOPC  H14A23806   5.993   0.222  11.846 -0.8069  1.1845  2.2340
  193DOPC  H14B23807   6.018   0.128  12.001  0.6357 -1.6794 -0.1501
  193DOPC  H14C23808   6.144   0.142  11.870 -0.3103 -0.6469 -0.2544
  193DOPC   C1523809   5.835   0.011  11.873 -0.2780 -0.2563 -0.3834
  193DOPC  H15A23810   5.779  -0.059  11.812 -1.7740 -0.7878  1.5102
  193DOPC  H15B23811   5.783   0.105  11.862  4.2761  2.3995 -1.7547
  193DOPC  H15C23812   5.813  -0.035  11.968  1.3326 -1.1676 -0.4218
  193DOPC   C1123813   6.044  -0.161  12.030  0.1309 -0.4099  0.5696
  193DOPC  H11A23814   5.941  -0.199  12.044  0.2213 -2.2029 -2.5764
  193DOPC  H11B23815   6.107  -0.251  12.046  2.2577  0.8629 -0.1864
  193DOPC     P23816   6.230  -0.038  12.168 -0.0374  0.1373  0.2653
  193DOPC   O1323817   6.273   0.101  12.207 -0.8153  0.1055  0.2860
  193DOPC   O1423818   6.317  -0.110  12.077 -0.0660 -0.3709  0.2710
  193DOPC   O1223819   6.079  -0.053  12.117  0.0855  0.3535  0.1769
  193DOPC   O1123820   6.225  -0.124  12.302  0.0136 -0.1706  0.1931
  193DOPC    C123821   6.127  -0.079  12.395  0.0195  0.0897 -0.6009
  193DOPC    HA23822   6.035  -0.141  12.382 -0.6124 -0.2850  4.1527
  193DOPC    HB23823   6.095   0.027  12.389  1.8143  0.6287 -1.1665
  193DOPC    C223824   6.159  -0.126  12.544  0.5945 -0.1175  0.0364
  193DOPC    HS23825   6.228  -0.051  12.589 -0.1335  0.0712  0.8611
  193DOPC   O2123826   6.214  -0.256  12.545  0.2839 -0.1826 -0.2823
  193DOPC   C2123827   6.293  -0.290  12.643  0.1400  0.2222 -0.1672
  193DOPC   O2223828   6.332  -0.209  12.731 -0.1458 -0.0138  0.4641
  193DOPC   C2223829   6.314  -0.441  12.639 -0.3427 -0.0743  0.4354
  193DOPC   H2R23830   6.391  -0.471  12.713 -0.7935  1.3096  1.4881
  193DOPC   H2S23831   6.353  -0.484  12.544 -0.6986 -0.9735  0.6772
  193DOPC    C323832   6.030  -0.120  12.635 -0.1851  0.7775 -0.3478
  193DOPC    HX23833   5.964  -0.184  12.572  0.1787  0.8817 -0.8409
  193DOPC    HY23834   5.988  -0.018  12.632  1.4809  1.4784 -0.7995
  193DOPC   O3123835   6.051  -0.180  12.766  0.3686 -0.0320  0.1148
  193DOPC   C3123836   6.078  -0.083  12.856  0.0386 -0.0482  1.1743
  193DOPC   O3223837   6.087   0.034  12.825  0.3052  0.0545 -0.1302
  193DOPC   C3223838   6.117  -0.146  12.986  0.2479 -0.0239  0.2971
  193DOPC   H2X23839   6.054  -0.236  12.999  0.3751  0.0312  1.3834
  193DOPC   H2Y23840   6.224  -0.175  12.993  0.0814 -0.6611  0.2636
  193DOPC   C2323841   6.177  -0.508  12.682 -0.8137  1.2957 -0.5624
  193DOPC   H3R23842   6.186  -0.615  12.652 -0.3919  1.1430  0.0776
  193DOPC   H3S23843   6.090  -0.462  12.632 -2.3931 -1.6770 -0.7894
  193DOPC   C2423844   6.154  -0.504  12.832  0.0631  0.0204  0.3952
  193DOPC   H4R23845   6.133  -0.400  12.866 -1.7409  1.0356 -3.3418
  193DOPC   H4S23846   6.233  -0.556  12.890  0.8976  0.2857 -0.4769
  193DOPC   C2523847   6.030  -0.593  12.870 -0.4995 -0.6156 -0.1844
  193DOPC   H5R23848   6.059  -0.696  12.841 -0.4325  0.0714 -2.7733
  193DOPC   H5S23849   5.943  -0.580  12.803 -0.3464 -1.4920 -0.5584
  193DOPC   C2623850   5.998  -0.583  13.017  0.3687  0.8328 -0.2070
  193DOPC   H6R23851   5.992  -0.479  13.054  1.1979  1.2374 -1.1697
  193DOPC   H6S23852   6.088  -0.614  13.073  3.2360  3.6371 -2.8791
  193DOPC   C2723853   5.867  -0.651  13.058  0.4041  0.4687  0.1593
  193DOPC   H7R23854   5.864  -0.755  13.019 -1.8036  0.5158  0.0645
  193DOPC   H7S23855   5.778  -0.602  13.013 -0.0816 -0.7966 -0.3166
  193DOPC   C2823856   5.846  -0.647  13.212  0.5048 -0.0008 -0.4397
  193DOPC   H8R23857   5.921  -0.707  13.267  1.0331  1.7263  0.8004
  193DOPC   H8S23858   5.754  -0.708  13.228  0.2200  0.7389  0.8514
  193DOPC   C2923859   5.830  -0.507  13.264  0.5861  0.2870  0.3256
  193DOPC   H9R23860   5.786  -0.438  13.191  0.6723 -1.4476 -1.4681
  193DOPC  C21023861   5.876  -0.463  13.381  0.9161  1.1030 -0.1428
  193DOPC  H10R23862   5.881  -0.354  13.390  0.4096  1.2110 -1.0685
  193DOPC  C21123863   5.937  -0.550  13.495 -0.2543  0.0857 -0.3842
  193DOPC  H11R23864   6.038  -0.511  13.520  0.3870 -2.8220  2.2094
  193DOPC  H11S23865   5.962  -0.649  13.452 -0.4004  0.3725 -1.1314
  193DOPC  C21223866   5.856  -0.559  13.627  0.1117  0.5215  0.4344
  193DOPC  H12R23867   5.748  -0.564  13.600  0.1243  1.4934  0.1370
  193DOPC  H12S23868   5.875  -0.462  13.677  0.6378  1.2268 -1.0619
  193DOPC  C21323869   5.879  -0.671  13.719  0.0030 -0.0417  0.4119
  193DOPC  H13R23870   5.976  -0.656  13.769 -1.4818 -0.1756  3.5906
  193DOPC  H13S23871   5.869  -0.767  13.664  0.7334  0.9233 -1.4935
  193DOPC  C21423872   5.791  -0.659  13.851 -0.3648 -1.0202  0.3231
  193DOPC  H14R23873   5.684  -0.682  13.830  0.1400 -2.5525 -0.7268
  193DOPC  H14S23874   5.800  -0.555  13.889  2.1029 -1.0253 -0.0958
  193DOPC  C21523875   5.837  -0.759  13.956  0.9254  0.1010  0.7169
  193DOPC  H15R23876   5.944  -0.749  13.984  1.6708 -0.2697 -1.7148
  193DOPC  H15S23877   5.826  -0.864  13.921 -0.0289  0.2919  0.4068
  193DOPC  C21623878   5.753  -0.745  14.087  0.6085 -0.9287  0.5373
  193DOPC  H16R23879   5.646  -0.746  14.056  0.0872  2.8763  1.6937
  193DOPC  H16S23880   5.767  -0.649  14.140  2.6508 -1.3798  0.9194
  193DOPC  C21723881   5.765  -0.851  14.191 -0.1362  0.1717 -0.5492
  193DOPC  H17R23882   5.751  -0.951  14.144  1.8067 -1.0208  1.2187
  193DOPC  H17S23883   5.683  -0.826  14.261 -0.1434  0.6611 -0.7297
  193DOPC  C21823884   5.887  -0.846  14.279  0.7777  0.2035  0.2509
  193DOPC  H18R23885   5.885  -0.923  14.359  0.1576 -0.0395  0.0043
  193DOPC  H18S23886   5.881  -0.748  14.332 -1.1855 -0.2919  1.0331
  193DOPC  H18T23887   5.984  -0.847  14.225  0.9146  1.2800  0.4481
  193DOPC   C3323888   6.098  -0.045  13.109 -0.9665  0.0162  0.2075
  193DOPC   H3X23889   5.998   0.003  13.114 -0.6894  1.0187 -2.3810
  193DOPC   H3Y23890   6.177   0.028  13.084  0.4296 -1.6222 -0.3670
  193DOPC   C3423891   6.124  -0.122  13.235  0.6518 -0.1269 -0.8757
  193DOPC   H4X23892   6.224  -0.171  13.245  0.8806  0.6532  1.0396
  193DOPC   H4Y23893   6.043  -0.198  13.243  0.5276 -0.0057 -0.9783
  193DOPC   C3523894   6.103  -0.025  13.364 -0.2017 -0.5589  0.3245
  193DOPC   H5X23895   5.999   0.015  13.364 -0.4991 -1.3085  0.0641
  193DOPC   H5Y23896   6.183   0.052  13.359 -1.6145  0.8648 -2.0585
  193DOPC   C3623897   6.133  -0.115  13.483  0.4265  0.3289 -0.4236
  193DOPC   H6X23898   6.105  -0.059  13.575  1.0229  1.1548 -0.7271
  193DOPC   H6Y23899   6.067  -0.205  13.483 -1.2707  1.5003  0.6748
  193DOPC   C3723900   6.278  -0.152  13.497  0.3148  0.0401  0.0215
  193DOPC   H7X23901   6.319  -0.218  13.417  0.9548 -3.0082  2.6818
  193DOPC   H7Y23902   6.335  -0.057  13.496  1.8852 -0.8619  0.6670
  193DOPC   C3823903   6.318  -0.227  13.624 -0.2317 -0.2393  0.0610
  193DOPC   H8X23904   6.396  -0.300  13.593  2.1459  1.4618  1.6693
  193DOPC   H8Y23905   6.227  -0.288  13.645 -3.0164  3.3149 -0.7473
  193DOPC   C3923906   6.362  -0.144  13.744  0.0524  0.8292 -0.2786
  193DOPC   H9X23907   6.441  -0.071  13.721 -0.7387  2.0729  0.8516
  193DOPC  C31023908   6.327  -0.153  13.867  0.3107 -0.3140  0.4629
  193DOPC  H10X23909   6.364  -0.082  13.941 -0.3444 -1.2088  1.6845
  193DOPC  C31123910   6.218  -0.243  13.912  0.3422 -0.1146  0.3949
  193DOPC  H11X23911   6.217  -0.221  14.021 -2.1608 -0.6768  0.5481
  193DOPC  H11Y23912   6.237  -0.351  13.899 -0.2613 -0.1711 -0.0548
  193DOPC  C31223913   6.076  -0.213  13.859 -0.3256 -0.6473 -0.2213
  193DOPC  H12X23914   6.071  -0.255  13.756 -0.5627 -0.4767 -0.2802
  193DOPC  H12Y23915   6.060  -0.103  13.858  1.9462 -0.1987 -3.3995
  193DOPC  C31323916   5.973  -0.277  13.946  0.0409 -0.0781 -0.1385
  193DOPC  H13X23917   5.880  -0.282  13.885  0.7164  0.2845 -1.2040
  193DOPC  H13Y23918   6.012  -0.379  13.968  2.8569  1.0618  0.4863
  193DOPC  C31423919   5.943  -0.208  14.084 -0.4389  0.1063  0.9191
  193DOPC  H14X23920   5.878  -0.275  14.145 -0.7889 -0.7249 -0.3322
  193DOPC  H14Y23921   6.038  -0.196  14.139  0.2675 -0.5498 -0.1283
  193DOPC  C31523922   5.863  -0.074  14.067 -0.8399  0.6728  0.0178
  193DOPC  H15X23923   5.796  -0.092  13.981  0.2547 -1.7936 -0.4097
  193DOPC  H15Y23924   5.928   0.007  14.029  0.8475 -0.6897 -0.1292
  193DOPC  C31623925   5.789  -0.029  14.192  0.6679  0.0441  0.3669
  193DOPC  H16X23926   5.723   0.059  14.174 -0.9602 -1.1724  0.1945
  193DOPC  H16Y23927   5.718  -0.110  14.217  0.1604 -0.2365 -1.8052
  193DOPC  C31723928   5.870   0.016  14.312 -0.1216 -0.1399  0.2229
  193DOPC  H17X23929   5.934  -0.069  14.342 -1.1945 -1.6685 -1.6089
  193DOPC  H17Y23930   5.934   0.104  14.289  1.1788 -0.4226  2.4582
  193DOPC  C31823931   5.780   0.051  14.434 -0.0245  0.7553  0.3672
  193DOPC  H18X23932   5.828   0.121  14.506 -1.6021  0.7290  1.4962
  193DOPC  H18Y23933   5.682   0.095  14.404  0.4695  2.0505  0.5917
  193DOPC  H18Z23934   5.762  -0.050  14.477 -1.6555  1.0991  0.5795
  194DOPC     N23935   1.252   5.631  12.176  0.0035 -0.4854 -0.2597
  194DOPC   C1223936   1.317   5.735  12.260 -0.4813  0.8324 -0.3930
  194DOPC  H12A23937   1.422   5.710  12.259 -0.5234  0.4235  1.8492
  194DOPC  H12B23938   1.276   5.736  12.359 -0.4581  1.6515 -0.3847
  194DOPC   C1323939   1.321   5.628  12.044  0.0088  0.3054 -0.4546
  194DOPC  H13A23940   1.426   5.655  12.050  0.2218 -0.6854  0.7486
  194DOPC  H13B23941   1.318   5.536  11.988  0.0563 -0.4614  0.7603
  194DOPC  H13C23942   1.280   5.700  11.975  1.0169  1.6486  0.2853
  194DOPC   C1423943   1.109   5.665  12.150  0.2714 -0.1477 -0.2402
  194DOPC  H14A23944   1.080   5.623  12.054 -1.2907 -1.2308  0.6643
  194DOPC  H14B23945   1.039   5.645  12.229  1.2724 -1.4345  0.3476
  194DOPC  H14C23946   1.101   5.772  12.139 -0.2803 -0.0693  0.8159
  194DOPC   C1523947   1.268   5.499  12.244 -0.2222 -0.2266 -0.4076
  194DOPC  H15A23948   1.373   5.478  12.255  0.6359  2.1255 -3.1530
  194DOPC  H15B23949   1.232   5.420  12.179  1.2466 -0.2732 -1.1864
  194DOPC  H15C23950   1.212   5.486  12.336 -0.7597 -3.6243 -1.0723
  194DOPC   C1123951   1.303   5.885  12.217 -0.1140 -0.1827  0.6052
  194DOPC  H11A23952   1.389   5.941  12.260  0.4886 -0.7220  0.1151
  194DOPC  H11B23953   1.323   5.893  12.108  0.4259 -0.4468  0.6819
  194DOPC     P23954   1.140   6.039  12.350 -0.1084 -0.2935  0.0833
  194DOPC   O1323955   0.997   6.060  12.354 -0.0775 -0.1545 -0.2908
  194DOPC   O1423956   1.218   6.167  12.336  0.4125  0.7075  0.3544
  194DOPC   O1223957   1.171   5.936  12.232  0.1600 -0.4464  0.1582
  194DOPC   O1123958   1.184   5.961  12.476 -0.0713  0.1786 -0.3394
  194DOPC    C123959   1.310   5.991  12.543  0.1501  0.7853 -0.1130
  194DOPC    HA23960   1.380   6.052  12.483  1.2853  1.5150  1.8556
  194DOPC    HB23961   1.357   5.892  12.557  2.0143  1.2194 -2.7689
  194DOPC    C223962   1.303   6.063  12.676 -0.1857 -0.1244 -1.3313
  194DOPC    HS23963   1.247   6.157  12.656 -0.4344  0.8501  3.0960
  194DOPC   O2123964   1.439   6.090  12.728 -0.1141 -0.1020  0.1427
  194DOPC   C2123965   1.443   6.198  12.797 -0.1979  0.6236  0.0037
  194DOPC   O2223966   1.356   6.285  12.797  0.0809  0.8060  0.3247
  194DOPC   C2223967   1.578   6.212  12.872 -0.2421 -0.2915  0.3691
  194DOPC   H2R23968   1.653   6.253  12.801 -2.3541  0.1546 -1.7225
  194DOPC   H2S23969   1.606   6.108  12.896 -0.2804  0.3746  3.8322
  194DOPC    C323970   1.216   5.991  12.781  0.2942  0.3961  0.3040
  194DOPC    HX23971   1.268   5.895  12.800 -0.3425  0.1522  0.8780
  194DOPC    HY23972   1.116   5.964  12.741 -0.2158  1.4149  0.8476
  194DOPC   O3123973   1.202   6.054  12.907 -0.6113 -0.5959  0.0131
  194DOPC   C3123974   1.168   5.973  13.007  0.1825 -0.5286 -0.3951
  194DOPC   O3223975   1.161   5.852  13.000 -0.4324 -0.2104 -0.4608
  194DOPC   C3223976   1.159   6.052  13.128  0.0558 -0.1563  0.0500
  194DOPC   H2X23977   1.257   6.093  13.160 -0.5704  2.0687 -0.6971
  194DOPC   H2Y23978   1.100   6.143  13.103  1.4444  0.6181 -0.4718
  194DOPC   C2323979   1.567   6.309  12.994 -0.2327 -0.5566 -0.1491
  194DOPC   H3R23980   1.509   6.399  12.962  0.8028 -0.0449 -0.6098
  194DOPC   H3S23981   1.667   6.349  13.020  0.1798 -1.3607 -0.4752
  194DOPC   C2423982   1.501   6.232  13.114  0.0326 -1.0280  0.6293
  194DOPC   H4R23983   1.430   6.157  13.073 -0.0046 -1.1833  0.9754
  194DOPC   H4S23984   1.444   6.301  13.179  1.5680 -0.2860  1.2432
  194DOPC   C2523985   1.593   6.150  13.198  0.8140  0.5561 -0.4737
  194DOPC   H5R23986   1.664   6.205  13.264 -0.3518 -0.2343  1.5407
  194DOPC   H5S23987   1.645   6.077  13.133 -0.2513 -1.0409  0.3923
  194DOPC   C2623988   1.513   6.062  13.295 -0.2081  0.5060  0.0369
  194DOPC   H6R23989   1.454   5.990  13.233  0.8239  0.4698 -0.9475
  194DOPC   H6S23990   1.431   6.116  13.345 -1.9981 -2.6104  0.7298
  194DOPC   C2723991   1.597   5.986  13.401 -0.1012 -0.5676 -0.6609
  194DOPC   H7R23992   1.679   6.050  13.442 -1.1206  1.4285 -1.6080
  194DOPC   H7S23993   1.660   5.911  13.348  1.6302 -0.5255  1.2035
  194DOPC   C2823994   1.504   5.904  13.491  1.2880 -0.0681 -0.2024
  194DOPC   H8R23995   1.455   5.977  13.560  0.4291  0.1961 -1.0799
  194DOPC   H8S23996   1.563   5.845  13.565  2.1762 -0.6795 -1.3740
  194DOPC   C2923997   1.387   5.825  13.440  0.2244 -0.1899 -0.4405
  194DOPC   H9R23998   1.296   5.886  13.436  1.7609  2.2797 -0.3388
  194DOPC  C21023999   1.386   5.716  13.366  0.5901  0.0983  0.3209
  194DOPC  H10R24000   1.290   5.673  13.333  1.6019  0.3119 -3.3953
  194DOPC  C21124001   1.506   5.632  13.323 -0.0899 -0.2897 -0.2303
  194DOPC  H11R24002   1.518   5.564  13.410 -4.7864 -3.3359 -1.5896
  194DOPC  H11S24003   1.602   5.685  13.304  0.0691  0.6254  2.5789
  194DOPC  C21224004   1.471   5.544  13.206  0.1562 -0.4868  0.5555
  194DOPC  H12R24005   1.368   5.506  13.222 -0.1811  1.1360  2.6462
  194DOPC  H12S24006   1.539   5.457  13.191  0.1120 -0.4263 -0.0247
  194DOPC  C21324007   1.482   5.628  13.075 -0.3998 -0.2417  0.7169
  194DOPC  H13R24008   1.453   5.733  13.097 -0.8482 -0.2962  0.4191
  194DOPC  H13S24009   1.415   5.573  13.005  0.7957 -1.2157  0.3172
  194DOPC  C21424010   1.625   5.643  13.019  0.1865  0.3219 -0.7023
  194DOPC  H14R24011   1.664   5.545  12.984  0.5047  0.7078 -1.4353
  194DOPC  H14S24012   1.693   5.691  13.093 -0.3958 -0.1490  0.1640
  194DOPC  C21524013   1.634   5.720  12.888  0.2234  0.0229  0.5020
  194DOPC  H15R24014   1.622   5.829  12.908  1.4164  0.4303 -0.7640
  194DOPC  H15S24015   1.559   5.676  12.819  1.5111 -1.7976  0.2063
  194DOPC  C21624016   1.777   5.724  12.832 -0.0567  0.2037 -0.0266
  194DOPC  H16R24017   1.825   5.630  12.865 -1.5659 -0.4798  0.3265
  194DOPC  H16S24018   1.837   5.803  12.883 -0.0776 -0.1898  0.6184
  194DOPC  C21724019   1.775   5.730  12.682  0.3001 -0.6270  0.0999
  194DOPC  H17R24020   1.734   5.631  12.654  0.3754 -0.5658 -0.2229
  194DOPC  H17S24021   1.878   5.736  12.643  0.3920 -1.6442  0.1645
  194DOPC  C21824022   1.686   5.839  12.617  0.4287 -0.4350 -0.3985
  194DOPC  H18R24023   1.705   5.934  12.672  0.0996  0.3713 -1.6324
  194DOPC  H18S24024   1.583   5.800  12.634  0.7418 -2.2052 -2.2233
  194DOPC  H18T24025   1.696   5.856  12.508 -1.0398 -0.9675 -0.6333
  194DOPC   C3324026   1.084   5.966  13.241  0.0779 -0.6832  0.0075
  194DOPC   H3X24027   1.139   5.872  13.265 -1.3534 -1.7769 -0.8143
  194DOPC   H3Y24028   0.984   5.935  13.203 -1.0123  1.3582  1.0730
  194DOPC   C3424029   1.054   6.050  13.365 -0.0583 -0.5053 -0.4303
  194DOPC   H4X24030   1.036   6.156  13.337  0.5417 -0.2616  0.0792
  194DOPC   H4Y24031   1.142   6.053  13.433 -1.3321  1.5822  1.2359
  194DOPC   C3524032   0.952   5.985  13.456 -0.3330 -0.3252  0.3689
  194DOPC   H5X24033   0.992   5.882  13.468 -0.9150 -0.5303  0.5507
  194DOPC   H5Y24034   0.853   5.980  13.408  0.3990 -1.7294 -1.0742
  194DOPC   C3624035   0.961   6.039  13.596 -0.0609  0.1774 -0.1678
  194DOPC   H6X24036   0.942   5.954  13.665  0.0142 -0.1628 -0.5642
  194DOPC   H6Y24037   1.058   6.084  13.624  0.1660 -0.9348  0.9175
  194DOPC   C3724038   0.854   6.156  13.626 -0.5382  0.2356 -0.1696
  194DOPC   H7X24039   0.890   6.239  13.562 -0.1516  0.2885  0.1148
  194DOPC   H7Y24040   0.752   6.134  13.587 -0.3059  1.3339 -1.4765
  194DOPC   C3824041   0.845   6.194  13.774  0.5044 -0.4144 -0.2539
  194DOPC   H8X24042   0.860   6.101  13.834 -1.9092 -1.6911 -1.4880
  194DOPC   H8Y24043   0.739   6.225  13.787  0.5324 -1.0093  1.7865
  194DOPC   C3924044   0.943   6.299  13.836  0.5387  0.0367  0.4977
  194DOPC   H9X24045   0.964   6.377  13.763  0.4437 -1.4947 -1.2307
  194DOPC  C31024046   1.001   6.307  13.959 -0.1647  0.2947  0.2995
  194DOPC  H10X24047   1.074   6.386  13.980 -0.1397 -0.0651  1.6095
  194DOPC  C31124048   0.983   6.201  14.069  0.0696  0.4942 -0.0744
  194DOPC  H11X24049   0.903   6.126  14.050  0.9371 -0.7370  0.9244
  194DOPC  H11Y24050   0.985   6.256  14.165  0.4178  0.8752 -0.2979
  194DOPC  C31224051   1.108   6.113  14.091  0.7171  0.1228  0.3402
  194DOPC  H12X24052   1.201   6.173  14.080  0.0426  1.1484  0.0090
  194DOPC  H12Y24053   1.106   6.039  14.009 -1.0180  2.4529 -1.8945
  194DOPC  C31324054   1.125   6.028  14.222  0.0539 -0.5897 -0.9614
  194DOPC  H13X24055   1.038   5.959  14.222 -2.1164  1.9048  1.5414
  194DOPC  H13Y24056   1.223   5.976  14.209 -0.8732 -1.9514 -2.9771
  194DOPC  C31424057   1.116   6.120  14.354 -0.1306  0.0758  0.2829
  194DOPC  H14X24058   1.196   6.191  14.325 -0.3982 -0.2456 -1.3482
  194DOPC  H14Y24059   1.025   6.183  14.365  0.5050  1.3358 -1.2045
  194DOPC  C31524060   1.148   6.036  14.479 -0.7171  0.7158  0.0956
  194DOPC  H15X24061   1.059   5.972  14.495  0.2294 -0.5696  0.4324
  194DOPC  H15Y24062   1.149   6.103  14.568  1.3308 -2.0782  2.3793
  194DOPC  C31624063   1.276   5.948  14.475  0.4521  0.9380  0.2592
  194DOPC  H16X24064   1.289   5.886  14.566  0.6225 -1.2406 -1.1667
  194DOPC  H16Y24065   1.260   5.876  14.391  0.4237  0.3908  0.7273
  194DOPC  C31724066   1.412   6.023  14.446 -0.2400  0.3301  0.3066
  194DOPC  H17X24067   1.480   5.935  14.439 -1.1934 -0.3547 -0.6159
  194DOPC  H17Y24068   1.406   6.077  14.350 -0.5058 -0.4652 -0.1396
  194DOPC  C31824069   1.458   6.114  14.553 -0.3067 -0.0681 -0.0814
  194DOPC  H18X24070   1.414   6.215  14.540  0.8437  0.8036  2.2174
  194DOPC  H18Y24071   1.429   6.088  14.657  0.7893  0.5732  0.3940
  194DOPC  H18Z24072   1.568   6.125  14.550 -0.0112 -2.6511 -0.9787
  195DOPC     N24073   5.193   0.097  12.110  0.0897 -0.2569  0.7099
  195DOPC   C1224074   5.263   0.081  12.239  0.1297  0.0818 -0.7524
  195DOPC  H12A24075   5.225   0.150  12.313  0.2138  1.4031 -1.8821
  195DOPC  H12B24076   5.361   0.124  12.221  1.1141 -1.8158 -0.1604
  195DOPC   C1324077   5.175   0.244  12.081 -0.2987 -0.2508 -0.4148
  195DOPC  H13A24078   5.105   0.298  12.143  1.1914  0.3050  0.8781
  195DOPC  H13B24079   5.265   0.303  12.068  0.0076 -0.1943  1.6566
  195DOPC  H13C24080   5.127   0.249  11.985 -0.9927 -1.4638 -0.1467
  195DOPC   C1424081   5.055   0.032  12.106 -0.4663  0.4632  0.0704
  195DOPC  H14A24082   5.060  -0.069  12.145  0.4447  0.8716  1.0593
  195DOPC  H14B24083   4.979   0.088  12.159 -0.5060  1.5636 -1.1165
  195DOPC  H14C24084   5.028   0.036  12.001 -1.2005 -0.4960  0.2067
  195DOPC   C1524085   5.277   0.029  12.005  0.4368  0.1210  0.4841
  195DOPC  H15A24086   5.377   0.071  11.999  0.7570 -0.4374  1.5983
  195DOPC  H15B24087   5.238   0.045  11.906 -0.2921  1.0387  0.9109
  195DOPC  H15C24088   5.267  -0.077  12.023 -1.1307  0.1745 -0.0045
  195DOPC   C1124089   5.309  -0.058  12.303 -0.5475 -0.6704 -0.1967
  195DOPC  H11A24090   5.375  -0.111  12.231  0.4262 -1.6380  1.3551
  195DOPC  H11B24091   5.371  -0.029  12.391 -1.6017  0.4641  0.1967
  195DOPC     P24092   5.132  -0.103  12.475 -0.0912 -0.2073  0.0611
  195DOPC   O1324093   5.015  -0.186  12.500  0.1890 -0.0286  0.6076
  195DOPC   O1424094   5.126   0.045  12.496 -0.3340 -0.3515 -0.5970
  195DOPC   O1224095   5.195  -0.132  12.338 -0.2582  0.4423 -0.5421
  195DOPC   O1124096   5.252  -0.167  12.561 -0.1378  0.0656  0.3899
  195DOPC    C124097   5.290  -0.111  12.685 -0.3560 -0.1207  0.4667
  195DOPC    HA24098   5.303  -0.001  12.674 -2.8978  0.4696  2.5350
  195DOPC    HB24099   5.384  -0.162  12.714  0.4022 -0.0609 -1.6849
  195DOPC    C224100   5.193  -0.118  12.808  0.3734  0.3241 -0.7133
  195DOPC    HS24101   5.102  -0.062  12.782  0.9077  1.3250 -0.4832
  195DOPC   O2124102   5.264  -0.067  12.919  0.3188  0.5667 -0.5742
  195DOPC   C2124103   5.226   0.047  12.967  0.2391 -0.8781  0.1259
  195DOPC   O2224104   5.154   0.128  12.902 -0.2566  0.4570 -0.6011
  195DOPC   C2224105   5.280   0.065  13.104  1.0342 -0.6936  0.2034
  195DOPC   H2R24106   5.346   0.154  13.118 -1.1606  1.1894 -0.7139
  195DOPC   H2S24107   5.342  -0.024  13.128  1.6071 -0.3436  0.0518
  195DOPC    C324108   5.172  -0.271  12.835 -0.2895 -0.2071 -0.3555
  195DOPC    HX24109   5.264  -0.331  12.846  0.3916  0.7485 -0.7247
  195DOPC    HY24110   5.121  -0.303  12.741  1.7275  0.8755 -1.8931
  195DOPC   O3124111   5.091  -0.282  12.948 -0.1129 -0.8838 -0.3910
  195DOPC   C3124112   5.064  -0.399  12.994  0.4649  0.0923  0.5649
  195DOPC   O3224113   5.097  -0.508  12.943 -0.0151 -0.6675  0.1032
  195DOPC   C3224114   4.991  -0.387  13.129 -0.7186 -0.0120  0.5020
  195DOPC   H2X24115   4.918  -0.303  13.120 -1.4020 -0.4970  1.3244
  195DOPC   H2Y24116   4.925  -0.474  13.149 -1.0402 -0.0306 -0.5900
  195DOPC   C2324117   5.162   0.084  13.202  0.6605  0.5927  0.2189
  195DOPC   H3R24118   5.090   0.004  13.177  1.9942 -0.7820  0.5771
  195DOPC   H3S24119   5.124   0.186  13.184  0.9005  0.5334 -0.6570
  195DOPC   C2424120   5.198   0.047  13.350  0.6552 -0.3769  0.3229
  195DOPC   H4R24121   5.241  -0.055  13.349  1.5762  0.0020  0.4889
  195DOPC   H4S24122   5.096   0.042  13.394 -0.3108 -0.1649 -1.7394
  195DOPC   C2524123   5.298   0.136  13.423 -0.2572  0.3694  0.5764
  195DOPC   H5R24124   5.271   0.243  13.412 -0.2788  0.4805  1.6222
  195DOPC   H5S24125   5.400   0.141  13.379  0.0715 -0.1062  1.2554
  195DOPC   C2624126   5.319   0.108  13.576 -0.6691 -0.2685 -0.3129
  195DOPC   H6R24127   5.413   0.156  13.611 -0.6413 -0.5888  0.0632
  195DOPC   H6S24128   5.341  -0.000  13.590 -0.5831  0.0227  2.3535
  195DOPC   C2724129   5.208   0.135  13.664  0.0927 -0.1664 -0.8266
  195DOPC   H7R24130   5.123   0.083  13.615  0.9070 -1.9737 -0.3958
  195DOPC   H7S24131   5.177   0.242  13.657 -2.0154 -0.7632 -1.4810
  195DOPC   C2824132   5.231   0.077  13.804 -0.1401 -0.2579 -0.3498
  195DOPC   H8R24133   5.252  -0.029  13.780  2.2226  0.2590 -0.8953
  195DOPC   H8S24134   5.137   0.078  13.862 -1.0548 -0.8460 -1.7662
  195DOPC   C2924135   5.347   0.134  13.891  0.1403  0.1926 -0.2559
  195DOPC   H9R24136   5.449   0.124  13.849  0.0024  0.2625 -0.6179
  195DOPC  C21024137   5.339   0.196  14.011 -0.3766  0.0486 -0.2831
  195DOPC  H10R24138   5.437   0.213  14.059 -0.4221  0.2276 -0.2541
  195DOPC  C21124139   5.219   0.236  14.094  0.2933 -0.1557  0.1371
  195DOPC  H11R24140   5.126   0.190  14.054 -0.2363  0.0583  1.0944
  195DOPC  H11S24141   5.205   0.346  14.082  1.7286  0.0600  0.1992
  195DOPC  C21224142   5.227   0.213  14.247 -0.2718 -0.2329 -0.1255
  195DOPC  H12R24143   5.141   0.269  14.287  1.1336  1.4509  0.6438
  195DOPC  H12S24144   5.316   0.267  14.287  0.2172 -0.3312 -1.0491
  195DOPC  C21324145   5.227   0.064  14.290  0.5903  0.1269 -0.2540
  195DOPC  H13R24146   5.309   0.010  14.238 -0.8783 -1.0758 -1.4109
  195DOPC  H13S24147   5.132   0.016  14.258  1.4274 -0.7183 -1.5703
  195DOPC  C21424148   5.243   0.043  14.440 -0.3380 -0.0253  0.6987
  195DOPC  H14R24149   5.190   0.130  14.485 -1.0258 -0.6663  1.1535
  195DOPC  H14S24150   5.353   0.058  14.451 -0.6287  1.7630  1.4869
  195DOPC  C21524151   5.188  -0.089  14.495 -0.0737  0.4083  0.5363
  195DOPC  H15R24152   5.245  -0.173  14.449 -0.3950 -0.4012  1.5675
  195DOPC  H15S24153   5.082  -0.108  14.467  0.2825 -0.6822 -0.1399
  195DOPC  C21624154   5.211  -0.096  14.649  0.4231 -0.4369  0.3036
  195DOPC  H16R24155   5.152  -0.012  14.692  1.7923  0.7395 -0.0179
  195DOPC  H16S24156   5.316  -0.059  14.657 -0.1517  1.8407 -1.4566
  195DOPC  C21724157   5.201  -0.225  14.729 -0.0347 -0.5029 -0.5704
  195DOPC  H17R24158   5.258  -0.209  14.823 -0.9467 -0.7659  0.0340
  195DOPC  H17S24159   5.259  -0.296  14.666 -0.7292 -0.1645 -1.6204
  195DOPC  C21824160   5.060  -0.265  14.761  0.5745  0.5977  0.5098
  195DOPC  H18R24161   5.013  -0.273  14.661  0.5557 -0.5944  0.5993
  195DOPC  H18S24162   5.000  -0.192  14.821 -0.8118 -0.5961  0.6208
  195DOPC  H18T24163   5.062  -0.367  14.804 -0.0482 -1.2354 -3.4699
  195DOPC   C3324164   5.089  -0.358  13.245 -0.3556  0.2293 -0.7039
  195DOPC   H3X24165   5.158  -0.273  13.226 -0.8668  1.0406  0.8394
  195DOPC   H3Y24166   5.132  -0.457  13.270  1.3106  0.1604 -3.4206
  195DOPC   C3424167   5.018  -0.293  13.366 -0.7463  0.1083 -0.0698
  195DOPC   H4X24168   4.926  -0.347  13.395 -1.6334  0.4656 -2.0984
  195DOPC   H4Y24169   5.009  -0.182  13.360 -1.4612 -0.0236 -1.7232
  195DOPC   C3524170   5.115  -0.306  13.488  0.4797 -0.2607 -0.4812
  195DOPC   H5X24171   5.206  -0.243  13.480 -1.1585  2.2464 -0.1394
  195DOPC   H5Y24172   5.155  -0.410  13.480 -0.6110 -0.6739 -0.6958
  195DOPC   C3624173   5.046  -0.261  13.612  0.4476 -0.1243  0.3625
  195DOPC   H6X24174   5.021  -0.153  13.615  0.6906 -0.0378  3.7650
  195DOPC   H6Y24175   4.955  -0.325  13.608  0.9167 -1.0221  2.5303
  195DOPC   C3724176   5.129  -0.279  13.740  0.4415  0.0866 -0.8921
  195DOPC   H7X24177   5.156  -0.386  13.751  0.3691  0.2884  2.0179
  195DOPC   H7Y24178   5.225  -0.223  13.737  0.0058  1.0086  0.8868
  195DOPC   C3824179   5.063  -0.234  13.877 -0.3278  0.7939  0.1463
  195DOPC   H8X24180   4.970  -0.293  13.890 -0.8661  2.1490  3.3949
  195DOPC   H8Y24181   5.033  -0.130  13.854  2.2026  1.4659 -0.3768
  195DOPC   C3924182   5.160  -0.258  13.991 -0.2251 -0.3212  0.3450
  195DOPC   H9X24183   5.243  -0.185  13.991 -1.3169  1.0164  2.3234
  195DOPC  C31024184   5.147  -0.341  14.099 -0.2853  0.1957  0.3035
  195DOPC  H10X24185   5.222  -0.339  14.179  2.5293  1.3747 -2.1455
  195DOPC  C31124186   5.032  -0.431  14.131  0.9294  0.3695 -0.1020
  195DOPC  H11X24187   5.070  -0.533  14.155  0.1708 -0.6735 -2.9318
  195DOPC  H11Y24188   4.976  -0.441  14.036  1.9317  2.1476 -0.9383
  195DOPC  C31224189   4.925  -0.403  14.237 -0.1467  0.2477  0.0431
  195DOPC  H12X24190   4.830  -0.440  14.195  0.3806 -0.9853 -0.1262
  195DOPC  H12Y24191   4.909  -0.296  14.261 -0.8221  0.1755 -0.0782
  195DOPC  C31324192   4.957  -0.484  14.362  0.0761  0.6198  0.1765
  195DOPC  H13X24193   4.968  -0.593  14.346  0.1245  0.7900 -1.0143
  195DOPC  H13Y24194   5.046  -0.442  14.413  1.0759 -3.2086  1.9361
  195DOPC  C31424195   4.847  -0.474  14.467  0.1022  0.2359 -0.3947
  195DOPC  H14X24196   4.833  -0.374  14.514 -0.8680  0.2714 -0.7513
  195DOPC  H14Y24197   4.757  -0.524  14.425 -0.4312  1.0003 -0.1771
  195DOPC  C31524198   4.871  -0.557  14.597  0.0083 -0.1930  0.1946
  195DOPC  H15X24199   4.969  -0.523  14.636  0.4107  1.1575 -1.7964
  195DOPC  H15Y24200   4.876  -0.663  14.564 -0.5096 -0.3439  0.5933
  195DOPC  C31624201   4.769  -0.537  14.709 -0.0414  0.1482  0.0684
  195DOPC  H16X24202   4.747  -0.428  14.712  0.8639  0.3950 -1.2753
  195DOPC  H16Y24203   4.677  -0.583  14.669 -1.3163  1.2233  1.6361
  195DOPC  C31724204   4.802  -0.599  14.841 -0.5613 -0.1393 -0.0965
  195DOPC  H17X24205   4.901  -0.554  14.863 -0.0089 -1.2804 -0.2133
  195DOPC  H17Y24206   4.720  -0.590  14.915  0.1157 -2.8072  1.0782
  195DOPC  C31824207   4.828  -0.750  14.841 -0.6153  0.1692 -0.2360
  195DOPC  H18X24208   4.881  -0.787  14.932 -0.4363  1.8333  0.3787
  195DOPC  H18Y24209   4.730  -0.803  14.842 -0.4586 -0.1221  0.4247
  195DOPC  H18Z24210   4.888  -0.790  14.757  1.0337  0.7426  0.6251
  196DOPC     N24211   0.208   0.063  11.995  0.2151  0.3920 -0.1885
  196DOPC   C1224212   0.107   0.141  12.080  0.1428 -0.0703 -0.3273
  196DOPC  H12A24213   0.053   0.071  12.143  1.4123 -0.6947  0.0877
  196DOPC  H12B24214   0.034   0.188  12.016  0.1213  0.1832 -0.1165
  196DOPC   C1324215   0.295   0.157  11.915  0.1019  0.0118  0.2953
  196DOPC  H13A24216   0.351   0.222  11.981  0.5056 -0.4962  0.4651
  196DOPC  H13B24217   0.368   0.095  11.865  1.1592  1.6382 -0.2874
  196DOPC  H13C24218   0.256   0.220  11.837  0.0445 -1.2461 -0.7070
  196DOPC   C1424219   0.134  -0.037  11.921  0.0156  0.1455  0.5973
  196DOPC  H14A24220   0.081  -0.109  11.980 -1.9618  0.4017 -0.7877
  196DOPC  H14B24221   0.054   0.008  11.864  0.8350  2.1067  0.9163
  196DOPC  H14C24222   0.203  -0.097  11.862  1.5566  3.1693 -0.9315
  196DOPC   C1524223   0.307  -0.008  12.082  0.0508 -0.1051 -0.6254
  196DOPC  H15A24224   0.397  -0.035  12.030  2.2060 -0.1463  2.8590
  196DOPC  H15B24225   0.275  -0.089  12.146  3.6260 -0.0389  1.4842
  196DOPC  H15C24226   0.336   0.066  12.155 -1.3296 -1.6281  1.6075
  196DOPC   C1124227   0.165   0.245  12.175 -0.2242 -0.0575 -0.4617
  196DOPC  H11A24228   0.228   0.319  12.122 -0.2644  1.1700  1.1511
  196DOPC  H11B24229   0.072   0.293  12.213  0.0048  1.2010 -1.4138
  196DOPC     P24230   0.265   0.251  12.419 -0.1498 -0.1561 -0.3753
  196DOPC   O1324231   0.245   0.393  12.390 -0.7755  0.2453  0.1302
  196DOPC   O1424232   0.400   0.210  12.463 -0.1428  0.1942  0.3659
  196DOPC   O1224233   0.246   0.184  12.281  0.4321  0.4411 -0.0181
  196DOPC   O1124234   0.144   0.190  12.513  0.0843 -0.4097 -0.1064
  196DOPC    C124235   0.155   0.056  12.575 -0.1765 -0.4420 -0.2508
  196DOPC    HA24236   0.256   0.010  12.572 -1.3733 -3.3685  0.2563
  196DOPC    HB24237   0.089  -0.011  12.514  0.2966  0.1134 -1.4103
  196DOPC    C224238   0.118   0.053  12.720  0.2194  0.0576  0.2448
  196DOPC    HS24239   0.167  -0.041  12.750 -4.3687 -2.7827 -0.1723
  196DOPC   O2124240  -0.026   0.043  12.719  0.3913 -0.0959 -0.0191
  196DOPC   C2124241  -0.064   0.008  12.841  0.3416  0.3354  0.7243
  196DOPC   O2224242   0.004  -0.040  12.934  0.1339 -0.0430  0.4942
  196DOPC   C2224243  -0.211   0.042  12.856 -0.1275  0.6387  0.3124
  196DOPC   H2R24244  -0.261  -0.011  12.772  1.7259  0.3273 -0.6342
  196DOPC   H2S24245  -0.223   0.152  12.844  0.0956  0.5523 -0.8490
  196DOPC    C324246   0.169   0.190  12.784  0.0888  0.2027  0.2772
  196DOPC    HX24247   0.103   0.269  12.743 -0.2578  0.4905  1.3550
  196DOPC    HY24248   0.274   0.206  12.751 -0.8773  2.3846 -1.9761
  196DOPC   O3124249   0.166   0.189  12.927  0.4559  0.4824 -0.8104
  196DOPC   C3124250   0.253   0.111  12.979 -0.2028  0.0350 -0.0300
  196DOPC   O3224251   0.333   0.034  12.924  0.7223  0.1178 -0.4913
  196DOPC   C3224252   0.239   0.116  13.121  0.2169  0.0724 -0.9058
  196DOPC   H2X24253   0.152   0.178  13.151  0.9321 -0.8462  3.7784
  196DOPC   H2Y24254   0.214   0.018  13.165  1.3111  0.3130  0.3322
  196DOPC   C2324255  -0.275   0.014  13.002  0.2049  0.7919  0.2741
  196DOPC   H3R24256  -0.249  -0.084  13.047 -0.0512 -0.2405 -1.7347
  196DOPC   H3S24257  -0.384   0.002  12.986  0.5646 -0.4211 -1.6447
  196DOPC   C2424258  -0.232   0.120  13.105 -0.4071 -0.7082 -0.6817
  196DOPC   H4R24259  -0.259   0.219  13.063  0.5452 -0.6545 -1.1704
  196DOPC   H4S24260  -0.122   0.127  13.112 -0.4863  0.9097 -0.7122
  196DOPC   C2524261  -0.291   0.096  13.246  0.2602  0.4073  0.5177
  196DOPC   H5R24262  -0.283  -0.011  13.272 -0.1299  0.7390  2.1650
  196DOPC   H5S24263  -0.401   0.112  13.244  0.4502  2.1643  1.5491
  196DOPC   C2624264  -0.222   0.163  13.358  0.1644 -0.2843 -0.0399
  196DOPC   H6R24265  -0.280   0.145  13.452 -1.4424 -1.1954 -1.1600
  196DOPC   H6S24266  -0.231   0.272  13.340  0.5707 -0.0889  0.8889
  196DOPC   C2724267  -0.075   0.132  13.389  1.3167  0.2352 -0.2193
  196DOPC   H7R24268  -0.021   0.175  13.301  0.8721  2.1984  0.4226
  196DOPC   H7S24269  -0.060   0.023  13.397 -0.7203 -0.1209 -0.7009
  196DOPC   C2824270  -0.030   0.214  13.513 -0.3211 -0.4077 -0.0028
  196DOPC   H8R24271  -0.065   0.318  13.499 -0.7606 -0.4164  0.9437
  196DOPC   H8S24272   0.080   0.227  13.506 -0.5339  0.9524 -1.1946
  196DOPC   C2924273  -0.066   0.151  13.644  0.7970  0.5217  0.4833
  196DOPC   H9R24274  -0.019   0.053  13.660  1.9696  0.6785 -1.7045
  196DOPC  C21024275  -0.172   0.183  13.724 -0.1110 -0.4348  0.1479
  196DOPC  H10R24276  -0.191   0.127  13.817 -0.2492 -0.4799  0.0929
  196DOPC  C21124277  -0.280   0.283  13.699 -0.6212  0.0191 -0.0664
  196DOPC  H11R24278  -0.265   0.337  13.603 -0.7495 -0.8087 -0.5670
  196DOPC  H11S24279  -0.264   0.362  13.774 -2.2198 -0.1720  0.5018
  196DOPC  C21224280  -0.420   0.224  13.721  0.0652 -0.1907 -0.2506
  196DOPC  H12R24281  -0.435   0.126  13.671  2.6787 -0.0483 -1.4611
  196DOPC  H12S24282  -0.499   0.297  13.691 -1.9913 -1.4061  1.8731
  196DOPC  C21324283  -0.459   0.191  13.869 -0.1771 -0.7137  0.0873
  196DOPC  H13R24284  -0.373   0.139  13.916 -0.0253  0.3057  0.9781
  196DOPC  H13S24285  -0.549   0.126  13.872  0.4534 -1.5993  0.1735
  196DOPC  C21424286  -0.487   0.325  13.947  0.1412 -0.4016 -0.0656
  196DOPC  H14R24287  -0.594   0.349  13.930  0.0165 -2.2742 -2.4654
  196DOPC  H14S24288  -0.421   0.410  13.919  0.3503 -0.3263  0.6242
  196DOPC  C21524289  -0.458   0.312  14.100 -0.5135 -0.8143 -0.5628
  196DOPC  H15R24290  -0.479   0.415  14.136 -2.0235 -1.8116  1.6386
  196DOPC  H15S24291  -0.348   0.295  14.108 -0.3769  0.2192 -0.1074
  196DOPC  C21624292  -0.537   0.199  14.174  0.1312 -0.5308 -1.0321
  196DOPC  H16R24293  -0.501   0.097  14.147  0.6909 -0.5812 -0.1348
  196DOPC  H16S24294  -0.645   0.207  14.148 -0.4743 -0.4309  1.2930
  196DOPC  C21724295  -0.528   0.226  14.325 -0.2884  0.1318 -0.0701
  196DOPC  H17R24296  -0.422   0.231  14.358 -1.0542 -0.4993  2.7397
  196DOPC  H17S24297  -0.569   0.134  14.372  4.2968 -3.1096 -1.6608
  196DOPC  C21824298  -0.596   0.354  14.374 -0.1851 -0.0193 -0.3747
  196DOPC  H18R24299  -0.700   0.348  14.333  0.0168 -0.8351 -0.7899
  196DOPC  H18S24300  -0.539   0.447  14.351 -0.1409 -0.0512 -0.3928
  196DOPC  H18T24301  -0.609   0.345  14.484 -2.0217  0.2895 -0.5347
  196DOPC   C3324302   0.367   0.163  13.192  1.1139 -0.5040 -0.2442
  196DOPC   H3X24303   0.410   0.251  13.139 -0.1734  0.0585 -0.4209
  196DOPC   H3Y24304   0.438   0.079  13.199  1.2880 -0.2764  0.9517
  196DOPC   C3424305   0.366   0.200  13.343  0.4984  0.6921 -0.9816
  196DOPC   H4X24306   0.329   0.112  13.400  1.3707  0.6236 -0.5097
  196DOPC   H4Y24307   0.290   0.281  13.355 -2.0166 -1.7059  0.5507
  196DOPC   C3524308   0.498   0.250  13.406  0.4975  0.0077  0.4277
  196DOPC   H5X24309   0.538   0.333  13.344  0.2733  1.5921  2.2891
  196DOPC   H5Y24310   0.575   0.170  13.405 -0.1395 -0.6448  1.7193
  196DOPC   C3624311   0.471   0.291  13.555  0.0985  0.2118  0.6244
  196DOPC   H6X24312   0.550   0.362  13.590 -0.0944  0.9288 -0.3428
  196DOPC   H6Y24313   0.376   0.348  13.555  1.1248  2.0376  1.6391
  196DOPC   C3724314   0.491   0.167  13.645 -0.8172 -0.6353  0.3686
  196DOPC   H7X24315   0.447   0.069  13.615  0.3571 -1.4460  1.2010
  196DOPC   H7Y24316   0.599   0.148  13.663 -0.7732 -0.9047 -0.1549
  196DOPC   C3824317   0.447   0.195  13.793  0.3250  0.5340 -0.5255
  196DOPC   H8X24318   0.518   0.266  13.841  0.5589 -1.6506  2.7497
  196DOPC   H8Y24319   0.459   0.093  13.835 -0.2437  0.1204 -1.3522
  196DOPC   C3924320   0.304   0.238  13.810  0.6921 -0.0468  0.3424
  196DOPC   H9X24321   0.242   0.182  13.739 -2.5024  1.8096  1.4545
  196DOPC  C31024322   0.257   0.317  13.909 -0.2200  0.1791 -0.0679
  196DOPC  H10X24323   0.154   0.355  13.896 -0.8427 -1.3434  0.1601
  196DOPC  C31124324   0.329   0.390  14.019  0.1939 -0.2482  0.0573
  196DOPC  H11X24325   0.299   0.495  13.999 -0.3944 -0.7081 -1.6228
  196DOPC  H11Y24326   0.440   0.390  14.009  0.2840  0.2544  0.9359
  196DOPC  C31224327   0.306   0.327  14.158 -0.0656  0.2433  0.4454
  196DOPC  H12X24328   0.196   0.322  14.175 -0.2598 -5.5680 -0.5438
  196DOPC  H12Y24329   0.347   0.401  14.230  0.3052  1.4490 -0.9679
  196DOPC  C31324330   0.377   0.190  14.176  0.0815 -0.3660  0.5133
  196DOPC  H13X24331   0.342   0.122  14.096  0.6083 -0.6048  0.4837
  196DOPC  H13Y24332   0.483   0.215  14.152  0.3771 -1.5391  0.5668
  196DOPC  C31424333   0.362   0.134  14.319 -0.0989  0.7471  0.2705
  196DOPC  H14X24334   0.258   0.145  14.356  0.9043  1.8085  3.0233
  196DOPC  H14Y24335   0.373   0.024  14.321 -1.1394  0.6441  1.3126
  196DOPC  C31524336   0.444   0.204  14.431  0.2933 -0.1707 -0.3744
  196DOPC  H15X24337   0.417   0.311  14.428 -0.1032 -0.2900 -2.6870
  196DOPC  H15Y24338   0.554   0.193  14.418  0.3435 -0.1288 -0.0102
  196DOPC  C31624339   0.414   0.161  14.571 -0.2202  0.4896  0.0480
  196DOPC  H16X24340   0.304   0.180  14.576 -0.5304  0.7138 -3.8750
  196DOPC  H16Y24341   0.442   0.055  14.583  0.9157  0.7861  0.1134
  196DOPC  C31724342   0.490   0.244  14.676  0.3150  0.6395  0.3544
  196DOPC  H17X24343   0.460   0.350  14.657 -1.3724 -0.0872 -1.4004
  196DOPC  H17Y24344   0.457   0.224  14.780 -0.1765 -0.8162 -0.0574
  196DOPC  C31824345   0.647   0.236  14.669  0.1094 -0.2863 -0.0611
  196DOPC  H18X24346   0.681   0.159  14.596 -1.2233  0.3909 -1.4422
  196DOPC  H18Y24347   0.697   0.334  14.655 -1.8500  0.8673  0.6406
  196DOPC  H18Z24348   0.684   0.207  14.770 -1.4299 -1.6157  0.1655
  197DOPC     N24349   1.534   4.031  11.439  0.3024 -0.3843 -0.4491
  197DOPC   C1224350   1.497   4.053  11.581  0.0015 -0.2458 -0.2199
  197DOPC  H12A24351   1.561   4.130  11.622 -0.5260  1.2295 -2.0441
  197DOPC  H12B24352   1.525   3.968  11.641  1.5442  0.0078 -0.5419
  197DOPC   C1324353   1.475   3.900  11.386  0.2008  0.4398  0.2386
  197DOPC  H13A24354   1.370   3.905  11.413 -0.0405  1.8804 -0.8522
  197DOPC  H13B24355   1.482   3.901  11.279  0.7325  2.4949  0.2483
  197DOPC  H13C24356   1.533   3.824  11.437  0.2730  0.7600  0.6358
  197DOPC   C1424357   1.686   4.018  11.425  1.2064 -0.2503  0.2236
  197DOPC  H14A24358   1.731   4.103  11.472  1.4490 -0.2329 -0.0378
  197DOPC  H14B24359   1.722   3.935  11.484  2.4839 -2.4070 -3.2719
  197DOPC  H14C24360   1.710   3.997  11.321  1.2212  0.0274  0.1719
  197DOPC   C1524361   1.485   4.137  11.350  0.5733 -0.6214 -0.0831
  197DOPC  H15A24362   1.379   4.154  11.362  0.7560  0.4436  0.1519
  197DOPC  H15B24363   1.486   4.111  11.245  1.2310 -1.1810  0.0576
  197DOPC  H15C24364   1.536   4.232  11.361  0.4699 -0.5524 -0.1930
  197DOPC   C1124365   1.361   4.109  11.617  0.1852  0.2975 -0.8544
  197DOPC  H11A24366   1.285   4.039  11.576  1.2640 -0.3534 -1.7853
  197DOPC  H11B24367   1.337   4.104  11.726  0.8767  0.0502 -0.7045
  197DOPC     P24368   1.398   4.374  11.651  0.0344  0.2140 -0.1159
  197DOPC   O1324369   1.364   4.488  11.569 -0.6420 -0.0599  0.2994
  197DOPC   O1424370   1.539   4.359  11.692  0.7047  0.2352 -0.0831
  197DOPC   O1224371   1.349   4.240  11.577 -0.0321  0.1265  0.0386
  197DOPC   O1124372   1.307   4.390  11.782  0.2063  0.3808  0.1124
  197DOPC    C124373   1.184   4.315  11.797 -0.0754 -0.3825 -0.5236
  197DOPC    HA24374   1.198   4.212  11.836  0.8353 -0.0021  0.1662
  197DOPC    HB24375   1.124   4.316  11.703  1.1639  2.0560 -1.3746
  197DOPC    C224376   1.090   4.394  11.897  0.2254  0.3008 -0.4669
  197DOPC    HS24377   1.082   4.502  11.872  0.2044  0.8912  1.8498
  197DOPC   O2124378   1.144   4.379  12.032  0.3368 -0.2003  0.4119
  197DOPC   C2124379   1.107   4.462  12.129 -0.4270 -0.6373 -0.0950
  197DOPC   O2224380   1.029   4.554  12.112 -0.0693 -0.0296 -0.4826
  197DOPC   C2224381   1.177   4.432  12.265  0.0094  0.0107 -0.1128
  197DOPC   H2R24382   1.268   4.371  12.244  0.4215  0.4448  0.3647
  197DOPC   H2S24383   1.104   4.375  12.326  1.0269 -1.8508 -0.5463
  197DOPC    C324384   0.946   4.324  11.895 -0.0887  0.3079  0.0331
  197DOPC    HX24385   0.903   4.323  11.793  0.3207 -0.9800 -0.1466
  197DOPC    HY24386   0.874   4.376  11.962  0.4972  0.2799  0.6948
  197DOPC   O3124387   0.957   4.182  11.933 -0.3355  0.3400  0.4643
  197DOPC   C3124388   0.936   4.147  12.058  0.0134  0.0833  0.8611
  197DOPC   O3224389   0.908   4.224  12.147  0.5175 -0.3631 -0.3891
  197DOPC   C3224390   0.955   4.001  12.073  0.3312  0.7958  0.5007
  197DOPC   H2X24391   0.858   3.947  12.066  1.5115 -1.3149 -0.5802
  197DOPC   H2Y24392   1.004   3.955  11.985 -1.4961 -0.6544  0.1788
  197DOPC   C2324393   1.208   4.554  12.351  0.6090 -0.0663  0.5617
  197DOPC   H3R24394   1.116   4.617  12.355  0.9565  0.5185 -0.2336
  197DOPC   H3S24395   1.276   4.621  12.293  0.0225  0.8386  0.8872
  197DOPC   C2424396   1.282   4.536  12.477  0.1445 -0.0305 -0.4812
  197DOPC   H4R24397   1.329   4.635  12.493 -0.8611  0.8825 -2.7767
  197DOPC   H4S24398   1.360   4.458  12.467  0.6371  0.2343  1.1550
  197DOPC   C2524399   1.187   4.504  12.591  0.1288  0.5216  0.0735
  197DOPC   H5R24400   1.130   4.413  12.562  0.8624  0.1126 -0.1127
  197DOPC   H5S24401   1.117   4.591  12.593  1.2063  1.4555 -1.0466
  197DOPC   C2624402   1.262   4.490  12.728  0.2082 -0.4955  0.4576
  197DOPC   H6R24403   1.322   4.581  12.751 -2.6370  1.5164  0.4161
  197DOPC   H6S24404   1.328   4.403  12.708 -0.3601 -0.7146 -0.5397
  197DOPC   C2724405   1.169   4.459  12.848 -0.9067  0.3079 -0.7239
  197DOPC   H7R24406   1.136   4.354  12.854 -1.9694  0.5704 -1.6472
  197DOPC   H7S24407   1.074   4.517  12.849 -1.4077 -0.5067  0.0264
  197DOPC   C2824408   1.239   4.490  12.987 -0.3532  0.0346  0.1885
  197DOPC   H8R24409   1.279   4.593  12.997 -0.5558  0.0115  1.3812
  197DOPC   H8S24410   1.327   4.422  12.982  1.1265  1.8367  0.5138
  197DOPC   C2924411   1.141   4.460  13.095  0.5388  0.2766  0.1102
  197DOPC   H9R24412   1.042   4.503  13.079  0.2738 -0.2012  0.4379
  197DOPC  C21024413   1.169   4.397  13.208 -0.5592  0.1468  0.4437
  197DOPC  H10R24414   1.085   4.371  13.274  0.3979 -0.2568  1.5390
  197DOPC  C21124415   1.298   4.323  13.238 -0.0688 -0.7566  0.7756
  197DOPC  H11R24416   1.385   4.375  13.191  0.4867 -1.9475  0.4536
  197DOPC  H11S24417   1.301   4.224  13.189  0.8886 -1.0423  1.3734
  197DOPC  C21224418   1.336   4.298  13.382  0.4675  0.0201 -0.6266
  197DOPC  H12R24419   1.409   4.371  13.422 -0.4866  0.1579  0.9322
  197DOPC  H12S24420   1.377   4.195  13.394 -1.2442 -0.7519 -1.2044
  197DOPC  C21324421   1.224   4.310  13.483 -0.2887 -0.0301  0.3591
  197DOPC  H13R24422   1.137   4.245  13.459 -0.1401 -0.1380  0.1115
  197DOPC  H13S24423   1.183   4.413  13.483 -1.2629 -0.3833 -1.1684
  197DOPC  C21424424   1.284   4.290  13.629 -0.6879 -0.3495 -0.0078
  197DOPC  H14R24425   1.193   4.319  13.686  0.4281  1.6529  0.8817
  197DOPC  H14S24426   1.361   4.367  13.651 -0.6045  0.0686 -1.6121
  197DOPC  C21524427   1.331   4.149  13.648  0.2350 -0.6159 -0.2902
  197DOPC  H15R24428   1.433   4.142  13.604  0.2180  0.4857 -0.5380
  197DOPC  H15S24429   1.253   4.073  13.623 -1.8105  1.1804  0.3527
  197DOPC  C21624430   1.347   4.116  13.802  0.0613  0.0974  0.3387
  197DOPC  H16R24431   1.253   4.122  13.861  0.5477  0.8954  1.0767
  197DOPC  H16S24432   1.393   4.210  13.841 -1.1227  0.8814 -0.0909
  197DOPC  C21724433   1.427   3.993  13.834  0.3921 -0.3555 -0.5283
  197DOPC  H17R24434   1.516   3.982  13.768  0.3440 -0.1587 -0.6273
  197DOPC  H17S24435   1.362   3.911  13.797  1.6275 -0.7007 -2.0743
  197DOPC  C21824436   1.465   3.968  13.976  0.2590  0.0733 -0.5992
  197DOPC  H18R24437   1.481   3.858  13.983 -0.3830 -0.0546 -1.1063
  197DOPC  H18S24438   1.376   4.001  14.034  0.4633  1.1149 -0.8546
  197DOPC  H18T24439   1.547   4.032  14.016 -0.5328  0.3543  0.6468
  197DOPC   C3324440   1.027   3.967  12.202 -0.5444  0.0564  0.0982
  197DOPC   H3X24441   1.033   3.857  12.216 -0.4101  0.2889  2.1320
  197DOPC   H3Y24442   0.974   4.002  12.293 -1.0660 -1.8981  0.5916
  197DOPC   C3424443   1.174   4.023  12.192 -0.1281  0.4966 -0.2006
  197DOPC   H4X24444   1.176   4.134  12.193  0.2533  0.4884  0.8141
  197DOPC   H4Y24445   1.227   3.994  12.098 -0.1062  1.2288 -0.4165
  197DOPC   C3524446   1.252   3.997  12.321 -0.0522  0.0026  0.2162
  197DOPC   H5X24447   1.350   4.048  12.308  0.3675 -1.2863 -2.1894
  197DOPC   H5Y24448   1.266   3.892  12.355 -0.8513  0.6157  2.6649
  197DOPC   C3624449   1.195   4.065  12.443  0.1401  0.3645 -0.3052
  197DOPC   H6X24450   1.161   4.168  12.422 -0.6297  0.9171  2.9845
  197DOPC   H6Y24451   1.113   3.995  12.468  1.0885 -0.7373 -0.1924
  197DOPC   C3724452   1.301   4.062  12.556 -0.4573 -0.1579  0.0417
  197DOPC   H7X24453   1.361   3.968  12.557 -1.4444 -0.8119 -0.3733
  197DOPC   H7Y24454   1.371   4.145  12.530  0.8687 -0.8168  1.3665
  197DOPC   C3824455   1.235   4.095  12.689 -0.2825 -0.0327  0.2835
  197DOPC   H8X24456   1.160   4.014  12.698  1.3048 -1.9137 -1.9811
  197DOPC   H8Y24457   1.180   4.188  12.665 -1.9015 -0.8257  0.8260
  197DOPC   C3924458   1.335   4.103  12.802 -0.0104  0.2340 -0.1107
  197DOPC   H9X24459   1.435   4.128  12.763 -0.6107  1.8441 -0.7338
  197DOPC  C31024460   1.311   4.098  12.936 -0.1918 -0.5190 -0.3959
  197DOPC  H10X24461   1.394   4.109  13.007 -0.5190 -2.9033  0.4640
  197DOPC  C31124462   1.175   4.061  12.997 -0.3341 -0.4043 -0.4514
  197DOPC  H11X24463   1.106   4.005  12.930  0.4775 -1.4645 -0.4446
  197DOPC  H11Y24464   1.121   4.155  13.020  1.2078  0.4209 -0.1006
  197DOPC  C31224465   1.182   3.985  13.130  0.7210 -0.7202  0.9667
  197DOPC  H12X24466   1.262   4.028  13.194  0.7352  1.1546 -0.2216
  197DOPC  H12Y24467   1.223   3.884  13.107  1.7546 -0.2825  0.8125
  197DOPC  C31324468   1.056   3.969  13.210  1.2117 -0.1432  0.0176
  197DOPC  H13X24469   1.014   4.068  13.235 -0.4421 -0.7954 -0.0390
  197DOPC  H13Y24470   0.975   3.912  13.160 -2.1802  2.6206  1.9428
  197DOPC  C31424471   1.077   3.906  13.351  0.2090  0.4086 -0.5753
  197DOPC  H14X24472   1.087   3.796  13.343  0.9500  0.1585  2.5327
  197DOPC  H14Y24473   1.168   3.944  13.401  0.4384 -0.4387 -0.3383
  197DOPC  C31524474   0.957   3.953  13.443 -0.4879 -0.6017  0.2826
  197DOPC  H15X24475   0.858   3.953  13.393 -1.8208  1.3848  2.6985
  197DOPC  H15Y24476   0.970   4.061  13.464  0.6253 -0.6678 -0.0057
  197DOPC  C31624477   0.934   3.884  13.580 -0.8664  0.2287  0.2239
  197DOPC  H16X24478   0.877   3.789  13.573  1.0975 -0.8373 -3.0633
  197DOPC  H16Y24479   1.037   3.846  13.597 -0.2221  1.9944  0.4923
  197DOPC  C31724480   0.898   3.959  13.711  0.1098 -0.4100  0.0051
  197DOPC  H17X24481   0.799   4.003  13.687 -0.0870 -1.6905 -1.6823
  197DOPC  H17Y24482   0.913   3.888  13.796  0.7683 -0.0829  0.1737
  197DOPC  C31824483   0.982   4.084  13.736 -0.0689 -0.0531 -0.4592
  197DOPC  H18X24484   0.956   4.166  13.666  0.3861  0.7783  0.3199
  197DOPC  H18Y24485   0.965   4.133  13.835  0.5813 -0.6855 -0.0270
  197DOPC  H18Z24486   1.089   4.055  13.732 -0.0925  0.0016 -3.1105
  198DOPC     N24487   5.704   5.082  11.581 -0.4647  0.0979  0.0592
  198DOPC   C1224488   5.768   5.078  11.718 -0.4285  0.1565 -0.9166
  198DOPC  H12A24489   5.861   5.133  11.724 -0.1727 -0.2776 -0.7946
  198DOPC  H12B24490   5.793   4.974  11.738  2.6107  1.2390  2.0489
  198DOPC   C1324491   5.803   5.036  11.477  0.6297 -0.3743 -0.5422
  198DOPC  H13A24492   5.775   5.044  11.373 -1.6177 -0.9175 -0.0389
  198DOPC  H13B24493   5.895   5.091  11.490  0.9530 -0.8485 -0.7791
  198DOPC  H13C24494   5.820   4.929  11.477 -0.0134 -0.4785 -0.0553
  198DOPC   C1424495   5.643   5.207  11.543 -0.3698  0.0171  0.3227
  198DOPC  H14A24496   5.582   5.253  11.619 -0.1899  0.9921 -0.1060
  198DOPC  H14B24497   5.717   5.284  11.524  2.4275 -1.7895  2.9055
  198DOPC  H14C24498   5.577   5.187  11.460  0.0789 -1.5170  0.3207
  198DOPC   C1524499   5.582   4.984  11.579 -0.2548  0.2052  0.5091
  198DOPC  H15A24500   5.507   5.015  11.650  0.4518 -2.5177  2.6274
  198DOPC  H15B24501   5.605   4.883  11.611 -2.9087 -0.5576  0.2435
  198DOPC  H15C24502   5.529   4.985  11.485 -0.9335  4.0824  0.7780
  198DOPC   C1124503   5.682   5.146  11.834  0.2748  0.5193  0.1957
  198DOPC  H11A24504   5.581   5.103  11.816  1.0231 -0.2017 -2.8520
  198DOPC  H11B24505   5.725   5.099  11.925 -1.4304 -1.0127  0.2934
  198DOPC     P24506   5.795   5.375  11.859 -0.2301  0.1998  0.2239
  198DOPC   O1324507   5.773   5.515  11.834  0.0735  0.1547  0.8334
  198DOPC   O1424508   5.908   5.318  11.779 -0.1512 -0.0212 -0.5899
  198DOPC   O1224509   5.666   5.288  11.829  0.1008 -0.2503  0.2109
  198DOPC   O1124510   5.827   5.344  12.014 -0.1508 -0.2161 -0.4966
  198DOPC    C124511   5.710   5.353  12.095  0.2065  0.3335 -0.6992
  198DOPC    HA24512   5.630   5.289  12.052 -0.1680  0.6040 -0.4102
  198DOPC    HB24513   5.685   5.460  12.111 -0.0930  0.0551  0.7989
  198DOPC    C224514   5.733   5.284  12.233 -0.2225 -0.6146 -0.6153
  198DOPC    HS24515   5.801   5.338  12.302 -0.2220 -2.1514  0.6452
  198DOPC   O2124516   5.788   5.152  12.220  0.2414 -0.2588 -0.1835
  198DOPC   C2124517   5.863   5.110  12.318  0.5860 -0.1478  0.0599
  198DOPC   O2224518   5.917   5.170  12.405 -0.3471 -0.7372  0.1047
  198DOPC   C2224519   5.872   4.951  12.312  0.2801 -0.6950 -0.5877
  198DOPC   H2R24520   5.926   4.930  12.217  0.7690 -0.7963 -0.2920
  198DOPC   H2S24521   5.769   4.909  12.316 -0.3809  0.8525 -0.6290
  198DOPC    C324522   5.599   5.288  12.305  0.3689 -0.9969 -0.4799
  198DOPC    HX24523   5.529   5.239  12.235  0.3650  0.7746 -1.7789
  198DOPC    HY24524   5.560   5.392  12.309  0.9990 -0.7203 -1.2968
  198DOPC   O3124525   5.603   5.228  12.437 -0.2472  0.1737  0.0874
  198DOPC   C3124526   5.631   5.310  12.540  0.4216 -0.2559  0.3021
  198DOPC   O3224527   5.634   5.430  12.531  0.3491  0.0535 -0.2307
  198DOPC   C3224528   5.635   5.219  12.661  0.5928 -0.1085 -0.0293
  198DOPC   H2X24529   5.556   5.141  12.652  2.1879 -1.6323 -1.9237
  198DOPC   H2Y24530   5.724   5.152  12.659 -1.7587 -3.4936  0.5597
  198DOPC   C2324531   5.954   4.897  12.431 -0.0601  0.4238  0.3190
  198DOPC   H3R24532   6.044   4.960  12.449 -0.5729  2.0470 -2.1878
  198DOPC   H3S24533   5.984   4.792  12.410 -2.6664 -0.8096  2.2290
  198DOPC   C2424534   5.864   4.871  12.548  0.0683 -0.0756 -0.3011
  198DOPC   H4R24535   5.779   4.806  12.517 -1.0297  1.1630 -0.0195
  198DOPC   H4S24536   5.829   4.968  12.589  0.1902 -0.2394  0.2072
  198DOPC   C2524537   5.938   4.810  12.673 -0.2076 -0.6776  0.2269
  198DOPC   H5R24538   6.029   4.867  12.701  0.7104 -2.3759  0.8640
  198DOPC   H5S24539   5.990   4.717  12.640  0.5646 -0.3214  0.4170
  198DOPC   C2624540   5.837   4.788  12.791  0.0450 -0.1571 -0.0089
  198DOPC   H6R24541   5.745   4.743  12.749 -0.4681 -2.2532  3.0215
  198DOPC   H6S24542   5.816   4.883  12.844  3.4886  0.6440  0.1624
  198DOPC   C2724543   5.886   4.681  12.895 -0.0305 -0.1746  0.0903
  198DOPC   H7R24544   5.905   4.598  12.824 -2.5747 -0.7788  0.0442
  198DOPC   H7S24545   5.793   4.664  12.953 -0.1157  1.3596  0.4515
  198DOPC   C2824546   6.006   4.731  12.979  0.4254 -0.7066 -0.4808
  198DOPC   H8R24547   5.970   4.808  13.050 -0.3132 -0.6961 -0.8560
  198DOPC   H8S24548   6.077   4.787  12.915  0.7707 -1.1891 -0.5297
  198DOPC   C2924549   6.083   4.616  13.045 -0.3964  0.1825  0.6899
  198DOPC   H9R24550   6.167   4.576  12.986  0.3201  2.5862 -0.0774
  198DOPC  C21024551   6.073   4.569  13.165  0.5717 -0.3200 -0.4274
  198DOPC  H10R24552   6.133   4.482  13.197  0.7760 -0.1303 -0.2971
  198DOPC  C21124553   5.979   4.608  13.281  0.4602 -0.1712  0.0423
  198DOPC  H11R24554   5.910   4.529  13.317 -0.1366 -0.2775 -1.2764
  198DOPC  H11S24555   5.924   4.703  13.261 -0.3013 -0.1434  2.0324
  198DOPC  C21224556   6.062   4.639  13.404  0.3007  0.3165 -0.3453
  198DOPC  H12R24557   6.150   4.704  13.386 -0.1727  0.5960 -1.7621
  198DOPC  H12S24558   6.097   4.540  13.440 -0.0173 -1.1688 -3.7973
  198DOPC  C21324559   5.977   4.692  13.521  0.3150  0.4453  0.0608
  198DOPC  H13R24560   5.884   4.632  13.532  0.4405  0.5298  1.9294
  198DOPC  H13S24561   5.948   4.796  13.495 -1.6733  0.6004  2.4503
  198DOPC  C21424562   6.042   4.678  13.655 -0.5678  0.3297  0.0874
  198DOPC  H14R24563   6.126   4.750  13.648 -0.6514  0.6923  2.2061
  198DOPC  H14S24564   6.075   4.577  13.687 -0.1781  0.2308 -0.6209
  198DOPC  C21524565   5.957   4.729  13.775 -0.2078  0.1406 -1.0771
  198DOPC  H15R24566   6.001   4.692  13.870  0.2430  2.5288 -0.2857
  198DOPC  H15S24567   5.854   4.690  13.763 -1.3713  3.0569 -1.3722
  198DOPC  C21624568   5.946   4.879  13.777  0.1133 -0.0653 -0.1615
  198DOPC  H16R24569   5.878   4.919  13.699 -0.2463 -1.3191 -0.5161
  198DOPC  H16S24570   6.045   4.921  13.749  0.2602  0.2620  0.8031
  198DOPC  C21724571   5.908   4.923  13.915 -0.2635  0.1387 -0.7148
  198DOPC  H17R24572   5.970   4.886  14.000 -0.4006 -0.2218 -0.7694
  198DOPC  H17S24573   5.810   4.875  13.934  0.0028  0.7624  2.9826
  198DOPC  C21824574   5.898   5.077  13.921  0.1359 -0.2548  0.0801
  198DOPC  H18R24575   5.876   5.129  14.018 -0.7595  1.5422 -1.0242
  198DOPC  H18S24576   5.823   5.110  13.846  2.5556  0.6021 -2.0847
  198DOPC  H18T24577   5.988   5.129  13.883  0.3335 -0.2384  0.5615
  198DOPC   C3324578   5.641   5.291  12.795 -0.1714 -0.4261  0.2988
  198DOPC   H3X24579   5.561   5.368  12.802 -1.8193 -2.1833  1.6089
  198DOPC   H3Y24580   5.733   5.354  12.796  0.2168 -0.9244 -1.3064
  198DOPC   C3424581   5.658   5.197  12.918 -0.2378 -0.1523  0.6500
  198DOPC   H4X24582   5.760   5.153  12.924 -0.2035 -0.4269 -1.4010
  198DOPC   H4Y24583   5.577   5.121  12.910 -2.2716  2.0089 -0.4476
  198DOPC   C3524584   5.662   5.273  13.058 -0.0263  0.8472  0.4495
  198DOPC   H5X24585   5.570   5.335  13.061  0.2460  1.3832 -1.2581
  198DOPC   H5Y24586   5.752   5.339  13.052  1.3514 -0.9366  0.6778
  198DOPC   C3624587   5.675   5.184  13.178 -0.1867  0.7662 -0.4759
  198DOPC   H6X24588   5.587   5.117  13.186 -0.7382  1.4428 -0.8464
  198DOPC   H6Y24589   5.765   5.120  13.163 -1.4074 -1.6272  1.5486
  198DOPC   C3724590   5.692   5.269  13.306  0.3481  0.1637  0.0568
  198DOPC   H7X24591   5.776   5.340  13.291  1.6249 -1.0565  1.1767
  198DOPC   H7Y24592   5.600   5.330  13.317 -0.3731 -0.7688 -0.5785
  198DOPC   C3824593   5.713   5.189  13.431 -0.4186 -0.2038  0.0366
  198DOPC   H8X24594   5.760   5.248  13.512 -1.6258  1.0510 -0.1443
  198DOPC   H8Y24595   5.800   5.121  13.416  1.9194  2.1572  1.8252
  198DOPC   C3924596   5.595   5.109  13.464  0.4947 -0.7577  0.1860
  198DOPC   H9X24597   5.560   5.042  13.383  0.3912  1.4861 -1.7432
  198DOPC  C31024598   5.521   5.112  13.577 -0.0267 -0.2067 -0.1044
  198DOPC  H10X24599   5.433   5.047  13.579 -1.2732  1.4019 -0.6513
  198DOPC  C31124600   5.537   5.184  13.705  0.0924 -0.0522  0.0501
  198DOPC  H11X24601   5.470   5.272  13.705  0.1201 -0.0308  0.1735
  198DOPC  H11Y24602   5.639   5.228  13.703 -0.5458  1.6239  1.6234
  198DOPC  C31224603   5.521   5.094  13.830  0.1501  0.4220  0.8047
  198DOPC  H12X24604   5.594   5.010  13.824 -0.4371 -0.0657  0.3285
  198DOPC  H12Y24605   5.422   5.046  13.841  1.4716 -2.3696  1.5997
  198DOPC  C31324606   5.543   5.170  13.959  0.3497 -0.0933  0.2150
  198DOPC  H13X24607   5.651   5.197  13.961  0.4569 -0.5167  0.5517
  198DOPC  H13Y24608   5.484   5.264  13.968  1.7170  0.7198  0.9742
  198DOPC  C31424609   5.509   5.093  14.082 -0.1256  0.0862  0.0271
  198DOPC  H14X24610   5.412   5.043  14.062  0.8647 -1.5669 -0.8238
  198DOPC  H14Y24611   5.585   5.013  14.091 -0.0650  0.1127 -0.2480
  198DOPC  C31524612   5.515   5.182  14.209  0.7890 -0.8149  0.2697
  198DOPC  H15X24613   5.452   5.130  14.284 -0.1545  1.7069  1.3371
  198DOPC  H15Y24614   5.468   5.281  14.192  1.2987 -0.8908 -1.9016
  198DOPC  C31624615   5.653   5.190  14.277  0.0121  0.7859 -0.1508
  198DOPC  H16X24616   5.671   5.089  14.322 -0.1169  0.8083 -0.0503
  198DOPC  H16Y24617   5.729   5.195  14.196  0.9763 -1.4155  0.5402
  198DOPC  C31724618   5.685   5.299  14.385 -0.3096 -0.0847 -0.3608
  198DOPC  H17X24619   5.652   5.395  14.339 -0.5144  0.2092  0.3859
  198DOPC  H17Y24620   5.634   5.274  14.480 -1.3705 -0.7283 -1.0672
  198DOPC  C31824621   5.832   5.308  14.427 -0.3092  1.0264 -1.1404
  198DOPC  H18X24622   5.888   5.333  14.335  2.2101 -0.1172 -0.0084
  198DOPC  H18Y24623   5.840   5.395  14.496  0.5645 -0.1921  0.3571
  198DOPC  H18Z24624   5.861   5.209  14.467 -0.5674  1.4571  0.1951
  199DOPC     N24625   5.383   5.970  11.937 -0.0641 -0.6112 -0.4317
  199DOPC   C1224626   5.235   5.951  11.986 -0.5435  0.6663 -0.5483
  199DOPC  H12A24627   5.234   5.846  12.012  0.7645  0.9401  0.7248
  199DOPC  H12B24628   5.174   5.980  11.901  0.6589 -1.6958 -2.3300
  199DOPC   C1324629   5.422   5.883  11.819  0.3909 -0.2387 -0.8667
  199DOPC  H13A24630   5.349   5.904  11.742 -0.2421  1.2972  0.0878
  199DOPC  H13B24631   5.524   5.889  11.785  0.1575 -1.7008 -1.9073
  199DOPC  H13C24632   5.411   5.779  11.844  2.5753 -0.4882 -0.8044
  199DOPC   C1424633   5.479   5.942  12.053  0.2141  0.0393  0.0524
  199DOPC  H14A24634   5.579   5.947  12.013  0.5738 -1.5900  0.6735
  199DOPC  H14B24635   5.463   5.999  12.143  0.1596 -1.0127  0.7165
  199DOPC  H14C24636   5.466   5.840  12.085  2.1004 -0.9227 -1.9816
  199DOPC   C1524637   5.399   6.110  11.899  0.1302 -0.1440  0.0029
  199DOPC  H15A24638   5.326   6.147  11.828  2.2423  2.4124 -0.9880
  199DOPC  H15B24639   5.496   6.125  11.854  1.8094  1.3802  3.7004
  199DOPC  H15C24640   5.391   6.176  11.984 -1.2332  1.0505 -0.9980
  199DOPC   C1124641   5.183   6.037  12.098  0.2415 -0.7282 -1.2899
  199DOPC  H11A24642   5.257   6.050  12.180  0.4753 -1.6439 -1.3511
  199DOPC  H11B24643   5.171   6.143  12.065 -0.8570 -1.0402 -1.9635
  199DOPC     P24644   5.061   5.846  12.233  0.0700 -0.1691 -0.0350
  199DOPC   O1324645   5.121   5.744  12.142 -0.2027 -0.4397 -0.2055
  199DOPC   O1424646   4.929   5.821  12.295  0.2666 -0.4486  0.2948
  199DOPC   O1224647   5.058   5.983  12.150 -0.5156  0.5172 -0.2436
  199DOPC   O1124648   5.166   5.878  12.353  0.6764  0.2883 -0.7668
  199DOPC    C124649   5.292   5.816  12.373 -0.2512  0.1962  0.2035
  199DOPC    HA24650   5.353   5.822  12.280 -0.8967  1.9823 -0.1371
  199DOPC    HB24651   5.269   5.709  12.394 -0.9041  0.5102  1.1059
  199DOPC    C224652   5.367   5.863  12.496 -0.3649 -0.5064  0.2563
  199DOPC    HS24653   5.437   5.781  12.522 -0.3712 -0.7020 -0.3391
  199DOPC   O2124654   5.277   5.894  12.602 -0.0912  0.3481  0.5728
  199DOPC   C2124655   5.297   5.819  12.711 -1.1383 -0.3270  0.4572
  199DOPC   O2224656   5.376   5.723  12.717 -0.2675 -0.8704 -0.2334
  199DOPC   C2224657   5.211   5.876  12.820  0.5295  0.0900 -0.3611
  199DOPC   H2R24658   5.108   5.838  12.801  0.4498  0.1790 -0.1147
  199DOPC   H2S24659   5.198   5.986  12.828 -0.2762 -0.0665  0.6912
  199DOPC    C324660   5.447   5.993  12.460  0.9403  0.2272  0.3209
  199DOPC    HX24661   5.379   6.068  12.415 -0.0902 -0.0877  1.3083
  199DOPC    HY24662   5.504   5.949  12.375 -0.8529 -2.6804  0.4731
  199DOPC   O3124663   5.536   6.029  12.569 -0.5661  0.3940 -0.1559
  199DOPC   C3124664   5.484   6.116  12.658 -0.5697 -0.0756  0.2158
  199DOPC   O3224665   5.379   6.176  12.634  0.0567  0.3303  0.3267
  199DOPC   C3224666   5.589   6.148  12.768  0.5681 -0.0671 -0.4486
  199DOPC   H2X24667   5.632   6.056  12.813  2.6086  0.5383 -1.0362
  199DOPC   H2Y24668   5.666   6.212  12.719  0.2761 -0.6268 -1.6689
  199DOPC   C2324669   5.245   5.836  12.972  0.2298  0.2680 -0.2558
  199DOPC   H3R24670   5.353   5.852  12.993  0.1353 -0.7664  1.1936
  199DOPC   H3S24671   5.241   5.726  12.988  0.1599  0.5829  2.2395
  199DOPC   C2424672   5.151   5.910  13.069 -0.3189 -0.3977 -0.2293
  199DOPC   H4R24673   5.051   5.912  13.020 -0.4385  1.7266 -0.0180
  199DOPC   H4S24674   5.175   6.018  13.084 -1.4933 -0.0003 -1.0754
  199DOPC   C2524675   5.140   5.846  13.209 -0.3519 -0.0750  0.3446
  199DOPC   H5R24676   5.239   5.818  13.250  0.4970  3.3939  1.0416
  199DOPC   H5S24677   5.089   5.749  13.194 -1.0010 -0.0113  1.9371
  199DOPC   C2624678   5.073   5.925  13.320 -0.5001 -0.3207 -0.0703
  199DOPC   H6R24679   4.980   5.963  13.274 -0.9885 -0.1977  0.9922
  199DOPC   H6S24680   5.133   6.015  13.346 -1.3016  0.6166 -1.3651
  199DOPC   C2724681   5.036   5.850  13.444 -0.3817  0.7193  0.0434
  199DOPC   H7R24682   5.123   5.852  13.513 -0.7246  2.0366  0.4678
  199DOPC   H7S24683   4.998   5.747  13.429  0.6306  0.1220  1.3258
  199DOPC   C2824684   4.925   5.925  13.518 -0.4641  0.5053  0.0317
  199DOPC   H8R24685   4.916   5.864  13.611 -0.5182  2.6206  1.4797
  199DOPC   H8S24686   4.825   5.924  13.469 -1.0694  0.1342  1.2099
  199DOPC   C2924687   4.965   6.066  13.538  0.6560 -0.2223  0.3535
  199DOPC   H9R24688   4.976   6.113  13.439  1.6064 -1.0261  0.0599
  199DOPC  C21024689   5.010   6.119  13.652  0.1346 -0.7529 -0.4753
  199DOPC  H10R24690   5.034   6.226  13.655  2.0736 -1.1511 -0.4498
  199DOPC  C21124691   5.013   6.058  13.789  0.0279 -0.0455  0.1687
  199DOPC  H11R24692   5.047   6.135  13.862 -1.5026  0.2819  0.5604
  199DOPC  H11S24693   5.092   5.980  13.803  1.8502  1.3476 -1.8256
  199DOPC  C21224694   4.890   6.000  13.866 -0.3130  0.3941 -0.3730
  199DOPC  H12R24695   4.843   5.931  13.793  2.3826 -1.6994 -0.2820
  199DOPC  H12S24696   4.839   6.096  13.887 -1.0886  0.3780 -1.9852
  199DOPC  C21324697   4.935   5.928  13.991 -0.3984  0.3588  0.2493
  199DOPC  H13R24698   5.037   5.968  14.010  0.3466 -1.8110  1.1998
  199DOPC  H13S24699   4.930   5.818  13.973 -1.6049  0.1790  1.5007
  199DOPC  C21424700   4.839   5.937  14.113 -0.2474  0.2602  0.4366
  199DOPC  H14R24701   4.734   5.918  14.081 -0.8469  0.4988  2.1402
  199DOPC  H14S24702   4.842   6.043  14.146  0.1937  0.4741 -0.2568
  199DOPC  C21524703   4.879   5.852  14.237  0.1115  0.2488  0.1164
  199DOPC  H15R24704   4.987   5.856  14.264 -0.4529 -1.6955  3.2012
  199DOPC  H15S24705   4.842   5.751  14.210  0.8417  0.4762 -1.8507
  199DOPC  C21624706   4.797   5.893  14.357  0.5607 -0.3986  0.1177
  199DOPC  H16R24707   4.797   6.004  14.366 -2.9107 -0.1391 -1.8168
  199DOPC  H16S24708   4.861   5.869  14.446 -1.6734 -0.4640  1.7951
  199DOPC  C21724709   4.657   5.832  14.390 -0.0767 -0.0614 -0.0637
  199DOPC  H17R24710   4.663   5.723  14.370 -1.3028  0.0064 -0.9313
  199DOPC  H17S24711   4.589   5.880  14.316 -0.0990  0.3005  0.1887
  199DOPC  C21824712   4.610   5.867  14.530  0.9163 -0.1363 -0.7294
  199DOPC  H18R24713   4.683   5.838  14.610  0.4917 -0.9745 -0.6361
  199DOPC  H18S24714   4.514   5.817  14.553  0.0764  1.0183 -1.6755
  199DOPC  H18T24715   4.598   5.977  14.536  1.8876  0.0360 -1.5542
  199DOPC   C3324716   5.539   6.234  12.887  0.0421 -0.1535 -0.5198
  199DOPC   H3X24717   5.466   6.308  12.848  1.7791  1.2294 -1.2550
  199DOPC   H3Y24718   5.622   6.293  12.931  0.3474  0.0774 -1.3806
  199DOPC   C3424719   5.473   6.144  12.999 -0.0110  0.0211  0.1211
  199DOPC   H4X24720   5.553   6.069  13.017  0.7460  0.7541 -0.1284
  199DOPC   H4Y24721   5.381   6.097  12.960  0.2262  0.9771 -1.7096
  199DOPC   C3524722   5.445   6.219  13.130  0.1947 -0.0049  0.0717
  199DOPC   H5X24723   5.349   6.275  13.124 -0.2848 -0.8474 -0.3369
  199DOPC   H5Y24724   5.519   6.301  13.142 -0.3616  0.5620 -0.3273
  199DOPC   C3624725   5.452   6.116  13.250  0.1402 -0.0913 -0.4957
  199DOPC   H6X24726   5.390   6.024  13.249 -1.3409  0.8738  0.1258
  199DOPC   H6Y24727   5.559   6.085  13.261  0.7560  2.2249  0.6800
  199DOPC   C3724728   5.410   6.198  13.382 -0.5249  0.5508  0.0721
  199DOPC   H7X24729   5.425   6.307  13.366  0.7477  0.4333  0.3405
  199DOPC   H7Y24730   5.302   6.183  13.402 -0.8743  0.2491 -1.8753
  199DOPC   C3824731   5.492   6.158  13.504 -0.1530  0.7445 -0.4066
  199DOPC   H8X24732   5.473   6.228  13.588  1.0918  1.9970 -1.1199
  199DOPC   H8Y24733   5.600   6.153  13.479  0.3982 -1.6781  2.0332
  199DOPC   C3924734   5.453   6.020  13.547 -0.1087 -0.0628  0.3734
  199DOPC   H9X24735   5.458   5.944  13.467  2.5985  0.3215  0.0919
  199DOPC  C31024736   5.409   5.976  13.665 -0.0108  0.2200 -0.1255
  199DOPC  H10X24737   5.367   5.877  13.689  0.2081  0.5462  1.7517
  199DOPC  C31124738   5.384   6.064  13.784  0.3562 -1.0066 -0.4888
  199DOPC  H11X24739   5.294   6.127  13.767  1.6333  0.3353 -2.5959
  199DOPC  H11Y24740   5.466   6.130  13.819 -0.5189 -0.5464  0.7800
  199DOPC  C31224741   5.371   5.978  13.920  0.2248  0.0470 -0.1936
  199DOPC  H12X24742   5.466   5.923  13.936 -0.6461 -1.3339  0.4550
  199DOPC  H12Y24743   5.290   5.904  13.903  2.4688 -2.9442  1.2662
  199DOPC  C31324744   5.337   6.055  14.052  0.6418  0.6782 -0.0611
  199DOPC  H13X24745   5.405   6.137  14.082  0.1158  0.4334  2.0301
  199DOPC  H13Y24746   5.239   6.103  14.033  0.6863  1.9616  2.4688
  199DOPC  C31424747   5.324   5.969  14.174 -0.7447 -0.0215 -0.2143
  199DOPC  H14X24748   5.284   5.871  14.144 -1.1148 -0.0643  0.4072
  199DOPC  H14Y24749   5.421   5.964  14.229 -0.6797  1.0946 -0.2004
  199DOPC  C31524750   5.232   6.017  14.283  0.9189 -0.6067 -0.7806
  199DOPC  H15X24751   5.125   6.007  14.257  0.1436 -0.2854  1.9984
  199DOPC  H15Y24752   5.248   6.126  14.294 -0.3599 -0.5051  0.2208
  199DOPC  C31624753   5.264   5.939  14.414 -0.1585 -0.3556  0.1360
  199DOPC  H16X24754   5.254   5.830  14.390 -1.8756 -0.1385 -0.2422
  199DOPC  H16Y24755   5.367   5.969  14.446  0.9929 -0.5219 -3.0697
  199DOPC  C31724756   5.164   5.977  14.514 -0.3897 -0.2367  0.0683
  199DOPC  H17X24757   5.168   6.088  14.519  0.9910 -0.2985  0.5248
  199DOPC  H17Y24758   5.064   5.953  14.472 -1.2858  4.5740 -1.2218
  199DOPC  C31824759   5.179   5.906  14.649 -0.9916 -0.7341 -0.2977
  199DOPC  H18X24760   5.259   5.953  14.710  1.6306 -3.3696 -1.4580
  199DOPC  H18Y24761   5.077   5.893  14.691 -1.0614  0.5508 -0.0428
  199DOPC  H18Z24762   5.227   5.807  14.632  1.0981  0.3444 -1.1240
  200DOPC     N24763   0.392   6.131  12.051 -0.0627 -0.0686 -0.1500
  200DOPC   C1224764   0.342   6.271  12.089 -0.1235 -0.2878  0.1248
  200DOPC  H12A24765   0.314   6.278  12.193  3.0117  2.0214  0.9828
  200DOPC  H12B24766   0.249   6.283  12.036  0.4200  1.7769 -0.4409
  200DOPC   C1324767   0.285   6.033  12.086  0.4041  0.1188  0.4006
  200DOPC  H13A24768   0.309   5.934  12.050  0.9207  0.4384 -0.1376
  200DOPC  H13B24769   0.281   6.022  12.193 -0.7375 -2.6466  0.1612
  200DOPC  H13C24770   0.191   6.059  12.039  0.3704  0.3054  0.5706
  200DOPC   C1424771   0.516   6.096  12.128  0.3882  0.8705 -0.1147
  200DOPC  H14A24772   0.542   5.991  12.122 -0.0509  0.7076  0.7700
  200DOPC  H14B24773   0.599   6.158  12.097  0.7725  0.3749 -0.0883
  200DOPC  H14C24774   0.500   6.128  12.230  0.4848  1.7411 -0.3613
  200DOPC   C1524775   0.417   6.136  11.907 -0.8524  0.5091  0.6836
  200DOPC  H15A24776   0.451   6.038  11.877  0.6778  0.7370  1.5285
  200DOPC  H15B24777   0.495   6.209  11.888 -0.3256 -0.0048  0.8520
  200DOPC  H15C24778   0.332   6.159  11.845  1.7340 -0.9600 -3.8566
  200DOPC   C1124779   0.436   6.389  12.055  0.0969  0.0463 -0.0319
  200DOPC  H11A24780   0.440   6.391  11.944  1.9798  0.8897  0.0190
  200DOPC  H11B24781   0.377   6.478  12.087  0.8552  0.6431 -0.2633
  200DOPC     P24782   0.626   6.504  12.190  0.2384  0.1133 -0.0307
  200DOPC   O1324783   0.635   6.614  12.088  0.0879  0.3467 -0.3106
  200DOPC   O1424784   0.756   6.462  12.251 -0.3930  0.1884 -0.3404
  200DOPC   O1224785   0.556   6.382  12.122 -0.3102 -0.0366  1.2858
  200DOPC   O1124786   0.525   6.541  12.296 -0.2956 -0.0673 -0.2252
  200DOPC    C124787   0.527   6.656  12.380 -0.7308  1.0237 -0.2803
  200DOPC    HA24788   0.428   6.696  12.410  0.4610  2.6037  1.8949
  200DOPC    HB24789   0.583   6.746  12.345  1.8118 -0.3932 -0.0671
  200DOPC    C224790   0.599   6.620  12.506  0.8504  0.2303  0.4481
  200DOPC    HS24791   0.704   6.599  12.476  0.5288 -0.6868 -0.0988
  200DOPC   O2124792   0.537   6.512  12.578 -0.0691 -0.5836 -0.4832
  200DOPC   C2124793   0.616   6.443  12.652 -0.2273  0.3819 -0.1684
  200DOPC   O2224794   0.738   6.447  12.652  0.0095 -0.0298 -0.4344
  200DOPC   C2224795   0.526   6.347  12.730  0.5189  0.6305  0.5484
  200DOPC   H2R24796   0.592   6.271  12.778 -0.7350 -1.0365 -0.2681
  200DOPC   H2S24797   0.465   6.301  12.649  1.8442 -0.3630  0.0813
  200DOPC    C324798   0.603   6.745  12.599 -0.0006 -0.0685  0.0309
  200DOPC    HX24799   0.494   6.765  12.606 -0.1463 -0.3366 -1.2190
  200DOPC    HY24800   0.657   6.826  12.545  0.6730 -0.2400  0.4270
  200DOPC   O3124801   0.655   6.717  12.727 -0.2710 -0.0983 -0.4213
  200DOPC   C3124802   0.636   6.815  12.817  0.6525  0.2231 -0.4632
  200DOPC   O3224803   0.592   6.926  12.797  0.6693 -0.2270  0.1433
  200DOPC   C3224804   0.677   6.764  12.956  0.3040  0.0986  0.3828
  200DOPC   H2X24805   0.580   6.739  13.003  0.5901 -0.0680  0.9062
  200DOPC   H2Y24806   0.736   6.670  12.959 -1.5954 -1.1272  1.4405
  200DOPC   C2324807   0.451   6.432  12.833  0.4865  0.0754 -0.1214
  200DOPC   H3R24808   0.379   6.504  12.790  0.5249  0.8027  0.9964
  200DOPC   H3S24809   0.518   6.501  12.888 -0.1916  0.1330  0.6339
  200DOPC   C2424810   0.378   6.357  12.941 -0.4291  0.4406 -0.0126
  200DOPC   H4R24811   0.448   6.297  13.003 -1.1579 -0.1245  0.2748
  200DOPC   H4S24812   0.310   6.288  12.887 -1.4161  1.2877  0.1046
  200DOPC   C2524813   0.300   6.454  13.028  0.3202 -0.1157  0.0277
  200DOPC   H5R24814   0.222   6.509  12.971  0.1855  1.6311  1.7830
  200DOPC   H5S24815   0.364   6.538  13.064  0.8495 -0.2688 -0.5410
  200DOPC   C2624816   0.234   6.386  13.145 -0.1350  0.0966 -0.0558
  200DOPC   H6R24817   0.320   6.350  13.205  1.7055  2.3978 -1.1734
  200DOPC   H6S24818   0.179   6.301  13.099  1.4254  0.2358 -2.3671
  200DOPC   C2724819   0.143   6.468  13.221  0.2448 -0.0871 -0.3980
  200DOPC   H7R24820   0.050   6.490  13.166 -1.1832 -1.4970  1.3180
  200DOPC   H7S24821   0.194   6.563  13.250 -1.9145  1.1932 -0.6384
  200DOPC   C2824822   0.091   6.407  13.354 -0.4382 -0.0802  1.1347
  200DOPC   H8R24823   0.179   6.387  13.419  0.5675  3.9317  1.2555
  200DOPC   H8S24824   0.048   6.307  13.331  1.9686 -0.9003 -0.1941
  200DOPC   C2924825  -0.011   6.485  13.428  0.8733 -0.5333 -0.8146
  200DOPC   H9R24826  -0.077   6.547  13.365 -1.3421 -2.2803 -0.3765
  200DOPC  C21024827  -0.035   6.475  13.560 -0.5288  0.2299 -0.2432
  200DOPC  H10R24828  -0.111   6.541  13.603 -0.9065 -0.1552 -0.3144
  200DOPC  C21124829   0.042   6.397  13.661 -0.6247  0.5762 -0.3068
  200DOPC  H11R24830   0.109   6.323  13.612 -1.1733  0.6303 -1.1566
  200DOPC  H11S24831  -0.030   6.345  13.728  0.6550 -2.9479 -1.4487
  200DOPC  C21224832   0.125   6.489  13.753 -0.7974  0.8944 -0.1368
  200DOPC  H12R24833   0.197   6.553  13.698  0.1105  0.4018  0.4626
  200DOPC  H12S24834   0.181   6.426  13.824 -1.3902 -1.1167 -1.3583
  200DOPC  C21324835   0.030   6.567  13.847  0.3131  0.1955  0.1207
  200DOPC  H13R24836  -0.033   6.489  13.895  0.5489 -0.2602 -0.3008
  200DOPC  H13S24837  -0.026   6.638  13.783 -0.8976  1.1367  2.1511
  200DOPC  C21424838   0.090   6.646  13.962  0.0412 -0.5867 -0.0737
  200DOPC  H14R24839   0.186   6.693  13.932  1.2591 -1.4901  2.1716
  200DOPC  H14S24840   0.113   6.585  14.052 -0.7029 -1.4061 -0.4232
  200DOPC  C21524841  -0.017   6.752  14.005 -1.1927 -0.2446 -0.0147
  200DOPC  H15R24842  -0.106   6.686  13.999 -0.5946 -1.1688  0.9193
  200DOPC  H15S24843  -0.004   6.841  13.939 -1.3660 -0.9301 -0.9743
  200DOPC  C21624844  -0.005   6.800  14.148 -0.0990  0.2780  0.8095
  200DOPC  H16R24845   0.099   6.835  14.164 -0.5860  2.6284 -0.7741
  200DOPC  H16S24846  -0.017   6.711  14.214 -1.8151 -0.4540 -0.3902
  200DOPC  C21724847  -0.078   6.920  14.184  0.1266 -0.0424 -0.4593
  200DOPC  H17R24848  -0.186   6.901  14.166  0.1191  1.0001 -1.6711
  200DOPC  H17S24849  -0.056   7.006  14.118  1.7333  2.0857  2.5673
  200DOPC  C21824850  -0.044   6.961  14.329 -0.5613 -0.7708 -0.3856
  200DOPC  H18R24851  -0.100   7.054  14.353 -5.3158 -3.4421  0.1505
  200DOPC  H18S24852   0.065   6.968  14.346 -0.4161  0.4519 -1.6658
  200DOPC  H18T24853  -0.074   6.882  14.401  1.3256 -1.4045 -0.2409
  200DOPC   C3324854   0.749   6.871  13.032  0.2365 -0.4937  0.4494
  200DOPC   H3X24855   0.671   6.945  13.058  0.4000 -0.1907  0.0824
  200DOPC   H3Y24856   0.831   6.923  12.977 -0.0850  0.9471  1.2776
  200DOPC   C3424857   0.820   6.830  13.170 -0.0752 -0.1465 -0.6068
  200DOPC   H4X24858   0.913   6.771  13.153  0.7658  1.2101 -0.8329
  200DOPC   H4Y24859   0.747   6.776  13.235  1.5457 -2.0750 -0.3154
  200DOPC   C3524860   0.846   6.959  13.244 -0.2800  0.5536  0.2504
  200DOPC   H5X24861   0.750   7.015  13.252  0.2171  1.3724  0.5955
  200DOPC   H5Y24862   0.927   7.010  13.187  3.1861 -2.0761  2.3959
  200DOPC   C3624863   0.875   6.958  13.394  0.0778  0.1839 -0.0069
  200DOPC   H6X24864   0.813   6.884  13.450  1.0062  0.3797  1.3334
  200DOPC   H6Y24865   0.981   6.928  13.405 -0.5030 -1.2912  2.4313
  200DOPC   C3724866   0.853   7.097  13.450 -0.3308  0.2342 -0.1738
  200DOPC   H7X24867   0.934   7.161  13.409  0.4497 -2.2290 -2.7664
  200DOPC   H7Y24868   0.762   7.139  13.402 -1.0538 -2.9929 -1.9061
  200DOPC   C3824869   0.844   7.111  13.602  0.3104 -0.8669  0.3957
  200DOPC   H8X24870   0.760   7.044  13.633 -1.6034  1.4377  0.4583
  200DOPC   H8Y24871   0.806   7.212  13.629  0.7775 -1.2596  2.7003
  200DOPC   C3924872   0.964   7.089  13.684 -0.4837 -0.4921 -0.1166
  200DOPC   H9X24873   1.068   7.090  13.650  0.4732 -0.8659  2.5217
  200DOPC  C31024874   0.948   7.050  13.815 -0.1337 -0.1857 -0.3860
  200DOPC  H10X24875   1.044   7.050  13.869 -0.2932 -1.0383 -0.0908
  200DOPC  C31124876   0.820   7.013  13.884 -0.8051  0.6808 -0.7634
  200DOPC  H11X24877   0.786   6.907  13.879  0.7214  0.0453  1.1602
  200DOPC  H11Y24878   0.732   7.064  13.838 -0.3456  1.4558 -0.8007
  200DOPC  C31224879   0.810   7.070  14.028 -0.0477 -0.1573  0.3788
  200DOPC  H12X24880   0.706   7.097  14.056  0.2644  2.3145 -0.6362
  200DOPC  H12Y24881   0.864   7.164  14.045  1.5933 -1.3823  2.3264
  200DOPC  C31324882   0.866   6.980  14.147  0.2205 -0.5730 -0.3537
  200DOPC  H13X24883   0.969   6.951  14.115 -0.5495 -1.4209 -2.2688
  200DOPC  H13Y24884   0.857   7.046  14.236 -1.1388  0.8472 -1.4923
  200DOPC  C31424885   0.785   6.852  14.164  0.4437 -0.2479  0.1757
  200DOPC  H14X24886   0.680   6.881  14.188 -0.4485 -2.6991 -0.4814
  200DOPC  H14Y24887   0.780   6.789  14.072 -1.5932  0.5668 -0.3327
  200DOPC  C31524888   0.822   6.753  14.274 -0.5614 -0.6919  0.3380
  200DOPC  H15X24889   0.834   6.810  14.369 -0.3917  3.9018 -2.1807
  200DOPC  H15Y24890   0.919   6.708  14.242 -0.5410 -0.4726  0.0895
  200DOPC  C31624891   0.716   6.644  14.296  0.1578 -1.2231 -0.6617
  200DOPC  H16X24892   0.624   6.698  14.325 -0.3604 -2.8632  0.9239
  200DOPC  H16Y24893   0.688   6.580  14.209 -0.3862 -1.3169 -0.4190
  200DOPC  C31724894   0.752   6.548  14.413  0.3437  0.2936 -0.1589
  200DOPC  H17X24895   0.809   6.594  14.497 -2.5715  2.3704  0.8438
  200DOPC  H17Y24896   0.652   6.517  14.452 -1.2703  0.7395 -3.6029
  200DOPC  C31824897   0.826   6.423  14.365  0.0361  0.5466 -0.0775
  200DOPC  H18X24898   0.844   6.347  14.443  1.6021  1.2063  0.2421
  200DOPC  H18Y24899   0.773   6.385  14.275  1.0827  0.8361 -0.8281
  200DOPC  H18Z24900   0.928   6.453  14.332  0.0998 -1.6822 -2.1344
  201SOD    SOD24901   5.692   4.387  18.299  0.0743  0.4537 -0.0019
  202SOD    SOD24902   0.444   4.329   9.207  0.1635  0.0610 -0.2725
  203SOD    SOD24903   1.913   4.819  18.299  0.4799 -0.3951 -0.0787
  204SOD    SOD24904   2.219   0.008  11.205 -0.3306 -0.1772  0.1672
  205SOD    SOD24905   6.392   2.087  17.399 -0.1991 -0.1972  0.0031
  206SOD    SOD24906   2.636   2.173  10.523  0.1892  0.1085 -0.7332
  207SOD    SOD24907   2.536   1.433   9.337 -0.1999 -0.5953  0.0403
  208SOD    SOD24908   1.052   1.600  16.861 -0.3862  0.2894 -0.0939
  209SOD    SOD24909   1.641   4.177   9.369  0.0125 -0.1259  0.0865
  210SOD    SOD24910   5.855   0.056  16.982 -0.2946  0.2478  0.0384
  211SOD    SOD24911   4.287   0.221  19.181  0.5740  0.1491 -0.1744
  212SOD    SOD24912   3.505   5.088  19.693 -0.0666 -0.0901 -0.3482
  213SOD    SOD24913   4.435   6.654   9.860  0.3706 -0.5994 -0.0616
  214SOD    SOD24914   0.550   4.997  19.690  0.0589 -0.2885  0.2100
  215SOD    SOD24915   3.943   3.494  18.880 -0.1166  0.3494  0.0608
  216SOD    SOD24916   1.506   5.991  17.595 -0.1625  0.2923 -0.1926
  217SOD    SOD24917   5.475   2.108  11.850  0.2763  0.1657  0.2669
  218SOD    SOD24918   3.091   0.424  17.331  0.2756  0.2145 -0.5018
  219SOD    SOD24919   1.601   3.915  19.235  0.2743 -0.3039 -0.0764
  220SOD    SOD24920   1.423   0.495  11.331 -0.0088  0.0571  0.0321
  221SOD    SOD24921   4.716   4.625  10.955  0.3044  0.1082  0.4049
  222SOD    SOD24922   0.208   6.640  18.411  0.0025  0.2899  0.1252
  223SOD    SOD24923   1.778   3.699  10.771  0.1936 -0.3669  0.1250
  224SOD    SOD24924   6.117   4.199   9.888 -0.5341 -0.1067 -0.2275
  225SOD    SOD24925   3.466   4.384  11.933  0.4227 -0.5106  0.1373
  226SOD    SOD24926   4.969   6.257  17.205 -0.3458  0.1142  0.0921
  227CLA    CLA24927   0.266   0.061  11.281  0.3272 -0.2995 -0.1129
  228CLA    CLA24928   3.794   2.409  10.056 -0.0471 -0.0020 -0.0622
  229CLA    CLA24929   3.706   3.590  10.389 -0.2008  0.2205 -0.1307
  230CLA    CLA24930   5.434   4.067  18.892 -0.8206 -0.3080 -0.2836
  231CLA    CLA24931   6.148   2.025  19.874  0.4170 -0.0758  0.0913
  232CLA    CLA24932   3.692   0.547  17.503  0.2746  0.1137  0.1197
  233CLA    CLA24933   3.053   1.513  19.243 -0.2381 -0.0324  0.0162
  234CLA    CLA24934   1.620   6.190  18.873  0.0501 -0.2629 -0.2593
  235CLA    CLA24935   4.558   4.453  10.526  0.3101  0.0300  0.1191
  236CLA    CLA24936   3.391   0.138  19.460  0.3363 -0.3895  0.0912
  237CLA    CLA24937   3.948   5.427  18.646 -0.1354  0.2178 -0.0276
  238CLA    CLA24938   5.937   5.603  10.230  0.0593 -0.0252  0.1724
  239CLA    CLA24939   1.505   5.771  10.467  0.2167 -0.0900 -0.0925
  240CLA    CLA24940   5.768   1.589  18.070 -0.0031 -0.0467  0.3175
  241CLA    CLA24941   4.800   0.376  10.414 -0.1991  0.0871  0.2442
  242CLA    CLA24942   6.550   5.366  19.607 -0.3535  0.2196 -0.0163
  243CLA    CLA24943   2.835   2.827  10.621  0.5375 -0.1754 -0.4137
  244CLA    CLA24944   5.631   2.845  10.536 -0.3013 -0.2559 -0.3689
  245CLA    CLA24945   6.328   5.217  11.386  0.0841 -0.6937  0.0836
  246CLA    CLA24946   2.841   4.188  18.290 -0.2196 -0.1254  0.2139
  247CLA    CLA24947   1.221   4.884  10.367 -0.1914  0.0247  0.2085
  248CLA    CLA24948   4.876   0.430   9.324 -0.0144  0.2716 -0.1689
  249CLA    CLA24949   4.280   1.992  11.434  0.1478 -0.3172 -0.0612
  250CLA    CLA24950   4.164   5.322  19.690  0.2163  0.1691 -0.0707
  251CLA    CLA24951   2.037   3.523  19.109  0.1588 -0.1654  0.1719
  252CLA    CLA24952   1.043   0.940   9.712  0.0278  0.0676 -0.3900
  253TIP3   OH224953   1.715   1.748  18.793  0.0305 -0.1071  0.6991
  253TIP3    H124954   1.653   1.685  18.756  0.1118 -0.9085  1.8521
  253TIP3    H224955   1.689   1.832  18.756  1.8683 -1.1119 -3.4525
  254TIP3   OH224956   1.479   2.980  16.278  0.2062  0.0785 -0.2908
  254TIP3    H124957   1.404   3.039  16.277  1.1214  1.3074  0.5797
  254TIP3    H224958   1.551   3.032  16.244  0.5805 -1.2743 -1.7192
  255TIP3   OH224959   4.120   5.597  18.907 -0.0097 -0.3117  0.2471
  255TIP3    H124960   4.079   5.517  18.938 -1.6756  0.8954  1.3377
  255TIP3    H224961   4.164   5.633  18.985  1.4041 -0.5224 -0.4135
  256TIP3   OH224962   0.397   0.040  19.072  0.0438  0.1328  0.1021
  256TIP3    H124963   0.398   0.136  19.067 -0.6358  0.3632  2.7888
  256TIP3    H224964   0.310   0.015  19.041  0.1607  0.3834 -0.4368
  257TIP3   OH224965   0.432   2.254  19.134 -0.1437  0.0714  0.1113
  257TIP3    H124966   0.388   2.215  19.058  0.1076 -0.3163  0.1559
  257TIP3    H224967   0.409   2.346  19.131  0.8926  0.3243 -1.1829
  258TIP3   OH224968   6.655   2.814  20.032 -0.3355  0.6847  0.7856
  258TIP3    H124969   6.711   2.780  20.102 -0.1985 -0.1509  0.2863
  258TIP3    H224970   6.716   2.856  19.971 -0.2011 -0.5308  0.0671
  259TIP3   OH224971   1.193   4.824  19.653 -0.7685 -0.0171  0.4214
  259TIP3    H124972   1.130   4.887  19.689  1.6847  0.8766  3.5723
  259TIP3    H224973   1.211   4.764  19.725  3.4879  1.0306  0.4923
  260TIP3   OH224974   6.218   5.792  18.729 -0.3195 -0.7467 -0.0483
  260TIP3    H124975   6.310   5.814  18.716  0.0038 -2.8379 -2.1491
  260TIP3    H224976   6.217   5.735  18.805  0.2216 -1.1076 -0.3045
  261TIP3   OH224977   2.460   5.710  19.932  0.0754 -0.0115  0.0093
  261TIP3    H124978   2.461   5.761  20.012  0.8435  0.0626 -0.0367
  261TIP3    H224979   2.538   5.739  19.884 -0.1748 -0.3131 -0.5956
  262TIP3   OH224980   1.578   0.763  18.206 -0.2252 -0.2699  0.1692
  262TIP3    H124981   1.669   0.736  18.221 -0.2845  0.5762  2.5799
  262TIP3    H224982   1.569   0.766  18.111  2.6885  0.9367 -0.1740
  263TIP3   OH224983   1.776   4.698  17.972  0.0136 -0.0844 -0.2642
  263TIP3    H124984   1.733   4.616  17.996 -1.0570  0.8354  1.1747
  263TIP3    H224985   1.754   4.710  17.880 -1.9273 -0.2347  0.1259
  264TIP3   OH224986   6.056   1.547  20.336  0.5152  0.0390  1.0010
  264TIP3    H124987   5.979   1.581  20.290  0.1896 -1.1945  0.5766
  264TIP3    H224988   6.093   1.483  20.275  0.3568 -1.2754  2.2352
  265TIP3   OH224989   1.585   2.270  17.589 -0.6467 -0.2681  0.4204
  265TIP3    H124990   1.620   2.230  17.510 -0.2437 -0.3641  0.6501
  265TIP3    H224991   1.599   2.364  17.576  1.3824 -0.4070  1.3104
  266TIP3   OH224992   5.922   3.462  17.523  0.3087 -0.0637 -0.3663
  266TIP3    H124993   5.937   3.555  17.503 -0.2688 -0.0651 -0.8393
  266TIP3    H224994   5.972   3.446  17.602  1.6756  0.2672 -1.1292
  267TIP3   OH224995   2.317   4.083  19.386  0.1800  0.5578  0.1349
  267TIP3    H124996   2.227   4.079  19.355  1.0140 -0.2668 -2.4794
  267TIP3    H224997   2.353   4.163  19.346  1.1083 -0.1590 -0.5262
  268TIP3   OH224998   0.145   5.085  18.829 -0.5231  0.2590  0.4267
  268TIP3    H124999   0.203   5.031  18.883 -0.4219  0.6166  0.6781
  268TIP3    H225000   0.163   5.057  18.739  1.5152  1.6991  0.2949
  269TIP3   OH225001   6.191   5.908  17.911 -0.0521  0.2374  0.3381
  269TIP3    H125002   6.284   5.924  17.896 -0.5102  2.6999 -0.4007
  269TIP3    H225003   6.178   5.817  17.885  2.0342  0.0003 -0.0801
  270TIP3   OH225004   5.166   6.229  18.424 -0.1627 -0.4746 -0.4257
  270TIP3    H125005   5.126   6.313  18.404  2.6587  1.1479  0.1101
  270TIP3    H225006   5.260   6.243  18.409  0.6517 -2.9229  1.5447
  271TIP3   OH225007   5.760   1.749  19.692  0.2737 -0.3521  0.2926
  271TIP3    H125008   5.825   1.807  19.652 -0.0834  0.0706  0.3277
  271TIP3    H225009   5.789   1.661  19.667  2.2283 -0.3676  2.2674
  272TIP3   OH225010   6.742   1.578  20.642 -0.7446 -0.6775 -0.0820
  272TIP3    H125011   6.672   1.614  20.588 -1.3982 -1.4528  0.2264
  272TIP3    H225012   6.701   1.559  20.726  0.4370  1.1861  0.9712
  273TIP3   OH225013   4.510   5.047  17.410 -0.5902  0.3257 -0.0818
  273TIP3    H125014   4.470   5.068  17.494 -0.7309  0.0097 -0.0692
  273TIP3    H225015   4.437   5.038  17.349 -0.7086 -1.9494  0.2993
  274TIP3   OH225016   2.927   2.695  19.746 -0.3671 -0.2154  0.2619
  274TIP3    H125017   2.966   2.609  19.734 -2.7521 -1.3346  0.1084
  274TIP3    H225018   2.993   2.756  19.712  0.5222 -2.0919 -1.5798
  275TIP3   OH225019   1.194   2.276  19.072  0.7467 -0.7503 -0.2942
  275TIP3    H125020   1.191   2.223  19.152  0.7028 -0.4788 -0.1148
  275TIP3    H225021   1.184   2.366  19.103 -2.0438 -0.7891 -0.8086
  276TIP3   OH225022   4.751   5.434  20.130 -0.1949 -0.6536 -0.5403
  276TIP3    H125023   4.708   5.516  20.105 -0.7530 -1.1378 -1.2087
  276TIP3    H225024   4.838   5.440  20.090  0.5039  0.4439  1.0323
  277TIP3   OH225025   5.387   2.173  19.937  0.6146  0.0465 -0.3038
  277TIP3    H125026   5.360   2.259  19.905 -0.9572 -0.8122 -1.3905
  277TIP3    H225027   5.319   2.147  19.999  0.3722 -0.9497 -0.9624
  278TIP3   OH225028   4.696   4.723  17.567 -0.2125 -0.2256 -0.0347
  278TIP3    H125029   4.712   4.778  17.490 -1.3476  1.2663  0.7545
  278TIP3    H225030   4.605   4.739  17.589  0.3802  0.3305  2.3277
  279TIP3   OH225031   5.179   0.955  20.437 -0.1286  0.1121 -0.7076
  279TIP3    H125032   5.264   0.969  20.478  0.1345  1.6348 -1.6950
  279TIP3    H225033   5.166   0.860  20.441  2.0295 -0.2638 -1.3308
  280TIP3   OH225034   2.095   5.820  20.042  0.4683 -0.6292  0.3513
  280TIP3    H125035   2.058   5.796  19.957 -0.9610  2.8924 -0.1921
  280TIP3    H225036   2.054   5.761  20.104 -0.9446 -1.2061 -1.0720
  281TIP3   OH225037   0.658   0.817  18.731 -0.3568 -0.2960 -0.4526
  281TIP3    H125038   0.690   0.836  18.643  2.0890 -1.3243  0.1205
  281TIP3    H225039   0.712   0.743  18.761 -0.6226  0.4582  2.1662
  282TIP3   OH225040   2.709   5.990  19.007  0.0507 -0.7133 -0.2358
  282TIP3    H125041   2.702   5.919  18.944 -1.1048 -1.4712  0.7099
  282TIP3    H225042   2.622   6.030  19.008  0.2390 -0.2977  0.4060
  283TIP3   OH225043   1.721   6.611  19.695 -0.0583  0.2337  0.8792
  283TIP3    H125044   1.713   6.702  19.723  1.9871  0.6482  0.3312
  283TIP3    H225045   1.635   6.589  19.658  0.1438  2.8818 -1.5652
  284TIP3   OH225046   6.572   3.113   8.607  0.4431  0.3581 -0.0046
  284TIP3    H125047   6.498   3.126   8.667  1.1822 -1.7104  1.4847
  284TIP3    H225048   6.532   3.084   8.525 -0.4495  0.5071  0.3670
  285TIP3   OH225049   4.616   6.427  10.771  0.3718 -0.2944 -0.0930
  285TIP3    H125050   4.548   6.421  10.838 -0.0372 -2.0125 -0.6085
  285TIP3    H225051   4.661   6.509  10.790  0.7832 -1.0504  2.7832
  286TIP3   OH225052   5.635   2.919   9.839  0.3571  0.2153  0.1842
  286TIP3    H125053   5.597   2.837   9.871 -0.8747  0.3044 -0.9626
  286TIP3    H225054   5.609   2.984   9.905  0.8777 -0.2071  0.8189
  287TIP3   OH225055   0.701   3.758   8.872 -0.5360 -0.3249  0.3162
  287TIP3    H125056   0.795   3.771   8.859 -0.8125  1.6563 -0.0112
  287TIP3    H225057   0.680   3.816   8.945 -1.8533  0.8850 -0.9711
  288TIP3   OH225058   3.963   2.418  10.604 -0.1162  0.2653  0.0815
  288TIP3    H125059   3.996   2.328  10.596  0.8765  0.4943  1.1985
  288TIP3    H225060   3.869   2.411  10.585 -0.2737 -1.2084  1.1570
  289TIP3   OH225061   5.249   4.697  11.265 -0.1183  0.0019 -0.4566
  289TIP3    H125062   5.322   4.673  11.322 -0.7509 -0.9932 -0.0154
  289TIP3    H225063   5.196   4.756  11.319 -0.2808 -0.2766 -0.3044
  290TIP3   OH225064   1.189   6.428   8.623 -0.0420  0.4295 -0.2017
  290TIP3    H125065   1.098   6.409   8.600  0.2328  1.6415 -2.6504
  290TIP3    H225066   1.238   6.353   8.588  0.0054  0.2951  0.1504
  291TIP3   OH225067   5.817   5.267   8.753 -0.0558  0.3136  0.4752
  291TIP3    H125068   5.792   5.359   8.750 -2.8580 -0.2398  2.7119
  291TIP3    H225069   5.742   5.221   8.717  0.7184 -1.1667  0.6892
  292TIP3   OH225070   5.709   3.002   9.132  0.0558  0.2110 -0.5193
  292TIP3    H125071   5.646   2.962   9.072  0.1802  0.5343 -0.8707
  292TIP3    H225072   5.692   2.960   9.216  0.2379 -0.6296 -0.8990
  293TIP3   OH225073   6.746   1.112  11.419  0.1682  0.0550  0.1158
  293TIP3    H125074   6.712   1.060  11.346  2.8443 -2.8584  0.7005
  293TIP3    H225075   6.690   1.088  11.494 -1.2527  1.4032 -0.4745
  294TIP3   OH225076   1.636   2.252   9.430 -0.0294 -0.3169 -0.0494
  294TIP3    H125077   1.687   2.210   9.500  2.6959 -0.3158 -1.8869
  294TIP3    H225078   1.670   2.342   9.427 -0.3292 -0.2249 -1.1566
  295TIP3   OH225079   0.644   1.151  12.384  0.4274  0.8049  0.3269
  295TIP3    H125080   0.717   1.090  12.396 -1.2525 -1.4751 -0.5618
  295TIP3    H225081   0.566   1.097  12.391 -1.1671  2.9421 -0.1311
  296TIP3   OH225082   4.084   0.912  10.774  0.2287 -0.1929 -0.3056
  296TIP3    H125083   4.151   0.905  10.842 -0.2704  0.1558  0.2410
  296TIP3    H225084   4.079   0.824  10.736  1.6195 -0.0052 -0.9862
  297TIP3   OH225085   1.194   5.180  10.836  0.7013 -0.0452 -0.0081
  297TIP3    H125086   1.260   5.248  10.820 -1.3089  1.9779 -0.2598
  297TIP3    H225087   1.184   5.136  10.752 -0.8898  2.1995 -1.1009
  298TIP3   OH225088   1.405   6.182  11.555 -0.3893 -0.3575 -0.2594
  298TIP3    H125089   1.399   6.115  11.487  0.1155 -1.5599  0.8561
  298TIP3    H225090   1.468   6.245  11.520 -0.2201 -0.8932 -0.9533
  299TIP3   OH225091   6.536   4.251   9.904  0.5427 -0.4789 -0.5313
  299TIP3    H125092   6.520   4.161   9.875 -0.9743 -0.6413  0.6792
  299TIP3    H225093   6.458   4.274   9.953  2.7784 -0.1532  3.2398
  300TIP3   OH225094   4.055   5.741  11.595 -0.2943 -0.9472  0.3575
  300TIP3    H125095   4.026   5.747  11.686 -0.6677 -1.1053  0.2480
  300TIP3    H225096   4.151   5.751  11.600 -0.3135 -0.9546  0.7644
  301TIP3   OH225097   1.020   3.338  10.670  0.1369  0.1341  0.1884
  301TIP3    H125098   1.029   3.263  10.729  2.1240 -1.7430 -2.3059
  301TIP3    H225099   0.957   3.309  10.604  0.2727  0.9984 -0.3314
  302TIP3   OH225100   3.709   2.768   9.627  0.2588 -0.3526  0.5779
  302TIP3    H125101   3.751   2.737   9.707  3.3870  1.3361 -0.2427
  302TIP3    H225102   3.752   2.852   9.609 -1.2532 -0.0662 -2.2063
  303TIP3   OH225103   2.534   3.782  10.069 -0.0712  0.0273 -0.0461
  303TIP3    H125104   2.607   3.828  10.025  1.6097 -1.3274  1.1908
  303TIP3    H225105   2.473   3.762   9.998  1.9316 -0.9412 -1.6343
  304TIP3   OH225106   0.712   3.578   9.302  0.0185  0.1474 -0.1979
  304TIP3    H125107   0.757   3.568   9.218  0.6542 -0.0842  0.1615
  304TIP3    H225108   0.665   3.661   9.295 -0.7621 -0.3430 -1.1540
  305TIP3   OH225109   5.373   3.506  10.785  0.4293  0.1468 -0.8007
  305TIP3    H125110   5.295   3.553  10.812  0.9634  1.0617 -0.7867
  305TIP3    H225111   5.363   3.496  10.690 -1.7725 -3.6766 -0.3604
  306TIP3   OH225112   6.496   3.950   9.835 -0.1479 -0.9607 -0.0723
  306TIP3    H125113   6.467   3.859   9.834  1.1293 -1.3818 -1.3104
  306TIP3    H225114   6.474   3.984   9.748 -0.6531 -0.0580  0.3911
  307TIP3   OH225115   0.146   4.555   9.882 -0.2745  0.7993  0.0323
  307TIP3    H125116   0.217   4.617   9.867 -0.4703  0.9719 -0.1863
  307TIP3    H225117   0.173   4.505   9.959  1.1138 -0.6258 -1.3103
  308TIP3   OH225118   1.554   0.362  11.503 -0.3630 -0.3799 -0.0591
  308TIP3    H125119   1.640   0.403  11.515  0.6012 -2.5455  1.0848
  308TIP3    H225120   1.529   0.334  11.591 -1.9260 -0.4059 -0.4984
  309TIP3   OH225121   5.232   3.927  10.594 -0.4354 -0.1673 -0.2097
  309TIP3    H125122   5.316   3.902  10.555 -0.3610  0.7589 -0.6562
  309TIP3    H225123   5.201   3.847  10.636  0.2772 -0.7416 -0.7454
  310TIP3   OH225124   4.050   2.609   9.980 -0.4229  0.3140  0.7221
  310TIP3    H125125   3.972   2.566  10.017 -0.7362 -0.4204 -0.7112
  310TIP3    H225126   4.087   2.544   9.920  0.4921  1.1765  0.3164
  311TIP3   OH225127   4.177   6.193   9.404 -0.2390 -0.3087 -0.4092
  311TIP3    H125128   4.271   6.180   9.392 -0.2718 -1.6287  0.5534
  311TIP3    H225129   4.148   6.234   9.322  1.4327  1.7611 -0.0624
  312TIP3   OH225130   6.331   4.622  10.246 -0.2053 -0.2555 -0.1072
  312TIP3    H125131   6.311   4.609  10.153  0.8880 -0.7029 -0.3035
  312TIP3    H225132   6.259   4.580  10.292 -1.3978  1.0368 -0.7296
  313TIP3   OH225133   0.641   3.374   9.733  0.1853  0.0689  0.1095
  313TIP3    H125134   0.634   3.397   9.640  0.4072  0.6178  0.2270
  313TIP3    H225135   0.735   3.366   9.748  0.1183 -2.9968 -0.4221
  314TIP3   OH225136   5.572   3.208  10.653  0.2102  1.0349 -0.3463
  314TIP3    H125137   5.543   3.119  10.633  0.4955  0.8011  0.2565
  314TIP3    H225138   5.665   3.208  10.631  0.2467  1.1304 -0.1936
  315TIP3   OH225139   4.563   0.478  12.419 -0.0837 -0.0327 -0.6966
  315TIP3    H125140   4.651   0.455  12.389  0.8349 -0.7010  2.2138
  315TIP3    H225141   4.559   0.573  12.410  0.2394 -0.1592 -2.4957
  316TIP3   OH225142   2.031   5.773  11.263 -0.8535 -0.0553  0.0795
  316TIP3    H125143   2.077   5.843  11.216 -1.1416  0.3192  0.3460
  316TIP3    H225144   1.954   5.755  11.209 -1.2367  0.4437  0.4463
  317TIP3   OH225145   5.464   2.205  10.064  0.3682  0.3626  0.2183
  317TIP3    H125146   5.505   2.287  10.092 -0.1054 -0.1089  2.4892
  317TIP3    H225147   5.499   2.189   9.977  1.5694  2.2444  0.3045
  318TIP3   OH225148   4.675   2.500  10.660 -0.2649  0.1685  0.5777
  318TIP3    H125149   4.629   2.581  10.643  1.0601  0.6303 -1.0647
  318TIP3    H225150   4.607   2.437  10.682 -1.3795  1.5025  1.0316
  319TIP3   OH225151   4.030   3.189   8.977 -0.4472 -0.1209 -0.3850
  319TIP3    H125152   3.984   3.149   9.051 -0.8528  1.2632  0.1459
  319TIP3    H225153   4.102   3.238   9.017 -0.2217  0.0444 -0.9747
  320TIP3   OH225154   4.181   2.997  10.250  0.2459  0.0860 -0.5051
  320TIP3    H125155   4.104   3.043  10.285 -0.9849 -1.9683 -0.3509
  320TIP3    H225156   4.200   2.930  10.315  3.9289  2.1400  0.8116
  321TIP3   OH225157   6.607   0.088   9.263 -0.6014  0.2311 -0.3892
  321TIP3    H125158   6.698   0.110   9.243 -0.6139  1.5982  0.8896
  321TIP3    H225159   6.600  -0.005   9.242  0.9187  0.2309 -1.0618
  322TIP3   OH225160   0.260   0.301  10.614  0.0901 -0.2524 -0.2925
  322TIP3    H125161   0.203   0.251  10.673 -0.9622  1.4067  0.1541
  322TIP3    H225162   0.249   0.392  10.641  1.5162  0.2958 -1.4531
  323TIP3   OH225163   2.932   0.410  18.667  0.1364 -0.1865 -0.2549
  323TIP3    H125164   2.887   0.429  18.750 -1.8877 -0.9899 -1.0994
  323TIP3    H225165   2.966   0.321  18.678  4.6487  1.4969  1.6021
  324TIP3   OH225166   3.703   1.810  19.954 -0.6206 -0.1110 -0.3962
  324TIP3    H125167   3.700   1.717  19.974 -0.9586  0.0095  0.1121
  324TIP3    H225168   3.763   1.816  19.879  0.2037 -0.6222  0.2075
  325TIP3   OH225169   1.542   3.259  20.094  0.5691  0.0375  0.0748
  325TIP3    H125170   1.508   3.187  20.041 -0.4909 -0.4764  1.4021
  325TIP3    H225171   1.466   3.316  20.109  0.6732 -0.1860  1.5893
  326TIP3   OH225172   2.768   2.072  19.391  0.0667  0.0186 -0.1427
  326TIP3    H125173   2.677   2.047  19.406  0.7280 -1.2441  2.0536
  326TIP3    H225174   2.787   2.039  19.303 -1.0563 -1.3370  0.0875
  327TIP3   OH225175   0.284   1.306  18.178 -0.1343 -0.3312  0.6411
  327TIP3    H125176   0.345   1.309  18.251  1.2537 -2.3685 -0.3505
  327TIP3    H225177   0.282   1.214  18.152 -1.7231  0.1001 -0.9619
  328TIP3   OH225178   4.422   2.792  16.718  0.1597 -0.0139 -0.5491
  328TIP3    H125179   4.362   2.810  16.645 -1.2686  0.8942  0.7924
  328TIP3    H225180   4.450   2.878  16.748  2.1024 -0.4229 -1.0577
  329TIP3   OH225181   0.671   3.787  19.590  0.2374  0.0459 -0.6051
  329TIP3    H125182   0.653   3.800  19.497  0.2590  0.0278 -0.6118
  329TIP3    H225183   0.756   3.829  19.604 -0.1010  0.6939 -0.4390
  330TIP3   OH225184   2.717   3.493  18.192  0.4559 -0.0933  0.5071
  330TIP3    H125185   2.731   3.525  18.281 -1.4317  0.1979  0.7245
  330TIP3    H225186   2.688   3.402  18.203 -3.2893  0.9665  0.4863
  331TIP3   OH225187   4.215   5.977  19.850 -0.2810  0.4187 -0.2353
  331TIP3    H125188   4.214   5.929  19.932  1.3786 -0.2391 -0.5609
  331TIP3    H225189   4.235   5.910  19.784  0.5475  1.2826 -0.8858
  332TIP3   OH225190   1.476   5.328  19.252  0.0825  0.2405  0.3087
  332TIP3    H125191   1.563   5.369  19.249  1.1870 -2.0095 -0.3577
  332TIP3    H225192   1.453   5.315  19.160 -0.2186 -0.6608  0.5041
  333TIP3   OH225193   6.219   2.609  19.807  0.2877 -0.0452  0.9641
  333TIP3    H125194   6.286   2.670  19.836  0.8843 -0.9393  1.5360
  333TIP3    H225195   6.185   2.570  19.888 -1.2871  0.7377  0.7286
  334TIP3   OH225196   5.063   1.571  19.719 -0.0568  0.3845  0.1411
  334TIP3    H125197   5.054   1.533  19.806 -0.0307 -0.9609 -0.4105
  334TIP3    H225198   5.022   1.507  19.661  0.1080  1.1594 -0.8621
  335TIP3   OH225199   6.705   0.587  18.215 -1.0186  0.2041 -0.0637
  335TIP3    H125200   6.774   0.653  18.221 -0.7360 -0.1664  1.1396
  335TIP3    H225201   6.715   0.550  18.128  1.5539 -1.1329  0.6886
  336TIP3   OH225202   0.750   0.167  18.478  0.2690 -0.2048  0.0927
  336TIP3    H125203   0.742   0.076  18.450 -1.9676  0.0175 -0.2550
  336TIP3    H225204   0.684   0.176  18.547 -1.4623  1.6998 -1.6369
  337TIP3   OH225205   3.558   6.148  17.562  0.0281  0.2278 -0.1908
  337TIP3    H125206   3.475   6.189  17.588 -0.4598  1.5202 -3.3993
  337TIP3    H225207   3.543   6.054  17.572 -1.1945  0.5145  0.8940
  338TIP3   OH225208   1.141   2.596  16.519 -0.4394 -0.0098  0.0277
  338TIP3    H125209   1.136   2.522  16.580  0.3191 -0.7877 -0.8100
  338TIP3    H225210   1.202   2.566  16.451 -1.0771  0.9179 -0.9854
  339TIP3   OH225211   1.730   5.064  17.462 -0.0046 -0.4693  0.5279
  339TIP3    H125212   1.764   5.141  17.417  0.3185 -0.6867  0.3933
  339TIP3    H225213   1.683   5.099  17.538  0.9199 -0.1769  0.9776
  340TIP3   OH225214   5.731   2.150  18.816 -0.1769 -0.0962  0.1453
  340TIP3    H125215   5.698   2.060  18.807 -0.1208  0.0461 -1.9874
  340TIP3    H225216   5.801   2.143  18.880 -0.9445 -1.3429  0.9095
  341TIP3   OH225217   3.559   4.848  19.330  1.0917 -0.0134 -0.0252
  341TIP3    H125218   3.640   4.861  19.380  1.0366 -0.1862  0.1147
  341TIP3    H225219   3.501   4.801  19.391  0.3902  1.3040  0.3561
  342TIP3   OH225220   3.428   0.143  17.665 -0.1420  0.2837 -0.2461
  342TIP3    H125221   3.506   0.091  17.686  0.2037  1.1459  0.6564
  342TIP3    H225222   3.438   0.222  17.717 -3.8707 -1.4353  3.6898
  343TIP3   OH225223   4.752   4.754  18.461  0.0301 -0.0946  0.5802
  343TIP3    H125224   4.778   4.667  18.490 -0.9673  0.2393  2.7177
  343TIP3    H225225   4.833   4.805  18.462  0.8241 -1.1889 -1.7473
  344TIP3   OH225226   0.704   0.550  19.462 -0.2762  0.8105  0.1383
  344TIP3    H125227   0.661   0.570  19.545  0.8610 -0.6529  1.1542
  344TIP3    H225228   0.797   0.569  19.478 -0.1832  1.5314 -1.1668
  345TIP3   OH225229   2.582   1.776  16.837  0.8880  0.1434  0.1101
  345TIP3    H125230   2.538   1.815  16.761  0.1639  2.1772  1.4803
  345TIP3    H225231   2.673   1.806  16.829  0.3486  2.2163  1.1224
  346TIP3   OH225232   0.019   3.992  17.267  0.5480 -0.0323  0.1378
  346TIP3    H125233  -0.015   3.937  17.338  0.7711 -0.5852 -0.1806
  346TIP3    H225234   0.073   3.933  17.214  0.1566  0.3029 -0.6533
  347TIP3   OH225235   5.075   2.330  19.812  0.0053  0.0694 -0.0696
  347TIP3    H125236   5.081   2.250  19.761  0.4227 -0.3684  0.6437
  347TIP3    H225237   5.077   2.300  19.903 -0.2472  0.8587  0.2043
  348TIP3   OH225238   0.990   2.561  17.652  0.0446  0.0063  0.4744
  348TIP3    H125239   1.064   2.610  17.689  0.0435 -0.1900  0.7444
  348TIP3    H225240   1.000   2.473  17.689  0.4549 -0.4035 -0.5743
  349TIP3   OH225241   0.574   0.765  20.580 -0.0344  0.4531  0.6460
  349TIP3    H125242   0.581   0.694  20.644  0.5415 -0.1851 -0.0989
  349TIP3    H225243   0.545   0.721  20.500 -0.5585  1.2087  0.4128
  350TIP3   OH225244   3.084   3.363  19.380  0.4984 -0.2369  0.3433
  350TIP3    H125245   3.060   3.454  19.362 -0.1276 -0.4261  0.1917
  350TIP3    H225246   3.056   3.315  19.302  1.1781 -0.5119  0.2572
  351TIP3   OH225247   6.436   3.820  19.407  0.2519  0.1843 -0.5827
  351TIP3    H125248   6.459   3.786  19.493 -0.6461  0.6119 -0.1666
  351TIP3    H225249   6.502   3.782  19.348 -1.2398 -3.1147 -0.3456
  352TIP3   OH225250   0.893   5.560  17.493  0.7542 -0.1832  0.6463
  352TIP3    H125251   0.868   5.557  17.586  1.3453 -0.3611  0.7988
  352TIP3    H225252   0.865   5.476  17.458  1.1254 -0.3849  0.8201
  353TIP3   OH225253   6.262   1.545  20.088 -0.1801  0.0764 -0.0402
  353TIP3    H125254   6.303   1.632  20.090  3.3607 -1.2903 -2.3750
  353TIP3    H225255   6.188   1.555  20.028 -1.8885  2.0704  2.2176
  354TIP3   OH225256   4.769   2.825  16.982 -0.5204 -0.2641  0.0882
  354TIP3    H125257   4.684   2.867  16.970 -0.4110 -0.5877 -2.3387
  354TIP3    H225258   4.822   2.856  16.909  0.2871 -2.8084 -0.5041
  355TIP3   OH225259   2.619   3.889  17.046  0.2615 -0.1338 -0.6286
  355TIP3    H125260   2.626   3.981  17.022 -1.2420  0.4354  0.9000
  355TIP3    H225261   2.658   3.884  17.134  0.5955 -1.0186 -0.8117
  356TIP3   OH225262   3.164   1.938  19.104 -0.7707 -0.2636  0.2485
  356TIP3    H125263   3.230   1.964  19.168 -0.8297 -2.2132  1.2070
  356TIP3    H225264   3.176   1.843  19.095 -1.6029 -0.2332 -1.7073
  357TIP3   OH225265   1.194   2.889  18.873  0.4185 -0.0453 -0.2616
  357TIP3    H125266   1.255   2.816  18.865 -1.3100 -1.5376 -0.4372
  357TIP3    H225267   1.146   2.872  18.954  0.8299  1.6069  0.3853
  358TIP3   OH225268   4.890   0.199  18.574  0.7101  0.0996 -0.0987
  358TIP3    H125269   4.886   0.272  18.636  1.5070 -2.6615  3.5426
  358TIP3    H225270   4.973   0.212  18.528  0.5237  1.8111 -0.0377
  359TIP3   OH225271   0.570   1.589  19.505 -0.1100 -0.1789  0.2012
  359TIP3    H125272   0.577   1.574  19.411 -0.2600 -0.4921  0.2401
  359TIP3    H225273   0.643   1.647  19.525 -0.5619  0.5601 -0.2455
  360TIP3   OH225274   0.022   1.676  19.567  0.0634 -0.1345 -0.1213
  360TIP3    H125275   0.019   1.728  19.647  0.8243 -0.2900  0.0145
  360TIP3    H225276   0.115   1.662  19.551 -0.0621  0.3462 -1.3264
  361TIP3   OH225277   1.436   2.601  17.496 -0.0304 -0.0114 -0.0028
  361TIP3    H125278   1.465   2.692  17.498 -0.6422  0.2057 -0.4901
  361TIP3    H225279   1.375   2.593  17.569 -0.8817  0.3031 -0.6567
  362TIP3   OH225280   2.904   5.320  18.374 -0.5568  0.2155  0.5589
  362TIP3    H125281   2.893   5.249  18.437 -0.4430  0.0230  0.3604
  362TIP3    H225282   2.975   5.373  18.411  1.5266 -1.4548 -0.8009
  363TIP3   OH225283   5.650   1.901  18.737  0.3801  0.5773 -0.0992
  363TIP3    H125284   5.629   1.851  18.658  0.6541 -0.3096  0.3665
  363TIP3    H225285   5.668   1.834  18.803  1.3910  1.2993  0.3874
  364TIP3   OH225286   6.305   4.966  19.174  0.5668  0.2548 -0.4985
  364TIP3    H125287   6.248   5.041  19.191 -0.6236 -0.8058  0.3919
  364TIP3    H225288   6.393   4.997  19.195  0.4389  2.0874 -2.4042
  365TIP3   OH225289   6.546   2.996  19.078 -0.2017  0.3380  0.1566
  365TIP3    H125290   6.612   3.024  19.141 -1.0963  1.4812  0.6080
  365TIP3    H225291   6.465   3.038  19.106 -0.6838  0.7011 -1.6174
  366TIP3   OH225292   0.592   3.100  16.551 -0.3464  0.2033 -0.3033
  366TIP3    H125293   0.545   3.054  16.621  0.4220  1.8796  1.4329
  366TIP3    H225294   0.684   3.082  16.568 -0.0956  1.4738 -0.2239
  367TIP3   OH225295   0.360   3.664  18.244  0.0251 -1.0020  0.1970
  367TIP3    H125296   0.352   3.573  18.272  0.9675 -1.1545  0.0192
  367TIP3    H225297   0.270   3.694  18.234 -0.4649 -0.6499  4.1772
  368TIP3   OH225298   4.167   3.184  19.428  0.0186 -0.2491 -0.7577
  368TIP3    H125299   4.161   3.210  19.336 -0.3484  1.8109 -0.1833
  368TIP3    H225300   4.077   3.159  19.451  0.0484 -0.4448 -0.8426
  369TIP3   OH225301   3.405   2.008  18.466  0.3606 -0.1254  0.0234
  369TIP3    H125302   3.432   1.969  18.549  0.8591 -1.1255 -0.6024
  369TIP3    H225303   3.478   2.065  18.441  0.6731 -0.6442 -0.2549
  370TIP3   OH225304   0.366   4.337  19.391 -0.1306  0.1308 -0.0368
  370TIP3    H125305   0.298   4.399  19.414  0.9068  0.2215  3.3234
  370TIP3    H225306   0.362   4.331  19.295 -1.7517  3.5902 -0.3295
  371TIP3   OH225307   1.312   4.215  20.014 -0.7309 -0.1557  0.3659
  371TIP3    H125308   1.330   4.132  19.971 -0.1951 -0.4599  1.1408
  371TIP3    H225309   1.374   4.218  20.087 -0.1458  1.3229 -0.1532
  372TIP3   OH225310   2.607   5.613  19.533 -0.0050 -0.7226 -0.4399
  372TIP3    H125311   2.657   5.531  19.538  0.7981 -0.3083 -1.3325
  372TIP3    H225312   2.598   5.630  19.439 -0.7010 -0.0973 -0.2707
  373TIP3   OH225313   5.409   2.416  17.822  0.3013 -0.0255  0.0693
  373TIP3    H125314   5.443   2.487  17.767 -0.7891 -0.7430 -1.6001
  373TIP3    H225315   5.485   2.388  17.874  1.5073  0.3940 -1.3919
  374TIP3   OH225316   6.039   6.481  20.083  0.3713 -0.2178 -0.0470
  374TIP3    H125317   5.994   6.468  20.166 -1.0459  0.1230 -0.7301
  374TIP3    H225318   5.968   6.487  20.018  1.4625 -1.7483 -1.4669
  375TIP3   OH225319   3.409   0.563  18.257 -0.5018  0.3054 -0.0827
  375TIP3    H125320   3.426   0.532  18.345  0.4925  0.8330 -0.0759
  375TIP3    H225321   3.355   0.642  18.269  1.4924  1.6961  0.2169
  376TIP3   OH225322   0.981   4.321  17.370  0.0312  0.1178  0.1952
  376TIP3    H125323   1.012   4.314  17.280  0.2999 -0.0648  0.2987
  376TIP3    H225324   1.001   4.411  17.395  1.5011 -0.2921  0.6202
  377TIP3   OH225325   3.089   5.516  17.484 -0.5325  0.6196 -0.0595
  377TIP3    H125326   3.061   5.448  17.423 -0.6939  1.1113 -0.5408
  377TIP3    H225327   3.059   5.485  17.569 -1.1520  0.3865 -0.3553
  378TIP3   OH225328   0.056   3.226  19.445 -0.2045  0.7228  0.0010
  378TIP3    H125329   0.025   3.311  19.414 -0.7608  1.1088  1.5561
  378TIP3    H225330   0.129   3.246  19.503 -0.2877  0.1363  0.3167
  379TIP3   OH225331   6.129   4.358  19.747 -0.3413  0.8703  0.1521
  379TIP3    H125332   6.200   4.422  19.748  0.4766  0.0252  2.1564
  379TIP3    H225333   6.173   4.273  19.746 -1.2137  0.3015  2.6763
  380TIP3   OH225334   3.990   4.258  17.624 -0.1266 -0.0258 -0.2480
  380TIP3    H125335   3.935   4.335  17.639  0.3086  0.0375  1.2740
  380TIP3    H225336   3.928   4.186  17.617 -0.5748  0.5092 -2.2830
  381TIP3   OH225337   6.442   2.646  17.411 -0.1289 -0.1698 -0.2562
  381TIP3    H125338   6.511   2.584  17.434 -1.0975 -1.1714  0.0115
  381TIP3    H225339   6.455   2.719  17.471  0.4869 -0.4907  0.0149
  382TIP3   OH225340   0.982   2.114  19.570  0.1189 -0.0627  0.3345
  382TIP3    H125341   1.011   2.071  19.650 -0.8292 -0.1484  0.6424
  382TIP3    H225342   0.971   2.206  19.594 -1.2177 -0.2723  0.6152
  383TIP3   OH225343   6.115   1.170  20.015 -0.8895  0.0243 -0.3116
  383TIP3    H125344   6.099   1.146  19.924  0.4388 -0.9581 -0.3138
  383TIP3    H225345   6.101   1.089  20.064 -0.0375  0.1386  0.1485
  384TIP3   OH225346   0.093   5.304  17.516  0.2904  0.1995 -0.0688
  384TIP3    H125347   0.156   5.312  17.444 -0.2043  1.9373 -0.3558
  384TIP3    H225348   0.092   5.210  17.536  0.8104 -0.2770 -1.9971
  385TIP3   OH225349   1.920   3.154  18.257 -0.0199 -0.0813 -0.8965
  385TIP3    H125350   1.916   3.216  18.329 -0.6407 -1.1913  0.0656
  385TIP3    H225351   1.936   3.207  18.179  1.0380  1.1122  0.0944
  386TIP3   OH225352   0.714   6.622  18.512 -0.1473  0.5609 -0.4017
  386TIP3    H125353   0.670   6.650  18.592  1.4715  0.7275  0.4794
  386TIP3    H225354   0.797   6.585  18.542  0.1555 -0.0982 -1.9568
  387TIP3   OH225355   5.905   3.801  17.597  0.8435  0.3573 -0.1391
  387TIP3    H125356   5.905   3.772  17.506  0.3634  1.4320 -0.5004
  387TIP3    H225357   5.865   3.888  17.594  1.3018  0.6220  1.0309
  388TIP3   OH225358   5.939   6.363  18.021 -0.1442  0.3350  0.2246
  388TIP3    H125359   6.032   6.346  18.006 -0.3600 -0.5125 -0.2343
  388TIP3    H225360   5.904   6.281  18.055 -0.6203  0.8204  0.9480
  389TIP3   OH225361   4.252   6.556  18.196  0.2600  0.0761  0.1972
  389TIP3    H125362   4.231   6.464  18.212  1.8211 -0.3535 -0.0186
  389TIP3    H225363   4.230   6.601  18.278 -1.1860 -0.3462  0.0598
  390TIP3   OH225364   0.094   3.442  19.147  0.0426  0.1325 -0.1457
  390TIP3    H125365   0.030   3.433  19.218  0.5860 -0.3896  0.2974
  390TIP3    H225366   0.179   3.432  19.191  0.4084  0.3783 -0.7895
  391TIP3   OH225367   4.262   6.579  18.767 -0.0685  0.0988 -0.0023
  391TIP3    H125368   4.228   6.530  18.841 -0.4818 -0.3085 -0.4529
  391TIP3    H225369   4.342   6.620  18.799  0.4241 -1.0705  0.3056
  392TIP3   OH225370   6.437   0.067  18.722 -0.2467  0.1767  0.2827
  392TIP3    H125371   6.478   0.152  18.706  1.9437 -0.4763  1.9006
  392TIP3    H225372   6.486   0.005  18.667 -0.8691 -0.2513  0.1944
  393TIP3   OH225373   0.878   1.745  20.563 -0.5674 -0.3511 -0.2441
  393TIP3    H125374   0.783   1.749  20.551 -0.6811  2.0935  0.8369
  393TIP3    H225375   0.893   1.782  20.650  1.4522  0.5681 -0.9124
  394TIP3   OH225376   0.409   4.834  19.636  0.0419 -0.0025 -1.2747
  394TIP3    H125377   0.359   4.795  19.708 -0.8321  1.2239 -1.1765
  394TIP3    H225378   0.402   4.771  19.564 -1.1222 -0.1550 -1.0443
  395TIP3   OH225379   3.997   4.961  19.645 -0.1699  0.0667  0.2720
  395TIP3    H125380   4.009   4.965  19.550 -0.6982  0.7741  0.2292
  395TIP3    H225381   4.083   4.981  19.681 -0.1467  0.5826 -0.0570
  396TIP3   OH225382   6.162   3.874  17.665 -0.2832 -0.0106 -0.1648
  396TIP3    H125383   6.074   3.851  17.636  0.0930 -0.7646 -0.7355
  396TIP3    H225384   6.165   3.970  17.662 -0.8503 -0.0179 -0.8256
  397TIP3   OH225385   5.616   5.134  18.119 -0.0913 -0.3789 -0.2116
  397TIP3    H125386   5.706   5.165  18.123 -0.2702  0.4156 -1.4534
  397TIP3    H225387   5.604   5.081  18.198  0.5500  1.9273  1.5249
  398TIP3   OH225388   3.137   4.385  17.294  0.1636  0.0323  0.6384
  398TIP3    H125389   3.179   4.356  17.214  1.0409 -2.1298  1.7945
  398TIP3    H225390   3.045   4.397  17.270  0.9710  3.1547 -1.5156
  399TIP3   OH225391   3.462   1.487  18.128  0.0341 -0.4247 -0.1647
  399TIP3    H125392   3.534   1.443  18.082 -0.9795  0.0495 -2.3366
  399TIP3    H225393   3.426   1.419  18.185  1.5369 -0.9586  0.2014
  400TIP3   OH225394   4.354   0.205  18.959 -0.1316  0.1811 -0.2250
  400TIP3    H125395   4.360   0.182  18.866  1.7178 -0.4833  0.0225
  400TIP3    H225396   4.434   0.255  18.976 -1.3007  1.8214  0.6208
  401TIP3   OH225397   1.568   4.483  17.988  0.7568 -0.4801  0.0240
  401TIP3    H125398   1.507   4.426  17.941 -1.3734  0.4337  1.5040
  401TIP3    H225399   1.626   4.423  18.034  2.2455 -1.3925 -2.7980
  402TIP3   OH225400   1.908   4.624  18.941 -0.1186  0.1647  0.0952
  402TIP3    H125401   1.890   4.533  18.966 -0.4073  0.6781  1.9029
  402TIP3    H225402   1.965   4.657  19.010  0.4817  1.2003 -0.8640
  403TIP3   OH225403   2.534   3.486  19.905 -0.1543  0.0066 -0.2408
  403TIP3    H125404   2.605   3.452  19.851 -0.1627  0.8189 -0.7974
  403TIP3    H225405   2.475   3.528  19.842 -0.1776  0.9613  0.3880
  404TIP3   OH225406   2.425   5.037  18.831 -0.2923  0.0393  0.7208
  404TIP3    H125407   2.375   5.044  18.912 -1.1740  0.7848  0.1401
  404TIP3    H225408   2.381   4.967  18.782  1.3528 -1.6992  1.6131
  405TIP3   OH225409   4.118   5.964  19.301  0.5018  0.9149  0.1188
  405TIP3    H125410   4.167   5.890  19.265 -0.3801  0.5824 -0.4317
  405TIP3    H225411   4.111   6.026  19.229 -0.0716  0.8622  0.1238
  406TIP3   OH225412   1.229   4.242  17.775 -0.3521  0.4014 -0.2458
  406TIP3    H125413   1.233   4.146  17.773 -0.8815  0.3197  1.3041
  406TIP3    H225414   1.181   4.266  17.696 -1.5329 -0.7102  0.1103
  407TIP3   OH225415   1.889   2.020  18.223  0.1594 -0.3190 -0.3131
  407TIP3    H125416   1.814   2.063  18.183 -0.4793  0.9056  2.0038
  407TIP3    H225417   1.963   2.042  18.167 -0.6041  1.6193 -0.6323
  408TIP3   OH225418   4.460   3.553  19.571 -0.2941  0.5933 -0.2169
  408TIP3    H125419   4.487   3.570  19.661 -0.5221 -1.8615  0.4155
  408TIP3    H225420   4.373   3.512  19.580  0.3365 -1.1474 -1.3753
  409TIP3   OH225421   4.457   3.798  20.219  0.2699 -0.2166  0.3049
  409TIP3    H125422   4.436   3.814  20.311  1.5663 -0.2925  0.6447
  409TIP3    H225423   4.375   3.768  20.180 -1.1542  2.8684  0.6736
  410TIP3   OH225424   0.965   2.080  19.042 -0.1896 -0.5685  0.2304
  410TIP3    H125425   0.952   2.133  18.964 -0.8870 -0.7091  0.2370
  410TIP3    H225426   0.889   2.101  19.097  1.0131  0.6145  1.5027
  411TIP3   OH225427   6.420   2.737  18.325  0.5336 -0.3939 -0.0472
  411TIP3    H125428   6.393   2.650  18.352 -1.0464  0.2404  0.5412
  411TIP3    H225429   6.339   2.788  18.324  1.2183  0.7596 -1.6342
  412TIP3   OH225430   0.148   5.046  17.576 -0.0117 -0.1293 -0.0177
  412TIP3    H125431   0.163   4.979  17.510  0.5524 -0.8539  0.8328
  412TIP3    H225432   0.187   5.011  17.656  1.0116  1.5528  0.2682
  413TIP3   OH225433   2.742   1.800  17.868 -0.0396 -0.1070 -0.0352
  413TIP3    H125434   2.695   1.781  17.787  0.1973 -2.3582  0.2973
  413TIP3    H225435   2.823   1.844  17.840 -0.7378  0.7094 -0.8475
  414TIP3   OH225436   0.520   1.697  18.125  0.6205 -0.0170  0.1294
  414TIP3    H125437   0.525   1.685  18.030  0.1078  1.5451 -0.1346
  414TIP3    H225438   0.432   1.671  18.149  0.9996 -1.1624  0.3171
  415TIP3   OH225439   3.554   0.037  18.585 -0.3406  0.3097  0.3335
  415TIP3    H125440   3.626   0.072  18.534  1.2692 -1.2023  1.4323
  415TIP3    H225441   3.582  -0.052  18.608 -0.9429  0.8582  3.7596
  416TIP3   OH225442   2.509   2.188  18.450 -0.0806 -0.5328 -0.0876
  416TIP3    H125443   2.566   2.232  18.514 -0.4958 -0.3142  0.1347
  416TIP3    H225444   2.420   2.212  18.476 -0.2302  0.4961 -1.4155
  417TIP3   OH225445   4.443   3.062  17.687  1.1391 -0.1031  0.3533
  417TIP3    H125446   4.476   2.982  17.730 -1.3152 -1.3899  0.0094
  417TIP3    H225447   4.440   3.039  17.594  2.0847  1.0656  0.0107
  418TIP3   OH225448   2.151   5.132  19.924 -0.3304  0.2920 -0.0532
  418TIP3    H125449   2.236   5.125  19.881 -0.4237 -0.8306 -0.0924
  418TIP3    H225450   2.171   5.134  20.018 -0.3175 -2.7895  0.1155
  419TIP3   OH225451   5.265   2.868  18.363 -0.6163  0.1788  0.1469
  419TIP3    H125452   5.261   2.964  18.360  1.1013  0.2677 -0.9621
  419TIP3    H225453   5.337   2.845  18.305 -1.3632 -1.8479 -0.0764
  420TIP3   OH225454   6.445   3.727  20.347 -0.0097  0.0023  0.4607
  420TIP3    H125455   6.464   3.647  20.397 -0.5698 -0.4916 -0.1004
  420TIP3    H225456   6.356   3.715  20.315 -0.0290  0.7695  0.2018
  421TIP3   OH225457   1.502   0.219  19.176  0.1875  0.1311 -0.7069
  421TIP3    H125458   1.549   0.264  19.245 -0.2770 -0.6803  0.1629
  421TIP3    H225459   1.571   0.181  19.121  0.5707  1.6448 -1.3053
  422TIP3   OH225460   2.652   5.416  16.435  0.4165  0.0817  0.4917
  422TIP3    H125461   2.574   5.458  16.470 -0.9061  0.4325 -2.5302
  422TIP3    H225462   2.622   5.331  16.403  1.3726  0.0040 -0.2643
  423TIP3   OH225463   3.427   4.723  19.104  0.1701 -0.6670  0.5456
  423TIP3    H125464   3.472   4.774  19.172 -0.1368  2.5647 -1.4730
  423TIP3    H225465   3.334   4.731  19.126  0.0850  0.1923 -0.0899
  424TIP3   OH225466   5.969   5.533  19.694  0.5030  1.0626 -0.2263
  424TIP3    H125467   5.900   5.520  19.628  1.2757 -0.5002 -0.7687
  424TIP3    H225468   5.942   5.613  19.740 -0.7208  1.5034 -1.5993
  425TIP3   OH225469   0.403   5.395  19.775 -0.3100 -0.0951  0.6710
  425TIP3    H125470   0.371   5.440  19.697  0.5721  0.3844  0.5710
  425TIP3    H225471   0.345   5.424  19.846 -0.5747  0.1540  0.3524
  426TIP3   OH225472   2.918   4.586  17.717  0.1382  0.2848 -0.6344
  426TIP3    H125473   2.884   4.674  17.729 -0.9162 -0.1060 -0.6370
  426TIP3    H225474   3.004   4.599  17.676  0.3940  1.3294  0.1975
  427TIP3   OH225475   3.622   1.490  18.801 -0.4717  0.5458 -0.1751
  427TIP3    H125476   3.652   1.543  18.727  1.4533  1.7615  1.3937
  427TIP3    H225477   3.555   1.543  18.844  0.7395  1.3101  0.8124
  428TIP3   OH225478   2.290   3.642  20.164  0.3175 -0.2159  0.0481
  428TIP3    H125479   2.275   3.628  20.071  0.1835  2.7761 -0.4769
  428TIP3    H225480   2.211   3.609  20.207  0.6921 -2.2888 -0.7776
  429TIP3   OH225481   0.998   1.792  16.742 -0.2545  0.0653 -0.0305
  429TIP3    H125482   1.013   1.821  16.652 -1.1397  0.1752 -0.1500
  429TIP3    H225483   0.998   1.872  16.794 -0.8276  0.1054 -0.0910
  430TIP3   OH225484   4.089   1.488  19.061 -0.7013  0.2585 -0.2024
  430TIP3    H125485   4.039   1.426  19.115 -2.0384  1.3779 -0.1074
  430TIP3    H225486   4.065   1.466  18.971  0.8547 -1.0288 -0.3630
  431TIP3   OH225487   1.345   5.626  17.854 -0.2685  0.1101  0.1777
  431TIP3    H125488   1.281   5.617  17.925 -0.4964  0.7497  0.0616
  431TIP3    H225489   1.388   5.541  17.850  0.3473  0.3179  1.6581
  432TIP3   OH225490   4.459   3.184  19.545  0.2900  0.8813 -0.2907
  432TIP3    H125491   4.533   3.176  19.485  0.1629 -2.1375 -0.2139
  432TIP3    H225492   4.382   3.179  19.489  0.1376  1.4376 -0.1385
  433TIP3   OH225493   2.486   1.976  19.451  0.2135  0.4583  0.0693
  433TIP3    H125494   2.470   1.915  19.523 -0.5791  0.0062 -0.4712
  433TIP3    H225495   2.524   1.922  19.382 -0.1768  0.6367 -0.2910
  434TIP3   OH225496   4.109   0.369  18.636  0.9274  0.2255 -0.0269
  434TIP3    H125497   4.146   0.384  18.548  0.0309  0.2453 -0.4109
  434TIP3    H225498   4.129   0.278  18.654  0.7040  0.0855 -0.4609
  435TIP3   OH225499   3.886   4.349  18.620 -0.0706  0.2056 -0.2979
  435TIP3    H125500   3.836   4.409  18.675  0.6633 -0.8399  1.5982
  435TIP3    H225501   3.824   4.278  18.600 -0.2022  0.3563 -0.4253
  436TIP3   OH225502   2.219   2.145  19.750  0.1075  0.6463 -0.4339
  436TIP3    H125503   2.132   2.149  19.791 -0.0293  0.5989 -0.7203
  436TIP3    H225504   2.270   2.089  19.808  0.0928  1.0675 -0.0011
  437TIP3   OH225505   5.324   0.487  17.582  0.0763  0.1680 -0.1981
  437TIP3    H125506   5.414   0.459  17.568  0.4508  0.0947  2.0667
  437TIP3    H225507   5.331   0.581  17.601 -0.2244  0.0007  0.7732
  438TIP3   OH225508   2.030   3.155  16.743  0.2876 -0.1984 -0.1197
  438TIP3    H125509   2.050   3.207  16.666 -2.2707  0.3982 -0.4769
  438TIP3    H225510   2.010   3.068  16.709  1.8735 -0.7373  0.2148
  439TIP3   OH225511   6.369   0.129  20.144  0.6210  0.6547 -0.3308
  439TIP3    H125512   6.366   0.058  20.080 -0.3703  0.9375 -0.6123
  439TIP3    H225513   6.280   0.136  20.177  0.8432  1.3645  0.1418
  440TIP3   OH225514   5.467   3.652  20.185  0.1147  0.3766 -0.6322
  440TIP3    H125515   5.526   3.636  20.111 -1.2382 -1.2007 -1.4261
  440TIP3    H225516   5.379   3.639  20.149 -0.5722 -0.6387  1.3044
  441TIP3   OH225517   3.815   2.568  18.057  0.6076 -0.3885 -0.2479
  441TIP3    H125518   3.792   2.591  18.147  1.1496  0.2719 -0.2637
  441TIP3    H225519   3.742   2.599  18.004  0.3842 -0.5875 -0.0558
  442TIP3   OH225520   4.974   1.134  18.033 -0.0579  0.4916  0.2057
  442TIP3    H125521   4.967   1.183  18.115 -1.1592  3.1809 -1.3965
  442TIP3    H225522   4.889   1.092  18.023 -0.1135  0.6137  0.1674
  443TIP3   OH225523   2.255   4.425  17.473 -0.0997 -0.0434 -0.2746
  443TIP3    H125524   2.265   4.436  17.378  1.3942 -0.3710 -0.1909
  443TIP3    H225525   2.260   4.514  17.508  1.6784 -0.0588 -0.3663
  444TIP3   OH225526   0.671   0.279  20.331  0.6075 -0.3404  0.2977
  444TIP3    H125527   0.710   0.362  20.303 -0.2739  1.1595  3.0901
  444TIP3    H225528   0.746   0.221  20.345  1.6005  1.1875  1.7064
  445TIP3   OH225529   6.220   2.220  19.381  0.1659 -0.1587 -0.3508
  445TIP3    H125530   6.178   2.154  19.436 -0.8093 -0.0291 -0.9217
  445TIP3    H225531   6.240   2.292  19.441  2.1642 -1.3355  0.4895
  446TIP3   OH225532   2.586   2.426  20.129  0.0225  0.0314 -0.3011
  446TIP3    H125533   2.570   2.507  20.079  2.0184 -0.0727 -1.2003
  446TIP3    H225534   2.651   2.452  20.195 -0.0446 -0.6120  0.0190
  447TIP3   OH225535   1.081   1.687  19.798  0.1532 -0.1228  0.0383
  447TIP3    H125536   1.105   1.720  19.885  1.0583 -1.1559  0.2053
  447TIP3    H225537   1.159   1.699  19.745  1.6194 -4.3171  0.8144
  448TIP3   OH225538   3.512   6.024  19.149 -0.1616  0.2522 -0.0860
  448TIP3    H125539   3.527   6.066  19.064  0.1410 -0.7022 -0.5188
  448TIP3    H225540   3.479   5.937  19.127  1.1206 -0.4751  0.7401
  449TIP3   OH225541   4.272   3.778  18.866  0.2009 -0.0463 -0.7778
  449TIP3    H125542   4.363   3.747  18.867 -0.4529 -2.1472  0.9317
  449TIP3    H225543   4.257   3.811  18.955 -1.1420 -1.1746 -0.5618
  450TIP3   OH225544   4.761   4.294  18.764  0.0691 -0.0032  0.5441
  450TIP3    H125545   4.667   4.291  18.751  0.0389 -1.8630  0.9071
  450TIP3    H225546   4.773   4.301  18.859  0.2730 -0.6539  0.5756
  451TIP3   OH225547   4.038   2.633  20.122  0.2164  0.1090  0.4275
  451TIP3    H125548   4.025   2.650  20.028 -0.0237  0.2423  0.4825
  451TIP3    H225549   4.126   2.596  20.128  0.0347 -0.3971  0.0879
  452TIP3   OH225550   4.885   1.362  16.858  0.3808  0.0313  0.0710
  452TIP3    H125551   4.925   1.284  16.899  0.4439 -0.1281 -0.2933
  452TIP3    H225552   4.916   1.360  16.768 -2.1752 -1.3339 -0.8588
  453TIP3   OH225553   3.184   3.985  17.704 -0.1713  0.5762  0.2864
  453TIP3    H125554   3.239   4.013  17.631  0.3726 -0.8294  0.1284
  453TIP3    H225555   3.103   4.036  17.693  0.3276  1.2109 -0.6381
  454TIP3   OH225556   1.976   4.080  18.255 -0.1075 -0.0034  0.2230
  454TIP3    H125557   2.064   4.049  18.277 -0.7007 -1.2098  1.0027
  454TIP3    H225558   1.919   4.038  18.320 -1.4502 -0.4487 -1.1938
  455TIP3   OH225559   2.589   6.570  18.708 -0.2463  0.0873  0.0003
  455TIP3    H125560   2.596   6.528  18.794 -0.7370 -3.8817 -1.6911
  455TIP3    H225561   2.677   6.606  18.692  0.1122  0.0872  1.7466
  456TIP3   OH225562   3.798   0.605  17.151 -0.0298  0.2598  0.2759
  456TIP3    H125563   3.876   0.634  17.104 -0.7869  0.5422 -0.8352
  456TIP3    H225564   3.829   0.534  17.207  0.9563  0.1361 -0.4025
  457TIP3   OH225565   4.508   5.608  17.412 -0.7071 -0.3640 -0.1422
  457TIP3    H125566   4.539   5.576  17.328 -1.3850  0.7577 -0.8471
  457TIP3    H225567   4.531   5.701  17.413  0.0288 -0.5293  1.2727
  458TIP3   OH225568   3.575   5.830  18.798 -0.3305 -0.3662 -0.3323
  458TIP3    H125569   3.628   5.903  18.829 -1.4945  0.5227 -0.3459
  458TIP3    H225570   3.634   5.755  18.797  0.7332  0.4465  0.2642
  459TIP3   OH225571   1.560   6.457  18.990  0.1281 -0.2731  0.5394
  459TIP3    H125572   1.574   6.367  18.961  0.2722 -0.3260  0.7765
  459TIP3    H225573   1.473   6.479  18.956  0.9081  0.2047 -1.2815
  460TIP3   OH225574   5.103   4.673  18.234 -0.2025 -0.9227  0.1778
  460TIP3    H125575   5.092   4.768  18.240 -0.2896 -0.9902  1.2448
  460TIP3    H225576   5.028   4.637  18.282 -1.1197 -1.5868 -1.6462
  461TIP3   OH225577   2.019   2.238  19.940  0.6425  0.4429 -0.0881
  461TIP3    H125578   1.963   2.299  19.986 -1.3804 -0.7195 -0.8679
  461TIP3    H225579   2.085   2.212  20.004 -1.2615 -0.0965  1.7589
  462TIP3   OH225580   3.489   3.816  19.383 -0.2098  0.3727  0.2284
  462TIP3    H125581   3.539   3.867  19.447 -0.4943  0.2195  0.5807
  462TIP3    H225582   3.417   3.779  19.434 -0.6763  0.5790 -0.2666
  463TIP3   OH225583   3.215   5.859  17.987 -0.3821  0.4508 -0.9649
  463TIP3    H125584   3.164   5.809  17.923 -0.0102  0.6699 -1.4362
  463TIP3    H225585   3.291   5.890  17.938  0.1801  0.1784 -0.2784
  464TIP3   OH225586   4.610   5.663  20.003 -0.2126 -0.1416 -0.7000
  464TIP3    H125587   4.633   5.729  19.938  0.0202  1.9908  1.3936
  464TIP3    H225588   4.518   5.680  20.023  0.4892  1.3579  1.6693
  465TIP3   OH225589   1.204   3.015  20.317 -0.4223  0.1080  0.1941
  465TIP3    H125590   1.135   3.055  20.370 -1.1398 -0.2207 -0.4608
  465TIP3    H225591   1.196   3.058  20.232 -0.0802 -0.2167 -0.0008
  466TIP3   OH225592   6.266   2.978  19.541 -0.0379 -0.2336  0.1126
  466TIP3    H125593   6.318   3.055  19.565  0.0720  0.1787 -1.3525
  466TIP3    H225594   6.330   2.907  19.537  0.2944  0.0964 -0.8243
  467TIP3   OH225595   4.446   4.630  18.484  0.6674  0.2341  0.3459
  467TIP3    H125596   4.529   4.633  18.438 -0.3286  1.6782 -1.5238
  467TIP3    H225597   4.416   4.540  18.475  1.5311 -0.0376  0.1205
  468TIP3   OH225598   5.600   3.245  18.879  0.0137 -0.0250 -0.1324
  468TIP3    H125599   5.671   3.266  18.819 -0.0959  1.6168  0.2649
  468TIP3    H225600   5.522   3.239  18.824  0.4212 -1.9358 -0.5865
  469TIP3   OH225601   3.601   1.161  17.833 -0.3618  0.4403 -0.1228
  469TIP3    H125602   3.617   1.160  17.738 -0.8978  2.0247 -0.2709
  469TIP3    H225603   3.607   1.070  17.860  2.9012  0.2504 -1.1472
  470TIP3   OH225604   0.270   1.403  20.061 -0.5112 -0.3213  0.0445
  470TIP3    H125605   0.258   1.404  19.966 -0.1991  0.4772  0.0010
  470TIP3    H225606   0.355   1.361  20.074  0.5329  1.5774 -0.2016
  471TIP3   OH225607   5.813   0.361  17.235  0.3774  0.2430  0.0846
  471TIP3    H125608   5.843   0.363  17.326 -0.1536 -0.7566  0.2915
  471TIP3    H225609   5.814   0.453  17.208 -1.5696  0.8350  1.8116
  472TIP3   OH225610   6.676   1.294  18.334 -0.2968  0.4010  0.0606
  472TIP3    H125611   6.754   1.301  18.390 -0.7711 -1.5644  1.0441
  472TIP3    H225612   6.639   1.209  18.356 -2.1721  0.8677 -1.1386
  473TIP3   OH225613   6.074   0.685  19.018 -0.0819 -0.4801 -0.4618
  473TIP3    H125614   6.000   0.642  18.976 -1.1263 -1.1486  1.8845
  473TIP3    H225615   6.151   0.643  18.980 -1.0318 -3.1875  0.3676
  474TIP3   OH225616   3.711   1.841  18.114 -0.7863 -0.5188  0.1899
  474TIP3    H125617   3.635   1.841  18.173  0.7233 -0.4667  2.2504
  474TIP3    H225618   3.765   1.914  18.144  1.4695 -2.2975  0.7855
  475TIP3   OH225619   1.393   5.745  19.241 -0.1142 -0.2557 -0.5108
  475TIP3    H125620   1.406   5.822  19.296  1.4390 -0.2301 -0.8718
  475TIP3    H225621   1.364   5.677  19.302 -3.2057  0.9911 -0.4347
  476TIP3   OH225622   4.115   1.809  19.398 -0.5324  0.2836  0.1316
  476TIP3    H125623   4.098   1.722  19.434  1.4656 -0.9512 -1.6530
  476TIP3    H225624   4.195   1.838  19.440 -0.8698  1.0215  0.2830
  477TIP3   OH225625   6.709   0.085  17.965 -0.1856 -0.5038 -0.2576
  477TIP3    H125626   6.649   0.024  18.008 -0.7894 -0.4431 -0.9913
  477TIP3    H225627   6.744   0.138  18.037  2.5471 -3.4750  0.8343
  478TIP3   OH225628   5.916   4.436  18.322  0.3762 -0.3449  0.2435
  478TIP3    H125629   5.964   4.480  18.253  0.0537  0.5696  0.5868
  478TIP3    H225630   5.954   4.468  18.404  0.2266 -0.8061  0.5049
  479TIP3   OH225631   4.056   6.276  17.316 -0.2428  0.3798  0.3931
  479TIP3    H125632   3.993   6.318  17.258 -2.0844  0.2828  2.2443
  479TIP3    H225633   4.024   6.293  17.404  1.8738 -0.4083  1.3891
  480TIP3   OH225634   5.264   2.096  19.450 -0.6249 -1.0624  0.3538
  480TIP3    H125635   5.357   2.116  19.455 -1.0089  1.6540 -1.1084
  480TIP3    H225636   5.232   2.108  19.539  0.2643 -1.1591  0.6956
  481TIP3   OH225637   5.720   0.180  18.998  0.2681  0.2511 -0.2286
  481TIP3    H125638   5.699   0.087  18.990 -0.7481  0.1314  2.7659
  481TIP3    H225639   5.764   0.188  19.083 -0.2838  2.5847 -0.0954
  482TIP3   OH225640   1.073   2.403  18.584  0.0065 -0.2273 -0.4446
  482TIP3    H125641   1.108   2.319  18.614 -0.3174 -0.1056  0.2939
  482TIP3    H225642   1.087   2.463  18.657  3.2020  1.2419 -2.0847
  483TIP3   OH225643   0.048   2.272  19.478 -0.0549 -0.2091 -0.4216
  483TIP3    H125644   0.089   2.320  19.407  0.8948  0.4990  0.5819
  483TIP3    H225645   0.056   2.180  19.453 -0.0403  0.0413 -1.3748
  484TIP3   OH225646   5.989   6.319  19.767  0.6144 -0.2377 -0.1432
  484TIP3    H125647   5.940   6.388  19.812  0.0583 -0.3946 -0.5006
  484TIP3    H225648   5.925   6.250  19.751  1.1707 -0.8495  0.2263
  485TIP3   OH225649   3.961   5.675  17.874 -0.2842 -0.3213  0.1449
  485TIP3    H125650   4.005   5.759  17.860 -0.3672  0.1922  2.5139
  485TIP3    H225651   3.878   5.698  17.915 -0.0702 -1.5553  1.3493
  486TIP3   OH225652   2.771   0.794  19.251 -0.0736 -0.0504  0.6989
  486TIP3    H125653   2.767   0.863  19.186  0.7509 -0.8599 -0.2344
  486TIP3    H225654   2.736   0.834  19.331 -2.6888  0.4993 -0.6088
  487TIP3   OH225655   4.897   0.888  20.438  0.0928 -0.4449  0.2425
  487TIP3    H125656   4.938   0.803  20.424  0.2310 -0.3260 -0.0938
  487TIP3    H225657   4.969   0.947  20.461  0.2864 -0.0126 -1.3126
  488TIP3   OH225658   3.055   4.911  16.476 -0.3750 -0.2582 -0.0081
  488TIP3    H125659   3.015   4.989  16.439 -1.1002 -1.0507 -0.9378
  488TIP3    H225660   2.991   4.842  16.462  1.0481 -1.4497 -1.0093
  489TIP3   OH225661   2.273   4.797  16.928  0.2321  0.2713 -0.1924
  489TIP3    H125662   2.292   4.718  16.977  0.8561  1.4186  1.5140
  489TIP3    H225663   2.179   4.793  16.911  0.0581 -0.3250  0.8376
  490TIP3   OH225664   4.584   0.646  18.035 -0.1168 -0.2277 -0.7621
  490TIP3    H125665   4.594   0.588  17.959 -1.5356  0.3432 -1.4301
  490TIP3    H225666   4.643   0.610  18.101  1.2728 -0.6554 -2.1787
  491TIP3   OH225667   4.984   0.391  18.738 -0.0643 -0.0388  0.5036
  491TIP3    H125668   4.899   0.416  18.776  0.2177  4.8946 -1.2599
  491TIP3    H225669   5.049   0.425  18.800  0.4709  0.5063 -0.3290
  492TIP3   OH225670   1.526   1.945  17.612  0.0806 -0.3249 -0.0981
  492TIP3    H125671   1.464   2.018  17.610  1.7070  1.1285 -0.1579
  492TIP3    H225672   1.607   1.983  17.647  1.1411 -1.9828 -0.6044
  493TIP3   OH225673   0.741   5.080  17.383 -0.5795 -0.3137  0.0345
  493TIP3    H125674   0.719   5.108  17.295 -0.0625  0.7412  0.2222
  493TIP3    H225675   0.825   5.034  17.374  1.6784  3.3098  0.4227
  494TIP3   OH225676   2.375   0.212  19.456  0.2053 -0.4598 -0.1031
  494TIP3    H125677   2.469   0.209  19.479  0.0874  0.0763  0.4772
  494TIP3    H225678   2.351   0.120  19.444  1.6974 -0.5337 -4.1618
  495TIP3   OH225679   4.464   3.254  19.130 -0.2725  0.1127 -0.3891
  495TIP3    H125680   4.379   3.285  19.161 -0.0839 -0.0903  0.3479
  495TIP3    H225681   4.445   3.171  19.085 -0.6776  0.9009 -1.7277
  496TIP3   OH225682   4.074   4.046  17.881  0.2440 -0.4166 -0.1361
  496TIP3    H125683   4.103   4.113  17.943 -1.2839  0.8008 -0.6783
  496TIP3    H225684   4.126   4.064  17.802  0.4874 -0.4415  0.0179
  497TIP3   OH225685   1.194   2.898  19.536  0.8498  0.2519  0.5017
  497TIP3    H125686   1.210   2.867  19.626  0.3114  1.3854  1.0123
  497TIP3    H225687   1.250   2.843  19.482  2.0454  0.2792  1.6465
  498TIP3   OH225688   3.945   1.274  18.380 -0.0770  0.0863 -0.0991
  498TIP3    H125689   4.011   1.334  18.344 -0.9282  1.3074  0.3207
  498TIP3    H225690   3.989   1.189  18.381  0.4316  0.1933 -2.8460
  499TIP3   OH225691   0.564   5.130  18.808 -0.3011  0.2486  0.0751
  499TIP3    H125692   0.613   5.088  18.737 -0.0703  1.6085 -0.5968
  499TIP3    H225693   0.630   5.149  18.875 -0.1311  0.9034 -0.2726
  500TIP3   OH225694   3.018   1.781  17.623  0.3237  0.4209  0.1601
  500TIP3    H125695   3.084   1.808  17.688 -0.1594 -0.4375  1.0303
  500TIP3    H225696   3.052   1.815  17.540  1.1570  1.2052  0.7882
  501TIP3   OH225697   3.391   6.487  18.833  0.4016 -0.1817  0.2805
  501TIP3    H125698   3.313   6.487  18.889  1.2477  0.3910  1.5004
  501TIP3    H225699   3.357   6.476  18.745 -1.0413 -0.2473  0.8170
  502TIP3   OH225700   1.208   1.527  17.317  0.3224 -0.0952  0.3510
  502TIP3    H125701   1.178   1.442  17.284  1.0175 -0.4654  0.6540
  502TIP3    H225702   1.247   1.570  17.241  0.2253 -0.1645  0.2608
  503TIP3   OH225703   2.671   5.188  17.600  0.3672 -0.2644  0.0065
  503TIP3    H125704   2.739   5.178  17.667  0.3306  0.7779  0.2123
  503TIP3    H225705   2.677   5.108  17.548  1.7145 -0.2151  0.0539
  504TIP3   OH225706   6.635   3.244  17.166 -0.2127  0.5353 -0.0602
  504TIP3    H125707   6.703   3.243  17.099 -1.5687  1.4283 -1.5238
  504TIP3    H225708   6.575   3.174  17.141  0.3811 -0.6140  1.5293
  505TIP3   OH225709   5.837   5.746  19.782  0.3606 -0.6468 -0.2501
  505TIP3    H125710   5.891   5.820  19.809 -0.4635  0.1365 -0.6879
  505TIP3    H225711   5.784   5.724  19.859  0.7629 -0.9381 -0.0515
  506TIP3   OH225712   1.343   0.416  17.533 -0.3832 -0.2895  0.6931
  506TIP3    H125713   1.292   0.346  17.492  0.1214  0.3350 -1.0822
  506TIP3    H225714   1.315   0.496  17.488  1.1782  0.2465  0.6299
  507TIP3   OH225715   2.045   0.730  19.257 -0.0689  0.0430  0.2213
  507TIP3    H125716   2.060   0.693  19.343  0.1182 -0.3574  0.0167
  507TIP3    H225717   2.077   0.820  19.264  2.3067 -0.7071 -0.1467
  508TIP3   OH225718   6.322   5.188  16.541 -0.3510 -0.3119  0.1777
  508TIP3    H125719   6.228   5.206  16.545 -0.2807 -0.1741  2.9863
  508TIP3    H225720   6.363   5.273  16.557  0.2509 -0.5206 -0.2124
  509TIP3   OH225721   5.421   5.159  18.863  0.0323 -0.2399  0.5780
  509TIP3    H125722   5.455   5.192  18.946  1.1065 -1.0566  0.4895
  509TIP3    H225723   5.385   5.235  18.819 -0.6761  0.1910  1.8374
  510TIP3   OH225724   5.423   0.404  17.277  0.2161  0.0483 -0.5447
  510TIP3    H125725   5.459   0.413  17.365 -0.0887 -1.7338 -0.1941
  510TIP3    H225726   5.434   0.311  17.256 -1.4908  0.0336 -1.6019
  511TIP3   OH225727   2.828   5.579  18.250  0.0731 -0.3093 -0.2790
  511TIP3    H125728   2.847   5.496  18.293 -0.0435  0.2162  0.7998
  511TIP3    H225729   2.764   5.556  18.182 -1.7383 -0.7901  1.4758
  512TIP3   OH225730   1.496   4.778  19.834  0.9594  0.2494  0.8153
  512TIP3    H125731   1.528   4.687  19.835  0.3826 -0.0041 -0.6201
  512TIP3    H225732   1.404   4.771  19.860  0.5500  0.2196 -0.5330
  513TIP3   OH225733   2.934   6.168  18.877  0.1385 -0.7480 -0.3002
  513TIP3    H125734   2.971   6.139  18.793 -0.6983  0.9520 -1.3125
  513TIP3    H225735   2.922   6.087  18.927  2.1044 -1.6566 -1.1899
  514TIP3   OH225736   4.921   4.832  17.339  0.1442  0.1197  0.3062
  514TIP3    H125737   4.864   4.909  17.337  1.1823  0.9029  0.2275
  514TIP3    H225738   4.884   4.773  17.273 -0.5015  0.6562  0.1746
  515TIP3   OH225739   0.593   4.862  19.884 -0.4684 -0.0214 -0.2678
  515TIP3    H125740   0.518   4.825  19.929  0.7702 -1.0883  1.0077
  515TIP3    H225741   0.669   4.818  19.923  0.7998  0.6626 -1.8327
  516TIP3   OH225742   5.486   0.284  19.327  0.1440  0.7280  0.1279
  516TIP3    H125743   5.546   0.209  19.328  0.4842  0.9983  1.6836
  516TIP3    H225744   5.533   0.351  19.278  0.6146  0.5344  0.3041
  517TIP3   OH225745   2.321   5.662  18.264 -0.0115 -0.6654 -0.2720
  517TIP3    H125746   2.271   5.736  18.229 -0.2366 -2.5424 -4.5498
  517TIP3    H225747   2.257   5.592  18.275  0.5864 -0.9928  1.3613
  518TIP3   OH225748   1.172   5.163  17.633  0.0071 -0.1753 -0.3691
  518TIP3    H125749   1.198   5.073  17.613 -0.7485 -0.2449 -1.0871
  518TIP3    H225750   1.225   5.217  17.575 -0.7400 -0.2626 -1.1478
  519TIP3   OH225751   0.447   0.372  20.208 -0.4626 -0.6017 -0.1437
  519TIP3    H125752   0.362   0.346  20.245 -0.0873  1.7917  2.7970
  519TIP3    H225753   0.511   0.325  20.261  0.0599 -0.1525 -0.3675
  520TIP3   OH225754   3.894   5.595  19.457  0.1295  0.1355 -0.6531
  520TIP3    H125755   3.853   5.663  19.404 -2.9297 -0.4821  0.7068
  520TIP3    H225756   3.874   5.513  19.412  2.7447 -0.0654 -1.6304
  521TIP3   OH225757   5.987   2.747  19.974  0.0188  0.1239 -0.1821
  521TIP3    H125758   5.958   2.838  19.982  1.8733  0.6791  1.1335
  521TIP3    H225759   6.053   2.749  19.905 -0.4795 -0.3975 -0.6834
  522TIP3   OH225760   5.388   4.724  17.519  0.1953  0.3931  0.4520
  522TIP3    H125761   5.358   4.636  17.497 -1.2168  0.7602  0.7473
  522TIP3    H225762   5.307   4.776  17.523  1.0259  1.7642  0.0040
  523TIP3   OH225763   2.943   3.868  19.578  0.8734 -0.8969  0.1662
  523TIP3    H125764   2.880   3.800  19.552 -0.0610 -0.0851  0.2745
  523TIP3    H225765   2.935   3.935  19.511  2.3002 -1.1767 -0.3184
  524TIP3   OH225766   1.169   2.549  18.112  0.1071  0.2516  0.2668
  524TIP3    H125767   1.202   2.599  18.036  0.7463  0.7378  0.8515
  524TIP3    H225768   1.248   2.522  18.159 -0.2294 -1.3507 -0.0390
  525TIP3   OH225769   0.853   5.491  18.339  0.1346 -0.2567  0.0986
  525TIP3    H125770   0.896   5.406  18.346  0.4059 -0.2832 -1.5788
  525TIP3    H225771   0.874   5.535  18.422  0.9637 -1.3730  0.5081
  526TIP3   OH225772   4.780   4.907  18.770 -0.2604  0.5903 -0.4399
  526TIP3    H125773   4.781   4.812  18.752 -0.5745  0.6890 -1.0142
  526TIP3    H225774   4.694   4.936  18.741 -0.4457  0.9314  0.4309
  527TIP3   OH225775   6.560   6.011  20.014  0.6480  0.0766 -0.1408
  527TIP3    H125776   6.480   6.009  20.067  0.3504 -2.5654 -0.5450
  527TIP3    H225777   6.535   6.054  19.933  0.0483  0.5804  0.2994
  528TIP3   OH225778   5.957   4.181  19.949  0.1060  0.6900  0.1487
  528TIP3    H125779   6.042   4.223  19.963  1.6577 -2.0181 -0.4273
  528TIP3    H225780   5.964   4.098  19.994 -3.1660  1.2817  2.0106
  529TIP3   OH225781   2.339   2.282  18.834 -0.4703  0.0526 -0.0471
  529TIP3    H125782   2.413   2.319  18.882 -2.0559 -1.0666  3.6832
  529TIP3    H225783   2.365   2.191  18.816 -0.2299  0.2116 -0.5246
  530TIP3   OH225784   1.807   3.371  18.939 -0.0555  0.2970 -0.1452
  530TIP3    H125785   1.857   3.422  19.002  1.7486 -1.4607 -0.0495
  530TIP3    H225786   1.847   3.391  18.854 -0.1416 -0.0392 -0.2662
  531TIP3   OH225787   1.088   5.411  19.368  0.2073  0.1251 -0.1477
  531TIP3    H125788   1.043   5.472  19.426  1.7522 -1.6489  3.2223
  531TIP3    H225789   1.180   5.438  19.371  0.4075 -0.3430 -1.3772
  532TIP3   OH225790   3.931   0.822  18.618 -0.4766 -0.2998 -0.2703
  532TIP3    H125791   3.999   0.886  18.597 -0.9636  0.5714  0.7085
  532TIP3    H225792   3.849   0.871  18.607 -0.9750 -1.3554 -1.5092
  533TIP3   OH225793   0.772   2.121  18.334  1.3382 -0.2233  0.4442
  533TIP3    H125794   0.825   2.163  18.266 -0.2892  1.6376  0.2058
  533TIP3    H225795   0.695   2.178  18.342 -1.0674 -3.1506  0.1611
  534TIP3   OH225796   6.286   5.798  17.290  0.3406 -0.0390 -0.4753
  534TIP3    H125797   6.240   5.729  17.243 -1.3256  0.5066  0.2571
  534TIP3    H225798   6.362   5.818  17.236  1.1594 -2.7649 -0.4463
  535TIP3   OH225799   3.241   6.674  19.267  0.1412 -0.1098 -0.2492
  535TIP3    H125800   3.276   6.733  19.334  2.7893  1.8513 -3.0967
  535TIP3    H225801   3.277   6.707  19.185 -2.4999 -2.6721 -2.6615
  536TIP3   OH225802   2.380   5.032  18.405  0.0210  0.0895 -0.2471
  536TIP3    H125803   2.344   5.116  18.432 -2.3858 -1.4060  1.5917
  536TIP3    H225804   2.314   4.996  18.345  0.4909 -0.9196 -0.1744
  537TIP3   OH225805   1.167   4.788  18.827 -0.7654 -0.1409  0.3561
  537TIP3    H125806   1.248   4.740  18.809 -1.8656 -1.3598 -1.8112
  537TIP3    H225807   1.174   4.813  18.919  2.0509 -0.1765  0.2419
  538TIP3   OH225808   2.951   3.757  18.090  0.4625  0.1184  0.1400
  538TIP3    H125809   2.944   3.662  18.074  1.7524  0.0044  0.1069
  538TIP3    H225810   2.975   3.794  18.005 -1.7864  0.7426 -0.2820
  539TIP3   OH225811   1.437   3.805  17.376  0.1608 -0.1034  0.6559
  539TIP3    H125812   1.453   3.748  17.300  0.8914  0.3985  0.4256
  539TIP3    H225813   1.398   3.884  17.339 -0.0499 -0.1012  0.8796
  540TIP3   OH225814   0.544   2.525  17.923  0.6287 -0.4702 -0.0496
  540TIP3    H125815   0.491   2.597  17.888 -0.8598 -2.1883 -1.5497
  540TIP3    H225816   0.628   2.532  17.876  0.9499  0.9436  0.6892
  541TIP3   OH225817   4.876   4.130  17.617 -0.2542  0.0399 -0.1885
  541TIP3    H125818   4.803   4.083  17.578  0.1486  0.7727 -1.9205
  541TIP3    H225819   4.876   4.103  17.709 -2.1182 -0.6758 -0.3563
  542TIP3   OH225820   1.772   5.108  18.864  0.0676  1.0024  0.0517
  542TIP3    H125821   1.729   5.024  18.876  0.5772  0.7029 -0.1567
  542TIP3    H225822   1.744   5.137  18.777 -0.0906  1.0359  0.1139
  543TIP3   OH225823   1.838   2.969  17.066  0.6968 -1.0952  0.0225
  543TIP3    H125824   1.759   2.915  17.068  0.2330 -0.4527 -0.5102
  543TIP3    H225825   1.900   2.920  17.012 -0.3412 -0.2921 -1.9821
  544TIP3   OH225826   1.970   5.125  17.763 -0.1007 -0.6352  0.6007
  544TIP3    H125827   1.956   5.091  17.675  0.8599 -0.1661  0.2635
  544TIP3    H225828   1.996   5.216  17.751 -1.2984 -0.1506  1.4440
  545TIP3   OH225829   3.948   2.158  18.039  0.0744  0.4163  0.5126
  545TIP3    H125830   3.869   2.105  18.027  0.3544 -0.2759  1.5674
  545TIP3    H225831   3.929   2.240  17.994 -0.6888 -0.2732 -0.4595
  546TIP3   OH225832   4.195   2.308  18.110  0.4773  0.2748 -0.3703
  546TIP3    H125833   4.251   2.297  18.187 -0.2024 -1.3979 -0.0683
  546TIP3    H225834   4.137   2.380  18.132 -1.5352 -1.8855  1.8899
  547TIP3   OH225835   5.640   1.207  20.378 -0.1164  1.0865  0.7822
  547TIP3    H125836   5.598   1.293  20.376  0.8181  1.7588 -4.4457
  547TIP3    H225837   5.726   1.222  20.339  0.2172 -2.1157 -0.0048
  548TIP3   OH225838   2.245   3.264  17.919 -0.5175  0.4628 -0.5618
  548TIP3    H125839   2.317   3.327  17.916  1.0931 -1.1985  1.1050
  548TIP3    H225840   2.167   3.319  17.931  0.7253  2.1775  0.1374
  549TIP3   OH225841   5.923   2.603  17.820  0.1122 -0.2455  0.1017
  549TIP3    H125842   5.914   2.509  17.807 -1.1786 -0.2546  0.9027
  549TIP3    H225843   6.018   2.618  17.825  0.3109 -1.6316  0.8243
  550TIP3   OH225844   2.954   3.603  19.292  0.2229 -0.0060  0.3174
  550TIP3    H125845   2.896   3.619  19.367 -0.1389 -2.1475  0.5639
  550TIP3    H225846   2.913   3.530  19.245  1.6250 -0.1728 -0.7165
  551TIP3   OH225847   0.636   4.335  18.819  0.5879 -0.1889 -0.5634
  551TIP3    H125848   0.660   4.367  18.732  0.6760 -1.5539 -1.0644
  551TIP3    H225849   0.713   4.285  18.848 -0.4750 -2.1005 -0.9166
  552TIP3   OH225850   3.890   4.977  18.007  0.4109 -0.2151 -0.2829
  552TIP3    H125851   3.904   4.908  18.073  4.0581  0.3363 -0.2642
  552TIP3    H225852   3.929   5.056  18.047  0.0812  0.8328 -1.9513
  553TIP3   OH225853   5.636   5.105  17.451  0.2639  0.1432  0.5198
  553TIP3    H125854   5.632   5.197  17.427  1.2124  0.0105 -0.1933
  553TIP3    H225855   5.721   5.075  17.419  0.5579 -0.6486  1.9564
  554TIP3   OH225856   5.758   3.772  16.532 -0.6961 -0.4158 -0.0679
  554TIP3    H125857   5.763   3.867  16.530 -0.5132 -0.4339 -0.6892
  554TIP3    H225858   5.767   3.745  16.440  0.3233 -1.0879  0.2134
  555TIP3   OH225859   6.609   2.429  17.507 -0.0094 -0.0743  0.5145
  555TIP3    H125860   6.598   2.376  17.586 -0.6233 -0.0476  0.4497
  555TIP3    H225861   6.700   2.412  17.480 -0.6834 -2.5037 -0.4935
  556TIP3   OH225862   1.445   1.816  18.958 -0.3941  0.2114  0.0927
  556TIP3    H125863   1.378   1.880  18.984 -0.0523  1.0225 -0.9142
  556TIP3    H225864   1.511   1.869  18.913  0.3118 -0.7552 -0.0308
  557TIP3   OH225865   2.276   1.793  19.753 -0.2298  0.0273 -0.1730
  557TIP3    H125866   2.341   1.787  19.682 -1.2763  0.9539 -1.2472
  557TIP3    H225867   2.192   1.776  19.710 -0.7609 -0.9286  1.1502
  558TIP3   OH225868   4.803   5.261  18.555 -0.1241 -0.0643  0.1796
  558TIP3    H125869   4.749   5.187  18.530  0.1518 -0.0549 -0.4700
  558TIP3    H225870   4.893   5.232  18.540 -0.0145  0.4082 -0.1035
  559TIP3   OH225871   1.185   2.235  18.755  0.8645  0.4779 -0.5070
  559TIP3    H125872   1.212   2.246  18.846  0.9870 -1.1384 -0.3067
  559TIP3    H225873   1.188   2.140  18.740 -0.2858  0.6018 -1.8459
  560TIP3   OH225874   3.651   2.119  19.222 -0.2167 -0.1982 -0.0100
  560TIP3    H125875   3.595   2.191  19.193  0.6067  0.6221  0.3840
  560TIP3    H225876   3.738   2.144  19.192  1.0244  1.4759  4.2652
  561TIP3   OH225877   4.881   4.202  19.738 -0.3760 -0.0536  0.5869
  561TIP3    H125878   4.966   4.222  19.699 -0.9216 -1.1371 -1.2674
  561TIP3    H225879   4.848   4.287  19.769 -0.2607  1.0846 -2.1207
  562TIP3   OH225880   1.446   4.105  19.681  0.2386  0.8896  0.2547
  562TIP3    H125881   1.461   4.199  19.695  2.1217  0.8914 -1.3392
  562TIP3    H225882   1.527   4.063  19.709 -0.1588 -0.1539 -0.1124
  563TIP3   OH225883   2.584   5.364  18.425  0.6976 -0.4589 -0.0987
  563TIP3    H125884   2.517   5.395  18.486 -0.9433 -0.0068 -2.0636
  563TIP3    H225885   2.666   5.374  18.474 -0.3999  1.1638  1.5420
  564TIP3   OH225886   1.924   3.760  18.019 -0.3315  0.3769 -0.5656
  564TIP3    H125887   2.008   3.759  17.973  1.0782  1.9035  1.7817
  564TIP3    H225888   1.879   3.837  17.984 -0.3444  0.1272 -1.1174
  565TIP3   OH225889   6.486   3.740  17.401 -0.0067  0.0949  0.0071
  565TIP3    H125890   6.485   3.774  17.311  0.0275  1.8939  0.6652
  565TIP3    H225891   6.569   3.770  17.437 -1.1225  1.6293  1.4438
  566TIP3   OH225892   4.013   0.337  19.502  0.3505 -0.1310  0.0987
  566TIP3    H125893   3.986   0.388  19.426  0.5874 -1.3765 -0.8532
  566TIP3    H225894   3.974   0.383  19.577 -2.0207 -0.2523 -0.9794
  567TIP3   OH225895   2.543   5.782  20.190  0.2321 -0.6720 -0.3686
  567TIP3    H125896   2.629   5.743  20.176  1.2179  1.2780 -0.1768
  567TIP3    H225897   2.562   5.869  20.225 -1.6642  1.0651 -3.1768
  568TIP3   OH225898   0.516   2.968  18.191  0.0419 -0.4022 -0.3133
  568TIP3    H125899   0.501   3.059  18.166  0.6189  0.8601  3.3190
  568TIP3    H225900   0.439   2.921  18.159  0.9939  0.6215 -4.7990
  569TIP3   OH225901   2.758   0.449  18.886  0.7614 -0.1644  0.0320
  569TIP3    H125902   2.768   0.384  18.956  0.4078  1.3644  1.5575
  569TIP3    H225903   2.673   0.428  18.846 -0.1949  0.4014  1.6808
  570TIP3   OH225904   0.188   3.411  18.108 -0.2732  0.8626  0.2743
  570TIP3    H125905   0.208   3.335  18.053  1.2514 -0.1976  2.1703
  570TIP3    H225906   0.095   3.403  18.128  0.0783 -1.1734  1.3458
  571TIP3   OH225907   2.235   2.240  18.490  0.4833  0.2260 -0.4514
  571TIP3    H125908   2.159   2.184  18.500  1.0754 -0.3304  1.2158
  571TIP3    H225909   2.227   2.305  18.559  1.1778  0.5686 -0.6833
  572TIP3   OH225910   5.533   5.664  19.692  0.3205  0.8101 -0.3505
  572TIP3    H125911   5.602   5.618  19.644  0.9046  2.1327 -0.8229
  572TIP3    H225912   5.556   5.756  19.685  0.0840  1.1035  1.9848
  573TIP3   OH225913   0.821   6.723  19.718  0.3292 -0.4440  0.6197
  573TIP3    H125914   0.779   6.709  19.803  0.7135 -0.6840  0.7736
  573TIP3    H225915   0.764   6.680  19.655 -0.4353  0.5074  0.6394
  574TIP3   OH225916   6.111   0.470  18.001 -0.5753  0.7103 -0.0288
  574TIP3    H125917   6.192   0.497  17.958 -0.0199 -0.3440  0.3097
  574TIP3    H225918   6.115   0.511  18.087 -1.2350  2.0450 -0.6052
  575TIP3   OH225919   2.143   3.101  18.559  0.1812  0.3565  0.0799
  575TIP3    H125920   2.056   3.133  18.586  1.4445  2.9828  1.4406
  575TIP3    H225921   2.143   3.111  18.464 -1.5887 -1.4066 -0.1567
  576TIP3   OH225922   1.014   4.587  17.416 -0.2652 -0.2599  0.5317
  576TIP3    H125923   0.927   4.594  17.378 -0.1720  0.1073  0.3866
  576TIP3    H225924   1.000   4.587  17.510 -0.5742 -2.0093  0.5289
  577TIP3   OH225925   5.816   6.026  18.718  0.2504  0.8408 -0.3594
  577TIP3    H125926   5.827   6.101  18.777  0.2734  1.2809 -0.9108
  577TIP3    H225927   5.904   6.008  18.685  0.4237 -0.1226  0.5892
  578TIP3   OH225928   1.432   0.893  18.709  0.0564  0.1411  0.1667
  578TIP3    H125929   1.400   0.979  18.682  0.4124  0.1810 -0.1386
  578TIP3    H225930   1.528   0.901  18.708  0.0898 -0.1071  0.6281
  579TIP3   OH225931   1.644   3.158  17.141  0.2454  0.4022  0.3082
  579TIP3    H125932   1.712   3.147  17.074  0.6933 -0.8367  0.9183
  579TIP3    H225933   1.646   3.075  17.190 -0.2284  1.1737  1.6920
  580TIP3   OH225934   0.517   0.815  19.106  0.6720 -0.1150  0.3395
  580TIP3    H125935   0.563   0.891  19.070  1.3843 -0.4838  0.4589
  580TIP3    H225936   0.578   0.742  19.093  1.2319 -0.1834  2.8265
  581TIP3   OH225937   5.835   1.592  20.191  0.5092 -0.4521  0.2872
  581TIP3    H125938   5.782   1.512  20.187  0.5308 -0.5613  1.8847
  581TIP3    H225939   5.771   1.662  20.209  0.8183 -0.5024  1.6271
  582TIP3   OH225940   1.232   6.505  19.582  0.1821 -0.0137  0.0862
  582TIP3    H125941   1.230   6.599  19.570  0.1259  0.3160  2.1875
  582TIP3    H225942   1.177   6.489  19.659  3.0498 -1.2686  2.1204
  583TIP3   OH225943   2.514   2.812  17.981  0.2816  0.3652 -0.0980
  583TIP3    H125944   2.559   2.802  18.065  1.7095  1.3927 -0.6956
  583TIP3    H225945   2.556   2.748  17.923  0.0652  0.4109 -0.3083
  584TIP3   OH225946   3.189   6.632  19.587  0.1958 -0.4466  0.0451
  584TIP3    H125947   3.155   6.595  19.506 -0.6813 -2.5054  1.2741
  584TIP3    H225948   3.261   6.689  19.559 -1.7447  1.0593 -2.3524
  585TIP3   OH225949   3.191   2.593  18.623  0.0624  0.1266  0.5943
  585TIP3    H125950   3.152   2.610  18.709 -2.0241  2.6600 -0.7117
  585TIP3    H225951   3.116   2.568  18.568  1.0773  0.2365 -0.8869
  586TIP3   OH225952   6.692   3.017  19.290  0.2634  0.4066 -0.5270
  586TIP3    H125953   6.621   2.991  19.348  0.0103  1.3740 -0.3859
  586TIP3    H225954   6.733   3.091  19.334  0.9763  0.2423 -0.9033
  587TIP3   OH225955   0.824   3.022  18.724  0.4251  0.7477 -0.3365
  587TIP3    H125956   0.773   3.103  18.722  1.0966  1.1737 -0.5890
  587TIP3    H225957   0.907   3.047  18.766  0.5733  0.1561 -0.2751
  588TIP3   OH225958   2.281   2.108  19.305 -0.0857 -0.1267  0.0953
  588TIP3    H125959   2.308   2.055  19.380 -1.8589 -1.7238 -0.3053
  588TIP3    H225960   2.332   2.188  19.313  1.6456 -1.2773  1.5661
  589TIP3   OH225961   3.288   3.466  18.592  0.0926  0.2273  0.1626
  589TIP3    H125962   3.369   3.427  18.558  0.3096 -0.0651  0.9875
  589TIP3    H225963   3.257   3.522  18.521  0.4921 -0.4156 -0.5365
  590TIP3   OH225964   5.683   5.136  20.030 -0.3534 -0.0936  0.3326
  590TIP3    H125965   5.642   5.170  19.951  0.6621  1.5871  0.4754
  590TIP3    H225966   5.691   5.212  20.087  0.5034 -0.9269  1.3581
  591TIP3   OH225967   3.305   5.637  18.460 -0.3375 -0.2647 -0.3840
  591TIP3    H125968   3.259   5.695  18.399 -2.4023  2.0229  3.0098
  591TIP3    H225969   3.378   5.689  18.492 -0.2564 -0.7751  0.2808
  592TIP3   OH225970   4.867   3.986  19.019 -0.1176  0.1482 -0.4824
  592TIP3    H125971   4.936   4.041  18.982  2.1803 -1.5150  1.1146
  592TIP3    H225972   4.891   3.975  19.111 -1.0744 -2.5761 -0.4757
  593TIP3   OH225973   5.170   2.770  19.445 -0.3538  0.0881 -0.5385
  593TIP3    H125974   5.142   2.760  19.536 -0.0507 -2.2768 -0.6630
  593TIP3    H225975   5.104   2.827  19.405 -0.3617  1.3530  1.1794
  594TIP3   OH225976   1.687   2.346  19.361 -0.2047 -0.0643 -0.4622
  594TIP3    H125977   1.745   2.392  19.301  0.1333  2.0846  1.3898
  594TIP3    H225978   1.611   2.323  19.308  1.4421 -1.2426 -2.4676
  595TIP3   OH225979   6.446   4.429  16.455 -0.4065  0.1313 -1.2929
  595TIP3    H125980   6.415   4.519  16.466 -1.5028 -0.1499 -1.9787
  595TIP3    H225981   6.367   4.378  16.441  0.3307 -0.7077 -2.5263
  596TIP3   OH225982   2.527   1.753  19.588 -0.3083 -0.3900 -0.0847
  596TIP3    H125983   2.603   1.751  19.646  0.0018  2.9151 -0.2249
  596TIP3    H225984   2.558   1.708  19.508  1.1782  0.0520  0.2115
  597TIP3   OH225985   5.051   4.025  18.144 -0.6712 -0.2137 -0.0189
  597TIP3    H125986   5.126   3.987  18.097 -0.3254  0.0401  0.3271
  597TIP3    H225987   5.071   4.118  18.149  0.0301 -0.4298  1.9593
  598TIP3   OH225988   3.602   6.343  20.000  0.3779 -0.6397  0.2949
  598TIP3    H125989   3.582   6.250  19.993 -0.3776 -0.4703  0.0951
  598TIP3    H225990   3.529   6.387  19.955  1.6119 -0.0170 -1.1968
  599TIP3   OH225991   6.693   1.769  19.169 -0.0755 -0.8381  0.4375
  599TIP3    H125992   6.614   1.766  19.115  0.7713 -0.8220 -0.8563
  599TIP3    H225993   6.737   1.850  19.142  0.2138 -0.6592  1.4053
  600TIP3   OH225994   5.867   5.267  17.576  0.2896  0.2612 -0.3522
  600TIP3    H125995   5.942   5.271  17.516  1.1198 -0.0159  0.6196
  600TIP3    H225996   5.796   5.312  17.530  0.9825  0.3134 -1.4059
  601TIP3   OH225997   6.170   0.075  17.729 -0.9137  0.0168  0.3849
  601TIP3    H125998   6.119   0.139  17.778 -0.8902  0.4047 -0.0970
  601TIP3    H225999   6.171  -0.003  17.785  0.0476  0.8090  1.5159
  602TIP3   OH226000   0.944   0.916  19.529  0.1696  0.1661  0.3127
  602TIP3    H126001   1.015   0.929  19.466 -1.2476  1.9693 -1.0210
  602TIP3    H226002   0.981   0.858  19.596  1.7053 -2.0027 -2.2336
  603TIP3   OH226003   0.724   2.341  17.452 -0.4460  0.0447  0.0595
  603TIP3    H126004   0.676   2.322  17.532 -0.8743 -0.5702 -0.3365
  603TIP3    H226005   0.714   2.263  17.398 -4.2694  2.0091 -2.6161
  604TIP3   OH226006   0.687   1.539  18.299  0.0916 -0.7328 -0.9907
  604TIP3    H126007   0.650   1.609  18.244 -0.2771 -1.4161 -1.6375
  604TIP3    H226008   0.611   1.499  18.341  0.4403  0.3588  0.7646
  605TIP3   OH226009   6.682   2.240  19.201 -0.2456  0.2230  0.3540
  605TIP3    H126010   6.653   2.242  19.292 -2.7819  1.8616 -0.3838
  605TIP3    H226011   6.625   2.177  19.158  1.4361 -1.1282 -0.0119
  606TIP3   OH226012   6.047   4.179  18.329  0.0929 -0.5122 -0.5849
  606TIP3    H126013   5.953   4.161  18.327 -0.0001 -0.3108  1.1655
  606TIP3    H226014   6.063   4.226  18.247 -1.1408 -1.3825 -1.3671
  607TIP3   OH226015   2.658   6.592  19.661 -0.8089 -0.1993 -0.3064
  607TIP3    H126016   2.703   6.518  19.621 -0.7909 -1.4371  1.8431
  607TIP3    H226017   2.724   6.660  19.667  0.0978 -1.1297  0.5511
  608TIP3   OH226018   1.714   1.626  16.257 -0.2178 -0.0604 -0.1873
  608TIP3    H126019   1.629   1.611  16.298 -1.0788 -1.1147 -2.1788
  608TIP3    H226020   1.747   1.538  16.239  0.5298  0.3524 -0.8867
  609TIP3   OH226021   1.966   4.465  16.314 -0.0194  0.5731  0.7093
  609TIP3    H126022   1.903   4.537  16.322  0.5340  1.1301  0.1511
  609TIP3    H226023   1.966   4.443  16.221  1.6109  1.5161  0.4494
  610TIP3   OH226024   4.105   0.719  18.001 -0.1190  0.3883  0.4575
  610TIP3    H126025   4.039   0.785  18.024 -0.6878 -0.4029  1.1498
  610TIP3    H226026   4.125   0.676  18.084  0.6069  0.0148  0.0977
  611TIP3   OH226027   4.831   5.612  19.103  0.4898  0.0024  0.1117
  611TIP3    H126028   4.847   5.518  19.108  0.4988  0.0625  1.3491
  611TIP3    H226029   4.903   5.652  19.151 -1.7411  0.3859  3.5274
  612TIP3   OH226030   3.715   1.019  18.689  0.0697  0.1833  0.2392
  612TIP3    H126031   3.758   1.092  18.645  1.0172 -0.9239 -0.7659
  612TIP3    H226032   3.633   1.055  18.721  0.8600  1.8689  0.4611
  613TIP3   OH226033   2.213   0.349  18.797 -0.0798  0.5874  0.1886
  613TIP3    H126034   2.173   0.302  18.870 -1.7623  1.3068 -0.2273
  613TIP3    H226035   2.226   0.438  18.830  1.5445  0.2785  0.4297
  614TIP3   OH226036   6.038   5.916  19.864  0.1497  0.3019  0.1006
  614TIP3    H126037   6.098   5.955  19.928  0.4864  1.2176 -0.7619
  614TIP3    H226038   6.089   5.844  19.825  0.7483  1.1422 -0.7037
  615TIP3   OH226039   5.169   5.122  18.343  0.2888  0.2717  0.0393
  615TIP3    H126040   5.240   5.099  18.403  0.7180  0.5527 -0.3588
  615TIP3    H226041   5.135   5.205  18.376 -0.2734 -0.1665  0.5934
  616TIP3   OH226042   0.782   3.355  17.050  0.9569 -0.6589 -0.5067
  616TIP3    H126043   0.756   3.299  17.124 -1.1230 -0.5807 -1.1152
  616TIP3    H226044   0.728   3.324  16.977  1.1154  0.9227 -1.3368
  617TIP3   OH226045   5.533   6.458  19.438  0.0022 -0.7313  0.1100
  617TIP3    H126046   5.501   6.524  19.377  2.2237  0.4830  0.1818
  617TIP3    H226047   5.528   6.376  19.389 -0.1628 -0.0900 -0.9817
  618TIP3   OH226048   3.610   3.026  18.124  0.5062 -0.4537 -0.8379
  618TIP3    H126049   3.597   3.116  18.155  0.2011 -1.2759  1.6882
  618TIP3    H226050   3.531   3.006  18.076 -0.7926 -0.2821  1.1088
  619TIP3   OH226051   0.923   3.996  19.336 -0.4066  0.4425  0.4726
  619TIP3    H126052   0.932   4.005  19.242 -0.0668 -0.6637  0.3966
  619TIP3    H226053   0.841   4.041  19.356  0.8946  3.2017  0.0621
  620TIP3   OH226054   6.300   0.006  17.106  0.0824 -0.6663 -0.4607
  620TIP3    H126055   6.389   0.030  17.132  0.4313 -2.4168  0.1261
  620TIP3    H226056   6.256   0.089  17.091  1.6940  0.2486 -0.3415
  621TIP3   OH226057   0.742   2.951  19.879  0.6117 -0.5951  0.3763
  621TIP3    H126058   0.675   2.884  19.890  1.3396 -1.1941  1.3130
  621TIP3    H226059   0.693   3.032  19.863 -0.4052 -0.7803  2.2660
  622TIP3   OH226060   1.526   6.480  17.790  0.0346 -0.0216  0.0480
  622TIP3    H126061   1.466   6.538  17.743  1.3011 -0.4263 -2.2346
  622TIP3    H226062   1.557   6.533  17.864 -3.5955 -0.0590  1.8362
  623TIP3   OH226063   2.962   2.428  19.704 -0.2114  0.1495 -1.1585
  623TIP3    H126064   3.009   2.347  19.685  1.8980  0.8372  0.6863
  623TIP3    H226065   2.924   2.414  19.791  1.1768  1.4869 -0.2865
  624TIP3   OH226066   3.925   1.334  19.978 -0.0686  0.0650 -0.4196
  624TIP3    H126067   3.849   1.285  19.947 -0.5381  1.2252 -1.1749
  624TIP3    H226068   3.980   1.268  20.021 -1.1566 -0.9208 -0.4805
  625TIP3   OH226069   0.291   2.884  19.596 -0.1938 -0.1410  0.1388
  625TIP3    H126070   0.373   2.925  19.622 -0.1444 -0.6149  0.7520
  625TIP3    H226071   0.290   2.800  19.643  0.2486 -1.3996 -1.9758
  626TIP3   OH226072   1.922   6.306  18.825  0.7346 -0.4204  0.2613
  626TIP3    H126073   1.843   6.261  18.793 -0.9392  1.2156  1.8874
  626TIP3    H226074   1.948   6.362  18.752 -0.0589 -0.4250 -0.0410
  627TIP3   OH226075   5.917   3.183  19.047 -0.1905  0.3739  0.1678
  627TIP3    H126076   5.967   3.249  18.999 -0.9678  0.3149 -0.7441
  627TIP3    H226077   5.916   3.107  18.989 -0.3842 -0.0109  0.6661
  628TIP3   OH226078   0.700   3.201  16.244 -0.5568  0.1261 -0.1655
  628TIP3    H126079   0.752   3.172  16.319 -2.7121 -1.8396  0.6914
  628TIP3    H226080   0.755   3.267  16.201  2.7843 -2.0325  0.4034
  629TIP3   OH226081   1.973   6.302  20.163 -0.1839 -0.4298 -0.0483
  629TIP3    H126082   2.062   6.304  20.197 -0.5081 -0.0423  0.7898
  629TIP3    H226083   1.969   6.375  20.101  0.2819 -0.8811 -0.6232
  630TIP3   OH226084   3.734   4.887  18.254 -0.1409  0.0252  0.7126
  630TIP3    H126085   3.678   4.905  18.329  0.6555  4.6607  0.4499
  630TIP3    H226086   3.799   4.957  18.254  2.7752 -2.3944 -1.7331
  631TIP3   OH226087   2.482   5.223  19.310 -0.6104 -0.0407  0.7037
  631TIP3    H126088   2.442   5.262  19.387 -2.1855 -2.3288  1.1684
  631TIP3    H226089   2.556   5.280  19.289 -1.0198  1.4627  2.9958
  632TIP3   OH226090   3.889   0.915  18.063  0.3703  0.5624  0.0524
  632TIP3    H126091   3.824   0.894  17.996 -0.1335  1.1515  0.3374
  632TIP3    H226092   3.913   1.006  18.044  1.6171  0.1466 -0.4494
  633TIP3   OH226093   1.041   3.429  17.600 -0.2910 -0.4008 -0.2587
  633TIP3    H126094   1.092   3.423  17.519 -0.5794  0.2143 -0.4972
  633TIP3    H226095   1.087   3.372  17.662  0.0865 -0.6692 -0.7745
  634TIP3   OH226096   1.881   2.620  19.768  0.1301 -0.0243  0.3204
  634TIP3    H126097   1.845   2.597  19.683 -1.9149  0.4346  1.0124
  634TIP3    H226098   1.972   2.645  19.750  0.4256 -2.0354 -1.3726
  635TIP3   OH226099   4.091   2.455  17.475  0.2812 -0.2547 -0.1426
  635TIP3    H126100   4.082   2.504  17.556  1.0908  1.5290 -1.0841
  635TIP3    H226101   4.170   2.402  17.487 -0.3781 -1.0656  0.7332
  636TIP3   OH226102   2.741   2.160  18.947 -0.1613  0.6287 -0.1629
  636TIP3    H126103   2.781   2.104  19.014 -1.0193 -1.2445 -1.1383
  636TIP3    H226104   2.788   2.139  18.867  0.0845  1.9923 -0.4001
  637TIP3   OH226105   2.287   3.328  19.914 -0.2297 -0.2068 -0.4092
  637TIP3    H126106   2.305   3.416  19.946 -0.2062 -0.4662  0.3054
  637TIP3    H226107   2.257   3.280  19.991  0.4383 -1.0146 -0.6422
  638TIP3   OH226108   5.748   1.550  17.762  0.9821 -0.3099  0.1399
  638TIP3    H126109   5.769   1.562  17.855 -1.2424  1.9679  0.4549
  638TIP3    H226110   5.712   1.462  17.757 -0.3666  0.0930  1.7834
  639TIP3   OH226111   2.578   2.393  18.965  0.4214 -0.1489  0.2157
  639TIP3    H126112   2.614   2.444  19.038  0.4171 -0.2263  0.2730
  639TIP3    H226113   2.627   2.310  18.969 -0.3758 -0.6055  0.8482
  640TIP3   OH226114   1.491   1.996  18.199  0.2521  0.0830 -0.2544
  640TIP3    H126115   1.445   1.968  18.120 -0.4583  0.2309  0.0940
  640TIP3    H226116   1.547   2.067  18.170  2.5814 -2.0495 -1.2814
  641TIP3   OH226117   4.863   0.354  18.979  0.4793  0.3547 -0.0405
  641TIP3    H126118   4.768   0.369  18.976  0.4622  0.5003 -4.4751
  641TIP3    H226119   4.873   0.259  18.974  0.5596  0.3955 -0.6730
  642TIP3   OH226120   2.598   4.743  18.373 -0.0597  0.2626 -0.4764
  642TIP3    H126121   2.665   4.793  18.326  0.2359  0.7009  0.3922
  642TIP3    H226122   2.617   4.652  18.352  1.5821  0.2807  0.7187
  643TIP3   OH226123   5.395   2.789  17.903  0.4930  0.3581  0.6121
  643TIP3    H126124   5.437   2.870  17.874  1.4071 -0.1996  0.3206
  643TIP3    H226125   5.430   2.775  17.991  0.5311  0.1589  0.5668
  644TIP3   OH226126   3.441   3.458  17.684  0.3484 -0.7142  0.2290
  644TIP3    H126127   3.512   3.418  17.734  0.4415  0.1827  0.8391
  644TIP3    H226128   3.469   3.549  17.673  1.3890 -1.3027 -3.3258
  645TIP3   OH226129   2.099   6.484  19.969 -0.5877 -0.0943  0.3166
  645TIP3    H126130   2.041   6.558  19.988 -1.8319 -1.1256  0.7141
  645TIP3    H226131   2.172   6.523  19.921 -1.4001  1.3247  0.1508
  646TIP3   OH226132   2.425   5.321  18.793  1.0025  0.0090  0.0750
  646TIP3    H126133   2.419   5.226  18.778 -1.4407 -0.0796  1.2335
  646TIP3    H226134   2.410   5.360  18.707  1.9044 -0.6309 -0.3888
  647TIP3   OH226135   1.655   5.722  20.012  0.3179  0.1041  0.3431
  647TIP3    H126136   1.611   5.638  20.023 -1.0396  0.5216 -1.4550
  647TIP3    H226137   1.748   5.702  20.024  0.0325 -1.6813 -0.1106
  648TIP3   OH226138   4.570   1.434  17.987  0.9338 -0.7117 -0.7551
  648TIP3    H126139   4.554   1.521  18.024 -0.1056 -0.9108 -0.6874
  648TIP3    H226140   4.661   1.415  18.008  1.1798  0.3676 -0.7867
  649TIP3   OH226141   4.045   1.832  18.014  0.1684  0.5142  0.2691
  649TIP3    H126142   3.971   1.778  18.042  0.5695  0.7267  1.8641
  649TIP3    H226143   4.015   1.876  17.935 -1.1847  0.1209  0.5399
  650TIP3   OH226144   0.739   1.304  18.147  0.7395 -0.9088 -0.2362
  650TIP3    H126145   0.707   1.378  18.199  2.3835  0.3365 -0.8999
  650TIP3    H226146   0.818   1.275  18.192 -0.4572 -3.0414  0.6214
  651TIP3   OH226147   4.939   1.231  19.887 -0.1616  0.8089  0.6693
  651TIP3    H126148   4.993   1.260  19.960 -0.9277  0.3724  1.4262
  651TIP3    H226149   4.856   1.203  19.927 -0.8580  1.2149 -0.4353
  652TIP3   OH226150   1.705   0.515  19.593 -0.4150 -0.0197  0.0806
  652TIP3    H126151   1.758   0.594  19.582 -0.7245  0.1925  0.1197
  652TIP3    H226152   1.699   0.505  19.688 -1.9111  0.9493  0.1237
  653TIP3   OH226153   6.031   4.408  19.162  0.1999 -0.0795 -0.3740
  653TIP3    H126154   6.010   4.361  19.081 -0.1239 -0.4518 -0.0740
  653TIP3    H226155   6.121   4.439  19.149  1.3067 -2.7462  0.3129
  654TIP3   OH226156   4.396   4.917  20.089  0.1864  0.1632  0.1827
  654TIP3    H126157   4.324   4.979  20.103 -2.2912 -1.9074 -2.1745
  654TIP3    H226158   4.426   4.936  20.000  2.3434  0.6451  0.9465
  655TIP3   OH226159   0.766   5.214  19.376 -0.1076 -0.2926 -0.2888
  655TIP3    H126160   0.816   5.164  19.312  1.1532  2.2417 -1.4204
  655TIP3    H226161   0.702   5.263  19.324 -3.0851 -2.4230  0.9982
  656TIP3   OH226162   3.115   3.444  18.072 -0.7702  0.5009  0.0827
  656TIP3    H126163   3.147   3.505  18.005 -1.7505 -1.0295 -1.8781
  656TIP3    H226164   3.020   3.440  18.056 -0.9267 -0.3657  1.1792
  657TIP3   OH226165   4.544   1.366  17.065  0.5298  0.0098  0.2896
  657TIP3    H126166   4.464   1.374  17.116 -0.1209 -0.4398 -0.6307
  657TIP3    H226167   4.514   1.359  16.974  1.7047  1.9997 -0.3050
  658TIP3   OH226168   2.682   1.325  18.231 -0.2719 -0.4695 -0.2480
  658TIP3    H126169   2.630   1.404  18.245  0.1110 -0.5699  2.0349
  658TIP3    H226170   2.766   1.358  18.197 -0.1428  0.1171  0.6207
  659TIP3   OH226171   5.050   4.959  18.172 -0.3493 -0.2029 -0.1785
  659TIP3    H126172   4.960   4.991  18.168 -1.2707 -2.2774  1.6585
  659TIP3    H226173   5.095   5.020  18.230 -0.9700  0.0379  0.0516
  660TIP3   OH226174   0.873   5.028  19.175 -0.1391  0.1896 -0.7930
  660TIP3    H126175   0.889   4.936  19.156  1.2093 -0.0656  1.2170
  660TIP3    H226176   0.955   5.060  19.214 -0.8959  1.9709 -0.5218
  661TIP3   OH226177   0.309   4.076  19.499 -0.6221 -0.0348 -0.4870
  661TIP3    H126178   0.269   4.029  19.426 -0.2736 -0.0483 -0.6736
  661TIP3    H226179   0.341   4.158  19.460  0.6145 -0.5540 -0.6175
  662TIP3   OH226180   6.246   4.282  16.838 -0.0673  0.1500  0.0701
  662TIP3    H126181   6.245   4.208  16.779  0.2811 -0.6939  1.0899
  662TIP3    H226182   6.289   4.352  16.789 -0.6832 -0.2217 -1.0132
  663TIP3   OH226183   5.454   3.497  19.795 -0.5730 -0.5800 -0.4771
  663TIP3    H126184   5.521   3.562  19.815 -1.3849 -0.2538  1.4387
  663TIP3    H226185   5.503   3.423  19.758  0.8242 -0.2724  0.6527
  664TIP3   OH226186   2.220   0.907  19.625 -0.4658 -0.1527  0.2541
  664TIP3    H126187   2.199   0.814  19.615  1.1728 -0.6371  0.9560
  664TIP3    H226188   2.316   0.910  19.624 -0.4682  1.7423 -1.4337
  665TIP3   OH226189   4.056   1.457  17.451 -0.4866 -0.1455  0.1956
  665TIP3    H126190   4.063   1.453  17.356  0.6139 -0.4127  0.2835
  665TIP3    H226191   3.970   1.420  17.470 -0.1075 -1.4727 -0.5908
  666TIP3   OH226192   3.769   4.049  17.294  0.0649 -0.4347 -0.4409
  666TIP3    H126193   3.699   4.047  17.228 -0.6275 -1.5768  0.2800
  666TIP3    H226194   3.736   4.108  17.362  1.0177  1.1812 -1.3259
  667TIP3   OH226195   5.084   1.911  17.164  0.7685 -0.2504 -0.7582
  667TIP3    H126196   5.047   1.877  17.246  0.2284  0.6177 -0.6146
  667TIP3    H226197   5.058   1.848  17.097 -0.5064  0.0180 -0.5574
  668TIP3   OH226198   6.425   3.300  16.089 -0.4373  0.0789 -0.2866
  668TIP3    H126199   6.352   3.298  16.028 -2.2213 -0.9289  1.7679
  668TIP3    H226200   6.390   3.342  16.167  1.0680 -0.7293  0.8726
  669TIP3   OH226201   5.358   1.792  16.657 -0.0449 -0.1676 -0.4156
  669TIP3    H126202   5.271   1.818  16.686  0.8947  3.9765 -0.6495
  669TIP3    H226203   5.408   1.781  16.738  0.0383  1.0340 -0.2851
  670TIP3   OH226204   6.186   1.676  18.834  0.1980 -0.5097  0.0039
  670TIP3    H126205   6.120   1.624  18.880 -0.0152 -0.5125 -0.3090
  670TIP3    H226206   6.256   1.614  18.814  0.2872 -0.5126  0.3082
  671TIP3   OH226207   1.085   3.669  19.406  0.1585 -0.4316 -0.5274
  671TIP3    H126208   1.113   3.579  19.391  0.6949 -0.0591 -1.9233
  671TIP3    H226209   1.052   3.698  19.321  1.3980  1.1689 -0.4987
  672TIP3   OH226210   1.174   0.325  19.550 -0.0567  0.3731 -0.6892
  672TIP3    H126211   1.102   0.265  19.565  0.0189  0.3962 -0.2041
  672TIP3    H226212   1.166   0.351  19.458 -1.6443  1.6353 -0.2324
  673TIP3   OH226213   4.450   1.721  17.419  0.1588 -0.2405  0.0030
  673TIP3    H126214   4.407   1.752  17.339  0.4789 -2.3929 -1.0766
  673TIP3    H226215   4.378   1.703  17.479 -0.2622 -0.8155 -0.6567
  674TIP3   OH226216   4.506   4.519  19.867  0.2144 -0.3235  0.0593
  674TIP3    H126217   4.428   4.560  19.829  0.4573 -0.7259 -0.9124
  674TIP3    H226218   4.472   4.439  19.908  0.3454 -1.6547 -2.2443
  675TIP3   OH226219   2.346   1.977  19.957 -0.0465  0.4252 -0.6788
  675TIP3    H126220   2.336   1.901  19.899  1.3539  0.7847 -1.4381
  675TIP3    H226221   2.436   2.006  19.943  0.4145  0.4345  1.8161
  676TIP3   OH226222   2.310   0.015  19.038  0.0278 -0.4864 -0.2414
  676TIP3    H126223   2.244  -0.031  19.091  0.0438 -1.1456 -0.7721
  676TIP3    H226224   2.302  -0.025  18.951  1.8294 -1.2946 -0.0721
  677TIP3   OH226225   3.257   5.965  19.762 -0.4151  0.0434 -0.1045
  677TIP3    H126226   3.339   5.917  19.761 -2.1508 -3.1725 -0.8767
  677TIP3    H226227   3.266   6.029  19.692  1.3719 -0.3000 -0.2345
  678TIP3   OH226228   0.077   6.444  18.096 -0.4239  0.2194 -0.0415
  678TIP3    H126229   0.004   6.464  18.038  0.4322  1.8963 -0.6148
  678TIP3    H226230   0.054   6.484  18.179  0.2083  1.6448 -0.5005
  679TIP3   OH226231   6.098   2.394  17.638 -0.3537  0.3162 -0.1858
  679TIP3    H126232   6.044   2.373  17.714  1.0835 -0.8726  0.5573
  679TIP3    H226233   6.088   2.489  17.628 -0.7167  0.4826  1.3901
  680TIP3   OH226234   2.553   2.979  17.773  0.0180 -0.5484  0.3438
  680TIP3    H126235   2.511   2.922  17.837  0.2470 -1.4109 -0.2479
  680TIP3    H226236   2.568   3.061  17.819 -2.5329 -0.0867  0.5142
  681TIP3   OH226237   3.931   1.044  18.891 -0.0307 -0.4714 -0.1965
  681TIP3    H126238   3.995   1.090  18.836 -0.0897  3.2161  2.4483
  681TIP3    H226239   3.866   1.011  18.830  0.5867  2.1773 -2.4780
  682TIP3   OH226240   5.941   4.196  16.598 -0.1526  0.4599 -0.4850
  682TIP3    H126241   6.011   4.133  16.613 -0.8162 -0.0979  0.3841
  682TIP3    H226242   5.869   4.143  16.562 -1.4137  0.2804  2.0314
  683TIP3   OH226243   1.521   3.797  16.888 -0.1696 -0.0656 -0.2111
  683TIP3    H126244   1.576   3.875  16.889 -0.6629  0.3546 -2.0262
  683TIP3    H226245   1.561   3.740  16.822 -1.6824  0.1103 -1.3331
  684TIP3   OH226246   2.091   2.445  17.489 -0.1799 -0.2159 -0.2890
  684TIP3    H126247   2.130   2.531  17.473  0.8148 -0.6770 -0.4336
  684TIP3    H226248   2.028   2.459  17.560  1.9758  0.1193  1.6678
  685TIP3   OH226249   4.800   5.256  17.130  0.1984  0.6027  0.0794
  685TIP3    H126250   4.851   5.239  17.051 -1.3233 -1.6728 -0.4921
  685TIP3    H226251   4.716   5.289  17.098  0.0480  0.9675  0.8200
  686TIP3   OH226252   2.408   6.210  18.925 -0.2589  0.3224 -0.5358
  686TIP3    H126253   2.373   6.147  18.987  0.6902 -1.3218 -1.5902
  686TIP3    H226254   2.351   6.287  18.933 -1.9601 -0.9673  0.1902
  687TIP3   OH226255   5.550   6.676  19.643 -0.0349 -0.3089 -0.2173
  687TIP3    H126256   5.508   6.606  19.594 -1.3743  0.9548 -0.9814
  687TIP3    H226257   5.522   6.662  19.734  0.6892 -1.4283 -0.1557
  688TIP3   OH226258   1.045   6.422  20.075 -0.1627 -0.3780 -0.1308
  688TIP3    H126259   1.088   6.436  19.990 -0.6232 -1.3452 -0.5375
  688TIP3    H226260   1.067   6.332  20.098  0.2618 -0.0058  0.9690
  689TIP3   OH226261   2.267   6.451  17.982 -0.0786 -0.5150  0.0416
  689TIP3    H126262   2.198   6.404  17.934 -0.4219 -2.0119  1.8800
  689TIP3    H226263   2.346   6.401  17.965 -0.3612 -1.5498  1.6568
  690TIP3   OH226264   4.324   3.573  17.086 -0.1138  0.2351  0.3444
  690TIP3    H126265   4.285   3.646  17.039  2.2922  0.5056 -1.3847
  690TIP3    H226266   4.396   3.544  17.031 -0.1131 -2.5764  1.6384
  691TIP3   OH226267   3.962   2.166  19.943 -0.1064  0.5839  0.3024
  691TIP3    H126268   3.887   2.215  19.909 -0.9100 -0.6751  0.1727
  691TIP3    H226269   3.925   2.113  20.014  0.9245  0.8843  1.0882
  692TIP3   OH226270   5.150   1.004  20.139  0.0707  0.1777  0.3996
  692TIP3    H126271   5.146   0.990  20.234 -0.2398 -0.9670  0.2354
  692TIP3    H226272   5.103   1.087  20.126 -4.0106 -1.7663  0.8624
  693TIP3   OH226273   0.094   3.638  18.980  0.0740  0.3095  0.6223
  693TIP3    H126274   0.103   3.559  19.033  0.8007  1.0295  1.6086
  693TIP3    H226275   0.057   3.703  19.039 -0.9821  0.5822 -0.3146
  694TIP3   OH226276   3.982   5.669  19.721  0.2974 -0.5311  0.1393
  694TIP3    H126277   4.006   5.759  19.739  3.0146 -1.4723  1.7844
  694TIP3    H226278   3.957   5.669  19.629  3.1526  1.4226 -0.7861
  695TIP3   OH226279   0.443   6.118  20.067 -0.6721 -0.2216  0.0841
  695TIP3    H126280   0.537   6.131  20.051 -0.5269  0.4843  1.3397
  695TIP3    H226281   0.400   6.162  19.994 -0.0496  2.0956  1.0038
  696TIP3   OH226282   5.247   4.559  16.497  0.2156  0.0050 -0.5100
  696TIP3    H126283   5.325   4.505  16.505  0.5967  0.5497 -0.4998
  696TIP3    H226284   5.195   4.539  16.575  0.2119 -0.5625 -0.6546
  697TIP3   OH226285   6.052   1.481  18.982  0.0186 -0.0035 -0.1517
  697TIP3    H126286   6.005   1.398  18.996 -0.7540  0.5035  0.3177
  697TIP3    H226287   6.003   1.545  19.033  0.1594  0.8942 -1.1163
  698TIP3   OH226288   4.545   1.902  19.378 -0.5420  0.4725  0.3797
  698TIP3    H126289   4.472   1.881  19.437  0.7553 -1.0001  1.5536
  698TIP3    H226290   4.581   1.984  19.412 -1.9374  1.5199 -0.5501
  699TIP3   OH226291   5.553   4.312  19.398  0.3966 -0.3940 -0.4357
  699TIP3    H126292   5.507   4.282  19.476 -0.0279  1.3137  0.0038
  699TIP3    H226293   5.627   4.251  19.390  0.0326 -1.0553  0.8688
  700TIP3   OH226294   5.036   5.712  19.233 -0.5576 -0.0581  0.2297
  700TIP3    H126295   5.095   5.778  19.197 -1.0056 -0.0385 -0.4943
  700TIP3    H226296   5.094   5.648  19.275  0.0954 -0.7336 -1.6028
  701TIP3   OH226297   0.205   0.490  18.652 -0.3754 -0.0574 -0.4337
  701TIP3    H126298   0.277   0.453  18.702  0.5978  0.6878 -1.2521
  701TIP3    H226299   0.145   0.525  18.718  1.3325  1.7644  0.2661
  702TIP3   OH226300   5.172   6.747  19.042 -0.1127 -0.4199  0.0902
  702TIP3    H126301   5.106   6.815  19.053  0.0770  0.0856 -1.6342
  702TIP3    H226302   5.147   6.679  19.105 -2.4065 -0.3387 -0.6467
  703TIP3   OH226303   2.051   3.503  20.290 -0.1898 -0.1284  0.3960
  703TIP3    H126304   1.961   3.482  20.313 -1.3071 -0.3952 -3.4903
  703TIP3    H226305   2.088   3.420  20.261  0.4922  0.4119 -0.3261
  704TIP3   OH226306   6.143   2.362  19.988 -0.4496  0.0757 -0.2065
  704TIP3    H126307   6.112   2.272  19.980 -0.6318  0.2253 -1.3621
  704TIP3    H226308   6.235   2.359  19.962 -0.1638  0.0590  0.7687
  705TIP3   OH226309   1.538   4.554  20.023  0.1997 -0.7769 -0.9127
  705TIP3    H126310   1.480   4.610  20.074  1.2826  0.9810 -1.5108
  705TIP3    H226311   1.542   4.472  20.072  0.0439  0.3225  1.0336
  706TIP3   OH226312   5.283   3.413  18.541 -0.9165 -0.5187 -0.4865
  706TIP3    H126313   5.294   3.453  18.627 -1.3228  0.2546 -0.7857
  706TIP3    H226314   5.371   3.387  18.515 -0.9655 -2.1366  0.8013
  707TIP3   OH226315   0.280   4.551  19.669  0.2352  0.1801 -0.3734
  707TIP3    H126316   0.226   4.490  19.619 -1.3060  1.8630 -0.8503
  707TIP3    H226317   0.276   4.518  19.759  0.4828 -1.1021 -0.8045
  708TIP3   OH226318   1.482   2.614  16.596  0.0071 -0.4981  0.2726
  708TIP3    H126319   1.554   2.551  16.597  0.2935 -0.1820 -0.0536
  708TIP3    H226320   1.476   2.641  16.504  0.6317  0.8019  0.6026
  709TIP3   OH226321   5.043   5.425  20.035 -0.4310 -1.2884 -0.4962
  709TIP3    H126322   5.024   5.351  19.978  0.7895 -1.5368 -0.6053
  709TIP3    H226323   5.134   5.412  20.062  0.5624  1.2610 -2.2206
  710TIP3   OH226324   1.709   0.264  18.071 -0.0948 -0.2527  0.1224
  710TIP3    H126325   1.740   0.315  18.146 -1.1393 -0.7663  0.9186
  710TIP3    H226326   1.783   0.208  18.048  1.2681  1.8659 -1.0625
  711TIP3   OH226327   2.805   4.850  18.176  0.2340 -0.4463  0.8771
  711TIP3    H126328   2.801   4.817  18.086  2.0518 -0.7093  0.8571
  711TIP3    H226329   2.746   4.924  18.177  2.8269  1.9074 -1.5940
  712TIP3   OH226330   1.480   4.678  18.196  0.3166 -0.2555  0.2619
  712TIP3    H126331   1.386   4.660  18.201  0.1618  0.1799 -0.9233
  712TIP3    H226332   1.509   4.635  18.115  0.6253  1.7321 -0.7301
  713TIP3   OH226333   0.702   5.956  18.637 -1.0544 -0.0684 -0.3239
  713TIP3    H126334   0.633   5.928  18.697  0.1206  0.4264  1.3348
  713TIP3    H226335   0.657   5.969  18.553 -2.5801 -1.7229  0.1721
  714TIP3   OH226336   0.160   0.681  19.313 -0.8092 -0.2091 -0.0589
  714TIP3    H126337   0.131   0.653  19.399 -0.2504 -1.1091 -0.1480
  714TIP3    H226338   0.102   0.754  19.290  0.6673  1.8226  2.1691
  715TIP3   OH226339   2.702   3.606  17.771  0.0891  0.0922 -0.1052
  715TIP3    H126340   2.627   3.595  17.713 -0.0877  0.0071  0.1369
  715TIP3    H226341   2.745   3.685  17.740  0.1971 -0.1474 -0.5732
  716TIP3   OH226342   6.364   3.189  18.032 -0.1605  0.1654  0.3975
  716TIP3    H126343   6.380   3.100  18.060  0.3760 -0.0340 -0.5060
  716TIP3    H226344   6.445   3.236  18.050  0.5076 -0.1590 -1.4739
  717TIP3   OH226345   1.265   4.211  18.071  0.1696  0.6108 -0.5715
  717TIP3    H126346   1.186   4.179  18.116  0.2077  0.3318 -0.6990
  717TIP3    H226347   1.261   4.170  17.984  1.0571 -0.3441 -0.1842
  718TIP3   OH226348   5.604   6.141  19.390 -0.2225  0.0735 -0.1119
  718TIP3    H126349   5.592   6.052  19.356 -1.0013  0.5474 -1.1295
  718TIP3    H226350   5.540   6.149  19.461 -0.0600 -0.2182  0.0671
  719TIP3   OH226351   4.805   3.207  19.162  0.8301 -0.4994 -0.4913
  719TIP3    H126352   4.777   3.130  19.112  3.0171 -2.7689  1.4728
  719TIP3    H226353   4.834   3.270  19.096 -1.0025 -1.3212 -2.1771
  720TIP3   OH226354   2.434   1.485  17.735  0.5445 -0.9404  0.2360
  720TIP3    H126355   2.436   1.453  17.825  1.6439 -0.9744  0.2118
  720TIP3    H226356   2.349   1.527  17.726 -0.0618 -1.9882  0.9185
  721TIP3   OH226357   4.473   0.282  20.419  0.2721 -0.0822 -0.0032
  721TIP3    H126358   4.434   0.309  20.336  0.3241  0.8180  0.2479
  721TIP3    H226359   4.551   0.337  20.428 -0.3411  0.6317  1.1601
  722TIP3   OH226360   0.441   4.291  17.106  0.1619 -0.3393 -0.4239
  722TIP3    H126361   0.422   4.204  17.141 -0.6058 -0.9626 -2.2864
  722TIP3    H226362   0.403   4.291  17.018 -0.0930  1.9819 -0.3726
  723TIP3   OH226363   6.012   0.714  20.172  0.9111 -0.1987 -0.3333
  723TIP3    H126364   5.939   0.688  20.228  3.1938 -0.9851  2.4977
  723TIP3    H226365   6.073   0.641  20.178  2.4660  0.9312 -1.6677
  724TIP3   OH226366   0.929   6.260  18.231  0.2284  0.2990 -0.3739
  724TIP3    H126367   0.997   6.296  18.175  1.5134 -1.9565 -0.3791
  724TIP3    H226368   0.972   6.243  18.315 -1.1179  1.5721  0.6437
  725TIP3   OH226369   0.374   5.517  17.685 -0.5115 -0.2694 -0.1099
  725TIP3    H126370   0.417   5.539  17.767  1.5943  0.4974 -1.3417
  725TIP3    H226371   0.393   5.424  17.673 -0.8266 -0.3841  0.2435
  726TIP3   OH226372   6.112   1.196  18.564 -0.3646  0.3629  0.5432
  726TIP3    H126373   6.078   1.132  18.625 -0.7289  0.3568  0.3374
  726TIP3    H226374   6.039   1.257  18.549  0.1794  1.2196  1.2561
  727TIP3   OH226375   3.623   4.335  17.397  0.5166  0.1984  0.1535
  727TIP3    H126376   3.573   4.268  17.349  0.3473  1.0921 -0.9809
  727TIP3    H226377   3.569   4.356  17.473  0.5235 -0.8677  0.4599
  728TIP3   OH226378   1.128   5.044  18.103 -0.3354 -0.4948  0.4207
  728TIP3    H126379   1.124   5.119  18.044 -0.7267 -1.9405 -1.4836
  728TIP3    H226380   1.059   4.985  18.072  0.5364 -2.0323  1.2840
  729TIP3   OH226381   5.286   5.824  17.279 -0.2792  0.3718 -0.3750
  729TIP3    H126382   5.332   5.870  17.209  0.9759  0.0955  0.2364
  729TIP3    H226383   5.301   5.878  17.357  2.3611 -1.6161  0.6472
  730TIP3   OH226384   1.665   3.165  16.241  0.1691  0.0451 -0.8408
  730TIP3    H126385   1.760   3.179  16.241  0.1897 -0.0343 -0.2245
  730TIP3    H226386   1.630   3.242  16.287 -0.1021  0.2755 -1.4271
  731TIP3   OH226387   0.444   1.981  18.019 -0.3205  0.9038 -0.1567
  731TIP3    H126388   0.410   2.042  17.954  0.7001 -0.0008 -1.6285
  731TIP3    H226389   0.537   2.002  18.025 -0.7524  2.5147  2.8438
  732TIP3   OH226390   6.105   0.944  19.039  0.2959  0.4994 -0.5955
  732TIP3    H126391   6.098   0.850  19.026  2.1536  0.5188 -2.2661
  732TIP3    H226392   6.103   0.955  19.134 -1.6236 -1.0182 -0.3988
  733TIP3   OH226393   1.725   2.759  20.369  0.1247  0.2869 -0.5494
  733TIP3    H126394   1.793   2.749  20.302  0.2362  0.9585 -0.5447
  733TIP3    H226395   1.775   2.778  20.449 -0.0838  1.2443 -0.6390
  734TIP3   OH226396   3.620   5.013  19.059 -0.2864  0.1416 -0.8704
  734TIP3    H126397   3.564   4.948  19.099 -1.1858  1.5777  0.2852
  734TIP3    H226398   3.701   5.011  19.111 -0.7685  0.7513 -0.0742
  735TIP3   OH226399   5.608   0.326  18.360  0.2857  0.2461 -0.1126
  735TIP3    H126400   5.519   0.351  18.334  0.2981  0.7007  0.2780
  735TIP3    H226401   5.662   0.400  18.332  0.5874 -0.1663 -0.6301
  736TIP3   OH226402   2.826   2.080  18.355  0.2406  0.8975  0.1884
  736TIP3    H126403   2.907   2.040  18.322  0.2857  0.9621  0.2210
  736TIP3    H226404   2.797   2.138  18.285 -1.1103 -0.9556 -0.8603
  737TIP3   OH226405   6.504   5.251  18.182 -0.3131  0.2118  0.0303
  737TIP3    H126406   6.463   5.186  18.124 -2.0097 -0.7534  2.1793
  737TIP3    H226407   6.577   5.204  18.222  0.7822  0.8414 -1.1507
  738TIP3   OH226408   3.299   0.108  19.978  0.2583  0.0704 -0.3260
  738TIP3    H126409   3.352   0.081  20.053 -0.1873 -0.1868 -0.0949
  738TIP3    H226410   3.265   0.026  19.941  0.4929  0.1938 -0.8247
  739TIP3   OH226411   0.711   6.681  18.989  0.3935  0.0573  0.1550
  739TIP3    H126412   0.667   6.603  19.025  1.4372 -0.4749  0.3194
  739TIP3    H226413   0.799   6.676  19.025 -0.1703  2.6779  2.2545
  740TIP3   OH226414   5.623   4.037  19.312  0.1022 -0.0416 -0.3526
  740TIP3    H126415   5.634   4.003  19.223  1.0954  1.3335 -0.7812
  740TIP3    H226416   5.674   3.976  19.366 -0.9655 -1.2143 -0.6156
  741TIP3   OH226417   5.641   3.027  18.042 -0.1602  0.1025  0.5467
  741TIP3    H126418   5.685   3.091  17.986 -1.5158 -0.9778 -1.9125
  741TIP3    H226419   5.690   2.945  18.028 -1.2642 -0.4681 -0.0842
  742TIP3   OH226420   2.076   2.200  16.488 -0.1031  0.2319 -0.7419
  742TIP3    H126421   1.990   2.232  16.515  0.3648 -0.0250  1.1960
  742TIP3    H226422   2.057   2.126  16.430 -1.2309 -0.6794  0.7275
  743TIP3   OH226423   6.085   0.941  18.143  0.1452 -0.3732  0.3632
  743TIP3    H126424   6.021   0.971  18.078 -1.0055  0.0474  1.6445
  743TIP3    H226425   6.120   0.860  18.106  0.2522  0.3606 -1.2245
  744TIP3   OH226426   0.929   2.789  16.415  0.0745  0.1827  0.0931
  744TIP3    H126427   0.852   2.755  16.460 -0.9317  3.5888  1.2804
  744TIP3    H226428   1.003   2.743  16.455 -1.1033 -0.2357  1.8977
  745TIP3   OH226429   1.112   0.990  19.309  0.2563 -0.2298  0.1233
  745TIP3    H126430   1.128   0.921  19.244 -0.7307  2.0453 -2.7758
  745TIP3    H226431   1.175   1.058  19.287 -1.0611  1.2004  0.6002
  746TIP3   OH226432   4.878   4.706  16.991  0.4998  0.4862 -0.0752
  746TIP3    H126433   4.934   4.634  16.965 -2.1090 -1.4553 -0.7141
  746TIP3    H226434   4.935   4.783  16.991  3.3244 -1.4903  0.3683
  747TIP3   OH226435   0.503   1.475  20.404  0.0949 -0.3707 -0.6852
  747TIP3    H126436   0.540   1.388  20.410  0.2101 -0.2467  0.8236
  747TIP3    H226437   0.409   1.462  20.421  0.2726 -0.1053  0.6151
  748TIP3   OH226438   0.104   3.683  18.138 -0.1518  0.4459  0.4228
  748TIP3    H126439   0.033   3.623  18.161  0.2861 -0.0953  0.4072
  748TIP3    H226440   0.072   3.769  18.161 -0.2269  0.0577  1.8575
  749TIP3   OH226441   2.577   0.213  19.844  0.3583  0.3628  0.0584
  749TIP3    H126442   2.562   0.124  19.877 -1.1575  0.5287 -0.1024
  749TIP3    H226443   2.597   0.201  19.752 -1.2792  0.2354 -0.3185
  750TIP3   OH226444   2.493   0.034  18.077 -0.9217  0.7747 -0.2964
  750TIP3    H126445   2.427   0.022  18.145 -0.9332  1.2772 -0.2173
  750TIP3    H226446   2.575   0.008  18.118 -0.8197  1.7388  0.1438
  751TIP3   OH226447   3.065   3.339  17.473 -0.0695 -0.0873  0.3308
  751TIP3    H126448   3.040   3.429  17.454 -1.4190 -0.5902 -0.3685
  751TIP3    H226449   3.069   3.296  17.388 -0.2975 -0.9061  0.7213
  752TIP3   OH226450   3.262   2.126  18.127 -0.4435 -0.6980  0.4671
  752TIP3    H126451   3.313   2.196  18.168  0.4280 -0.8026 -0.4013
  752TIP3    H226452   3.302   2.045  18.158  0.6357 -0.7805 -1.0165
  753TIP3   OH226453   1.545   2.948  17.797 -0.5487 -0.2294  0.5899
  753TIP3    H126454   1.634   2.962  17.829  0.0332 -1.4079 -0.3999
  753TIP3    H226455   1.517   2.868  17.841 -1.5670  0.7192  1.7343
  754TIP3   OH226456   5.161   1.396  18.389  0.4116 -0.2001  0.1147
  754TIP3    H126457   5.182   1.367  18.478 -0.0057 -3.3291 -0.6785
  754TIP3    H226458   5.065   1.397  18.386  0.4071  1.3672  0.0849
  755TIP3   OH226459   2.097   1.194  17.450  0.1454  0.1211  0.7205
  755TIP3    H126460   2.187   1.192  17.417  0.1993  1.8268  0.7059
  755TIP3    H226461   2.077   1.102  17.467  1.5933 -0.3815 -0.0564
  756TIP3   OH226462   6.105   4.874  18.481  0.2374 -0.1778 -0.2198
  756TIP3    H126463   6.183   4.887  18.535 -0.1357 -2.1676  0.9131
  756TIP3    H226464   6.034   4.864  18.544 -0.7880  0.5667 -1.2069
  757TIP3   OH226465   3.450   5.389  16.793  0.1348  0.3199 -0.5991
  757TIP3    H126466   3.462   5.304  16.750 -0.6053 -0.4196  0.5774
  757TIP3    H226467   3.530   5.437  16.773  0.0940 -0.2267 -2.2072
  758TIP3   OH226468   1.051   2.527  17.094 -0.4010  0.9438  0.3426
  758TIP3    H126469   1.016   2.495  17.177 -1.1938  0.7883 -0.0518
  758TIP3    H226470   1.138   2.561  17.117  0.0437 -0.5107  0.9570
  759TIP3   OH226471   6.553   2.287  18.535 -0.4384  0.1686  0.1188
  759TIP3    H126472   6.463   2.314  18.516 -1.2587 -2.5143 -0.2355
  759TIP3    H226473   6.563   2.300  18.630 -0.5080  2.1754 -0.0987
  760TIP3   OH226474   0.810   0.196  18.117 -0.2068  0.4395  0.1564
  760TIP3    H126475   0.851   0.257  18.178  1.3408 -1.3353  0.9747
  760TIP3    H226476   0.727   0.238  18.094  0.2795  2.3020  1.5568
  761TIP3   OH226477   1.276   4.932  18.296 -0.1683  0.5219  0.3138
  761TIP3    H126478   1.244   4.843  18.312 -0.5404  1.1256  3.9000
  761TIP3    H226479   1.230   4.961  18.218 -1.6785 -1.6702  0.2895
  762TIP3   OH226480   5.969   3.336  19.364  0.8112 -0.1819  0.1006
  762TIP3    H126481   5.927   3.251  19.353 -1.8715  1.1630 -1.3140
  762TIP3    H226482   5.914   3.382  19.427  0.5487  1.3951 -1.1992
  763TIP3   OH226483   1.656   4.845  17.195 -0.1018 -0.2082 -0.4291
  763TIP3    H126484   1.686   4.870  17.108  0.7872  0.1541 -0.0255
  763TIP3    H226485   1.736   4.836  17.246 -0.6918  1.1790  0.7819
  764TIP3   OH226486   2.774   6.174  17.166  0.1525  0.1451 -0.2285
  764TIP3    H126487   2.815   6.102  17.118  0.6461  1.9868 -2.8225
  764TIP3    H226488   2.705   6.206  17.107  0.5323  2.3362  0.4087
  765TIP3   OH226489   3.823   0.659  17.761 -0.0854  0.5366  0.3446
  765TIP3    H126490   3.788   0.606  17.690  0.6382  1.8360 -1.0369
  765TIP3    H226491   3.845   0.743  17.720  2.2525  0.6426  1.6593
  766TIP3   OH226492   0.021   3.871  19.135  0.4183 -0.3970 -0.3672
  766TIP3    H126493   0.034   3.949  19.189 -1.1034  0.5740 -1.3309
  766TIP3    H226494   0.060   3.894  19.050 -0.1081 -0.6389 -0.6800
  767TIP3   OH226495   0.072   4.531  17.444  0.0057  0.0637 -0.2167
  767TIP3    H126496  -0.021   4.525  17.422  0.2078 -2.9930 -0.6569
  767TIP3    H226497   0.117   4.498  17.366  1.3447 -0.4955  0.7478
  768TIP3   OH226498   3.405   2.318  18.803 -0.0034  0.3485  0.3168
  768TIP3    H126499   3.360   2.248  18.852 -1.0220 -0.1531 -1.2726
  768TIP3    H226500   3.498   2.294  18.808 -0.1567 -0.1296  1.2781
  769TIP3   OH226501   3.302   0.904  19.322  0.0754  0.2256  0.3069
  769TIP3    H126502   3.214   0.916  19.286 -0.1153  0.5551  0.8859
  769TIP3    H226503   3.344   0.842  19.261 -0.7863 -0.4863  0.4098
  770TIP3   OH226504   1.751   4.401  19.009  0.2463 -0.0860  0.4240
  770TIP3    H126505   1.707   4.379  19.091  0.7457 -0.1821  0.6714
  770TIP3    H226506   1.735   4.326  18.952 -0.5068  0.1848  0.2585
  771TIP3   OH226507   5.316   3.319  17.839 -0.4125  0.1935  0.0870
  771TIP3    H126508   5.229   3.345  17.809 -1.6695 -0.7442  2.6125
  771TIP3    H226509   5.357   3.400  17.867 -1.6963  0.3594  1.6548
  772TIP3   OH226510   4.657   3.884  17.646  0.1831 -0.3653  0.3380
  772TIP3    H126511   4.672   3.902  17.553  1.3869 -0.9292  0.4137
  772TIP3    H226512   4.580   3.828  17.647 -0.8035  0.9077 -0.1962
  773TIP3   OH226513   6.218   6.384  17.839  0.3129 -0.0822  0.4895
  773TIP3    H126514   6.235   6.340  17.755  0.8762  0.4349  0.3256
  773TIP3    H226515   6.196   6.312  17.899 -1.2432 -0.3783 -0.3524
  774TIP3   OH226516   4.079   4.096  18.283 -0.3222  0.3392 -0.1380
  774TIP3    H126517   4.025   4.084  18.361 -0.6782 -0.5862 -0.5186
  774TIP3    H226518   4.042   4.172  18.239 -0.6217  0.3726  0.1703
  775TIP3   OH226519   3.233   0.017  17.481 -0.5381 -0.2082 -0.3544
  775TIP3    H126520   3.306   0.069  17.516  0.2085 -1.2816 -0.2731
  775TIP3    H226521   3.201  -0.032  17.557 -1.1313  0.0111 -0.4636
  776TIP3   OH226522   1.650   3.878  18.048 -0.4601 -0.1977  0.5333
  776TIP3    H126523   1.666   3.819  18.121 -0.5108  0.0875  0.7779
  776TIP3    H226524   1.618   3.958  18.089 -0.8628 -0.1729  0.1658
  777TIP3   OH226525   1.064   4.497  19.659  0.2910  0.7091 -0.1603
  777TIP3    H126526   1.047   4.453  19.742  2.7928 -2.4178 -1.1239
  777TIP3    H226527   1.156   4.521  19.662  0.4576  0.4927 -2.0594
  778TIP3   OH226528   3.313   4.772  18.417 -0.3062  0.3162 -0.2357
  778TIP3    H126529   3.295   4.712  18.489 -0.9904  0.2668 -0.4356
  778TIP3    H226530   3.260   4.739  18.345  0.2412  0.4629 -0.7121
  779TIP3   OH226531   3.941   3.794  19.251  0.0149 -0.9477 -0.6845
  779TIP3    H126532   3.994   3.807  19.329  0.2987  0.0083 -1.0191
  779TIP3    H226533   3.851   3.811  19.279  0.1260 -0.5245 -0.5772
  780TIP3   OH226534   1.888   4.637  19.894 -0.1816  0.0383  0.3639
  780TIP3    H126535   1.981   4.646  19.914 -0.0868  1.0890 -0.4791
  780TIP3    H226536   1.849   4.721  19.919 -0.6263  0.1654 -0.6673
  781TIP3   OH226537   3.143   4.104  18.314 -0.1613 -0.0567  0.4259
  781TIP3    H126538   3.059   4.150  18.313  1.1319  2.4789 -0.5408
  781TIP3    H226539   3.164   4.094  18.407 -1.1506  0.0034  0.6621
  782TIP3   OH226540   1.298   3.630  18.622  0.1336 -0.2496  0.0737
  782TIP3    H126541   1.354   3.661  18.693 -1.4598  1.9512  0.4731
  782TIP3    H226542   1.334   3.670  18.543  0.2681 -0.4363  0.0392
  783TIP3   OH226543   1.301   2.924  16.619 -0.1708 -0.2504 -0.5439
  783TIP3    H126544   1.235   2.864  16.585 -2.5073 -0.2085  3.3560
  783TIP3    H226545   1.280   3.008  16.579 -0.0424 -0.9565 -2.1762
  784TIP3   OH226546   0.853   4.550  18.728  0.4066  0.0267  0.2414
  784TIP3    H126547   0.881   4.509  18.810  2.2276  1.0363  0.1712
  784TIP3    H226548   0.797   4.622  18.754 -0.2209 -0.5506  0.5129
  785TIP3   OH226549   6.302   0.988  19.433  0.1358 -0.9595 -0.0454
  785TIP3    H126550   6.345   1.073  19.438  0.5525 -1.1850  0.3403
  785TIP3    H226551   6.334   0.940  19.509 -0.8632 -1.1149  0.2984
  786TIP3   OH226552   4.191   6.120  19.083  0.2317  0.2787  0.2550
  786TIP3    H126553   4.283   6.121  19.059 -0.3040  0.9698 -2.0822
  786TIP3    H226554   4.176   6.204  19.126  0.9544 -0.4463  2.0162
  787TIP3   OH226555   5.242   3.532  19.622  0.0771 -0.2626 -0.0897
  787TIP3    H126556   5.175   3.568  19.680 -0.0476  2.2722 -1.6333
  787TIP3    H226557   5.313   3.506  19.680 -0.4416  1.2210  1.2738
  788TIP3   OH226558   3.789   6.138  17.866 -0.0232  0.4581 -0.3066
  788TIP3    H126559   3.718   6.175  17.919 -0.0915 -1.1515  0.8233
  788TIP3    H226560   3.791   6.191  17.787 -1.2642  1.6912  0.4429
  789TIP3   OH226561   1.744   2.797  18.657  0.5302  0.5404 -0.0790
  789TIP3    H126562   1.748   2.724  18.595 -0.9790 -1.0649  1.5706
  789TIP3    H226563   1.825   2.791  18.707  0.3381 -0.1210  0.1585
  790TIP3   OH226564   5.777   4.898  20.114 -0.1752 -0.0964  0.9106
  790TIP3    H126565   5.776   4.991  20.092  1.4941  0.1497  1.6368
  790TIP3    H226566   5.689   4.879  20.146 -1.1240  0.7325 -1.0653
  791TIP3   OH226567   2.423   0.771  18.392 -0.2143 -0.2633 -0.1252
  791TIP3    H126568   2.377   0.815  18.320  0.0666  0.4966  0.1509
  791TIP3    H226569   2.395   0.680  18.386 -0.7586 -0.0638 -0.7513
  792TIP3   OH226570   4.001   5.948  17.867  0.0257 -0.0588 -0.4936
  792TIP3    H126571   3.919   5.996  17.868 -1.7871 -2.9490  0.0089
  792TIP3    H226572   4.036   5.957  17.955 -0.4759  0.0289 -0.3016
  793TIP3   OH226573   0.735   2.146  19.207 -0.0763  0.2398  0.2105
  793TIP3    H126574   0.712   2.099  19.287  0.0940 -1.2485 -0.5827
  793TIP3    H226575   0.674   2.220  19.204 -0.5400 -0.0804  1.3584
  794TIP3   OH226576   5.830   0.945  18.043  0.1989  0.1504 -0.3252
  794TIP3    H126577   5.864   0.860  18.014  1.0915  0.9011 -1.5535
  794TIP3    H226578   5.738   0.927  18.065  0.2383 -1.0455 -1.0358
  795TIP3   OH226579   6.239   5.616  18.937 -0.0553 -0.1138  0.0614
  795TIP3    H126580   6.179   5.551  18.900 -0.5677  0.4122 -0.0280
  795TIP3    H226581   6.204   5.634  19.024 -0.4305  0.7145 -0.2532
  796TIP3   OH226582   5.425   5.874  18.716  0.7099  0.0272 -0.4958
  796TIP3    H126583   5.459   5.945  18.661 -0.5188  0.3030 -0.9283
  796TIP3    H226584   5.419   5.912  18.804  2.2848 -0.2888 -0.2206
  797TIP3   OH226585   1.620   6.613  18.000 -0.1344  0.6955 -0.0973
  797TIP3    H126586   1.699   6.655  18.035 -0.1113 -0.1051  0.8487
  797TIP3    H226587   1.549   6.651  18.051 -0.1570 -0.0618  0.4470
  798TIP3   OH226588   4.223   2.295  19.914  0.2340  0.3428  0.1899
  798TIP3    H126589   4.134   2.269  19.939  0.1081  1.0866  0.5559
  798TIP3    H226590   4.221   2.295  19.818 -0.1868  0.4197  0.1935
  799TIP3   OH226591   0.829   0.444  17.020 -0.8481  0.1720 -0.4820
  799TIP3    H126592   0.861   0.444  17.110  0.3164  0.4981 -0.8739
  799TIP3    H226593   0.824   0.352  16.995  1.5510  0.0934 -0.9664
  800TIP3   OH226594   2.173   0.598  18.195  0.2403 -0.1247  0.4317
  800TIP3    H126595   2.229   0.537  18.242 -0.0368  1.6119  3.2546
  800TIP3    H226596   2.175   0.678  18.248  0.4264  2.3141 -2.9299
  801TIP3   OH226597   6.286   6.002  19.668  0.1824  0.0288 -0.4823
  801TIP3    H126598   6.274   5.912  19.696  0.5853 -0.2655 -1.2032
  801TIP3    H226599   6.381   6.015  19.669  0.1125  0.5319 -0.1183
  802TIP3   OH226600   6.325   2.127  18.838 -0.4493 -0.1324  0.0826
  802TIP3    H126601   6.369   2.212  18.839  1.1362 -0.8900  2.0510
  802TIP3    H226602   6.286   2.120  18.925 -0.9043 -1.2529 -0.2037
  803TIP3   OH226603   1.464   2.249  18.579 -0.1526 -0.1004  0.3552
  803TIP3    H126604   1.431   2.318  18.636 -0.4931 -0.4227  0.5508
  803TIP3    H226605   1.385   2.203  18.549 -0.0519  0.6044 -1.0672
  804TIP3   OH226606   3.085   1.890  18.785  0.3918 -0.0680 -0.2042
  804TIP3    H126607   3.035   1.966  18.756 -1.4952 -1.6271 -1.2684
  804TIP3    H226608   3.050   1.870  18.872  2.4328  1.4871  1.0950
  805TIP3   OH226609   0.221   0.560  17.801  0.1678 -0.1722  0.5206
  805TIP3    H126610   0.131   0.531  17.818 -0.0225 -0.4499 -0.8470
  805TIP3    H226611   0.267   0.546  17.884 -0.6563 -1.5482  0.7778
  806TIP3   OH226612   3.277   1.268  18.641 -0.2681  0.1523  0.3113
  806TIP3    H126613   3.212   1.212  18.682  0.4721 -0.5060  0.6011
  806TIP3    H226614   3.245   1.357  18.656 -0.6289 -0.1288  1.2526
  807TIP3   OH226615   0.284   1.678  20.024 -0.1316  0.2436 -0.0903
  807TIP3    H126616   0.232   1.709  20.098 -0.2883  0.8483 -0.4531
  807TIP3    H226617   0.282   1.582  20.033 -2.2883  0.1687 -0.7323
  808TIP3   OH226618   3.748   5.115  19.681 -0.1615  0.4920  0.0332
  808TIP3    H126619   3.808   5.041  19.678 -0.5290  0.2014 -0.2388
  808TIP3    H226620   3.785   5.173  19.747 -0.6073 -0.5850  1.2917
  809TIP3   OH226621   4.113   1.946  18.964  0.2917  0.5558 -0.4588
  809TIP3    H126622   4.042   1.902  19.012  2.2472 -0.6806  1.4549
  809TIP3    H226623   4.069   1.987  18.889 -2.2574 -1.1365 -0.0134
  810TIP3   OH226624   1.431   6.450  19.872  0.5065 -0.5065 -0.1700
  810TIP3    H126625   1.367   6.379  19.862 -0.5555  0.4834 -0.5860
  810TIP3    H226626   1.446   6.457  19.966  1.9584 -2.4108 -0.1948
  811TIP3   OH226627   6.192   2.450  18.290 -0.1686 -0.2875  0.3775
  811TIP3    H126628   6.257   2.433  18.222  1.2784  0.3264  1.5506
  811TIP3    H226629   6.148   2.530  18.261 -2.2480 -2.0518 -1.6983
  812TIP3   OH226630   6.563   3.093  17.462  0.7547  0.3586 -0.3785
  812TIP3    H126631   6.504   3.164  17.437  0.2339  0.4676  1.0553
  812TIP3    H226632   6.601   3.122  17.545  1.7587 -0.3401 -0.5794
  813TIP3   OH226633   5.174   0.538  19.676  0.1536  0.1561  0.1670
  813TIP3    H126634   5.229   0.514  19.751  0.9863  0.2360 -0.4021
  813TIP3    H226635   5.236   0.551  19.604 -0.4021  2.3819  0.0170
  814TIP3   OH226636   0.743   4.789  18.828 -0.3408 -0.3425  0.0343
  814TIP3    H126637   0.823   4.841  18.837 -1.3405  1.2766 -0.1144
  814TIP3    H226638   0.697   4.800  18.911 -1.4286  0.5623 -0.6470
  815TIP3   OH226639   5.967   2.131  17.225 -0.0437 -0.3481 -0.1109
  815TIP3    H126640   5.955   2.037  17.240  1.0283 -0.3379  1.0363
  815TIP3    H226641   5.978   2.167  17.313 -1.9179  1.1072 -0.4168
  816TIP3   OH226642   6.272   4.315  18.956 -0.6304  0.4690 -0.3782
  816TIP3    H126643   6.234   4.228  18.945 -1.9743  0.8572  0.7828
  816TIP3    H226644   6.300   4.317  19.048  2.2846  0.2172 -1.1724
  817TIP3   OH226645   2.169   3.282  20.163  0.2374 -0.1067  0.4372
  817TIP3    H126646   2.099   3.217  20.157  0.0789  0.1730 -2.8042
  817TIP3    H226647   2.242   3.235  20.202 -0.2869 -1.9140 -0.6444
  818TIP3   OH226648   0.504   4.157  19.900 -0.0338  0.0318 -0.3951
  818TIP3    H126649   0.444   4.176  19.828  0.2609  2.6017 -0.0670
  818TIP3    H226650   0.457   4.093  19.954 -1.9060  0.9031 -0.8992
  819TIP3   OH226651   0.570   5.609  18.918 -0.1382 -0.4924  0.4142
  819TIP3    H126652   0.662   5.597  18.894 -0.0996 -1.2352  0.9041
  819TIP3    H226653   0.565   5.700  18.949  0.0170  0.1589 -1.3903
  820TIP3   OH226654   4.895   2.086  18.458  0.1484  0.2625  0.0420
  820TIP3    H126655   4.880   2.048  18.371  0.9891 -0.1618  0.0725
  820TIP3    H226656   4.840   2.164  18.460 -0.1549  0.0743 -0.7387
  821TIP3   OH226657   0.542   0.542  17.032  0.0991 -0.8070  0.3050
  821TIP3    H126658   0.619   0.494  17.005  0.0257 -0.2743 -0.9284
  821TIP3    H226659   0.575   0.612  17.089  0.4904 -0.7558  0.0125
  822TIP3   OH226660   1.933   4.420  17.083 -0.7559  0.2532 -0.2593
  822TIP3    H126661   1.988   4.495  17.105 -1.0825 -0.0120  1.6340
  822TIP3    H226662   1.984   4.344  17.112 -0.8535 -0.2142 -1.2494
  823TIP3   OH226663   5.044   6.672  19.332  0.3347 -0.4681 -0.4243
  823TIP3    H126664   5.060   6.579  19.321 -2.3034 -0.7978 -2.5916
  823TIP3    H226665   4.992   6.679  19.412  0.1558 -0.9374 -0.4978
  824TIP3   OH226666   3.365   0.818  19.853 -0.3101  0.1227  0.0153
  824TIP3    H126667   3.321   0.745  19.898  0.5812 -0.8291 -0.6063
  824TIP3    H226668   3.322   0.823  19.767 -0.3235  0.2848  0.0306
  825TIP3   OH226669   6.745   5.974  19.440  0.0040  0.3187 -0.3057
  825TIP3    H126670   6.798   5.975  19.360 -0.0510  1.3242 -0.3341
  825TIP3    H226671   6.677   5.909  19.421 -0.6873  1.3388 -1.5474
  826TIP3   OH226672   1.926   3.526  18.361  0.1167 -0.1083  0.7426
  826TIP3    H126673   2.013   3.543  18.397  0.9852 -0.5475 -1.0486
  826TIP3    H226674   1.910   3.434  18.382  0.8477 -0.5133 -0.3873
  827TIP3   OH226675   1.779   4.503  18.567 -0.1553 -0.6698  0.7950
  827TIP3    H126676   1.867   4.494  18.604  0.6449 -0.0101 -0.8522
  827TIP3    H226677   1.788   4.568  18.498 -2.2969  0.6172  1.6142
  828TIP3   OH226678   0.513   1.268  17.802 -0.0686  0.6510  0.2032
  828TIP3    H126679   0.574   1.333  17.836  1.4062 -0.4240 -0.2510
  828TIP3    H226680   0.466   1.235  17.879  0.6437  0.7872  0.7021
  829TIP3   OH226681   2.513   1.643  17.258  0.0709 -0.2569  0.2852
  829TIP3    H126682   2.555   1.626  17.173 -0.7381  0.3586 -0.2568
  829TIP3    H226683   2.485   1.734  17.252 -0.6892 -0.4429  0.9071
  830TIP3   OH226684   3.350   0.179  18.661 -0.2324 -0.0495  0.1940
  830TIP3    H126685   3.425   0.133  18.624  0.9482  1.4255  0.7089
  830TIP3    H226686   3.325   0.127  18.738 -0.6285 -1.2851 -0.7330
  831TIP3   OH226687   2.564   4.485  19.726 -0.3405 -0.6822 -0.6334
  831TIP3    H126688   2.554   4.436  19.807 -0.1611 -0.2833 -0.3637
  831TIP3    H226689   2.635   4.441  19.679  0.6280  0.0228  0.1437
  832TIP3   OH226690   5.683   4.425  20.375 -0.2270  0.1890 -0.3423
  832TIP3    H126691   5.753   4.419  20.311  0.3939  1.1206  0.2243
  832TIP3    H226692   5.715   4.377  20.451 -0.4149  0.2009 -0.2544
  833TIP3   OH226693   6.647   0.858  18.842  0.2421 -0.7949 -0.1556
  833TIP3    H126694   6.596   0.811  18.908  0.5425 -0.3317  0.4087
  833TIP3    H226695   6.637   0.950  18.865  2.3385 -0.7305  0.7305
  834TIP3   OH226696   1.577   4.300  20.149  0.2756  0.0493 -0.7792
  834TIP3    H126697   1.633   4.362  20.194  1.1055 -1.1515 -0.1261
  834TIP3    H226698   1.634   4.227  20.126 -0.7957 -0.7566 -0.9882
  835TIP3   OH226699   4.420   3.022  18.927 -0.0127  0.2081  0.2135
  835TIP3    H126700   4.397   3.031  18.834  0.8224  0.3695  0.0162
  835TIP3    H226701   4.337   3.033  18.973 -0.3445  0.7168 -0.4828
  836TIP3   OH226702   0.573   4.565  18.124 -0.3724 -0.7730  0.4842
  836TIP3    H126703   0.570   4.660  18.136  0.8715 -0.3500 -1.8292
  836TIP3    H226704   0.484   4.541  18.095 -0.5718 -0.2329  0.6477
  837TIP3   OH226705   6.578   3.476  20.079 -0.1241 -0.0134  0.5052
  837TIP3    H126706   6.545   3.390  20.050  0.4056  0.0083 -0.1991
  837TIP3    H226707   6.673   3.469  20.071 -0.1181  0.9717 -0.5553
  838TIP3   OH226708   4.196   5.790  18.713  0.9184 -0.1639 -0.1991
  838TIP3    H126709   4.186   5.717  18.775  1.0817  0.1000  0.1436
  838TIP3    H226710   4.112   5.795  18.668  0.6200 -0.0471  0.3566
  839TIP3   OH226711   2.954   3.144  19.576 -0.3696 -0.0306  0.1703
  839TIP3    H126712   3.021   3.099  19.525 -1.6719 -2.6327  0.5822
  839TIP3    H226713   2.935   3.223  19.526  1.0990 -0.5636 -1.3336
  840TIP3   OH226714   5.138   3.710  20.175 -0.5609 -0.3850  0.6546
  840TIP3    H126715   5.183   3.628  20.155  0.4891  0.9109 -3.0205
  840TIP3    H226716   5.049   3.697  20.141 -0.1041  0.2612 -0.8688
  841TIP3   OH226717   6.535   5.061  17.442  0.0125 -0.0768  0.2724
  841TIP3    H126718   6.466   4.995  17.433 -0.2534  0.2602 -0.2262
  841TIP3    H226719   6.550   5.092  17.353  0.5898  0.0839  0.4198
  842TIP3   OH226720   5.234   6.123  19.855  0.1710 -0.5872  0.1569
  842TIP3    H126721   5.216   6.209  19.893  1.7407 -0.8949  1.7319
  842TIP3    H226722   5.298   6.084  19.914  1.2839 -1.9109 -1.8021
  843TIP3   OH226723   1.378   5.041  18.769  0.5884 -0.5123 -0.3970
  843TIP3    H126724   1.418   4.955  18.780 -0.3919 -0.8974  0.2654
  843TIP3    H226725   1.328   5.055  18.850 -0.8082 -0.1660 -1.2845
  844TIP3   OH226726   2.306   0.909  18.887  0.5621  0.2337  0.3875
  844TIP3    H126727   2.305   0.873  18.798 -1.0570  1.0114  0.0624
  844TIP3    H226728   2.247   0.984  18.883  0.2858  0.1488  2.1812
  845TIP3   OH226729   1.382   4.600  18.688  0.2118 -0.3111 -0.1385
  845TIP3    H126730   1.399   4.571  18.598  1.5307 -0.8657  0.2677
  845TIP3    H226731   1.469   4.617  18.724 -0.1996 -1.5947  1.5377
  846TIP3   OH226732   1.440   1.007  18.278  0.1966  0.4393  0.3524
  846TIP3    H126733   1.513   1.068  18.272  0.3654  0.1451 -1.0490
  846TIP3    H226734   1.480   0.921  18.277 -0.1697  0.2469 -1.4906
  847TIP3   OH226735   5.756   0.680  20.371  0.0491 -0.5096  0.1658
  847TIP3    H126736   5.687   0.697  20.307  1.2103  1.2714 -0.7019
  847TIP3    H226737   5.768   0.764  20.416  0.6025 -1.2099  1.3584
  848TIP3   OH226738   5.547   0.917  17.781 -0.1503 -0.6867 -0.1309
  848TIP3    H126739   5.574   0.875  17.863 -0.6392 -0.8611 -0.0523
  848TIP3    H226740   5.451   0.919  17.787 -0.1296  1.8386  0.5733
  849TIP3   OH226741   5.397   4.378  18.956 -0.5329 -0.1569  0.0429
  849TIP3    H126742   5.417   4.285  18.960  2.0479  0.3390  0.2110
  849TIP3    H226743   5.400   4.407  19.047 -2.2516 -0.0479  0.0896
  850TIP3   OH226744   1.626   1.917  17.050  0.5575 -1.0937  0.7199
  850TIP3    H126745   1.707   1.967  17.045 -0.5158  0.5560 -2.4746
  850TIP3    H226746   1.572   1.966  17.112  0.7628 -0.1936  0.2039
  851TIP3   OH226747   5.713   1.929  16.406  0.3550  0.0794  0.1901
  851TIP3    H126748   5.622   1.903  16.423  0.4813 -1.6137 -1.4198
  851TIP3    H226749   5.705   2.013  16.360 -0.3847  0.0353  0.2254
  852TIP3   OH226750   1.572   5.787  19.754 -0.2813  0.4810 -0.0684
  852TIP3    H126751   1.584   5.767  19.847  0.8357 -1.2124 -0.5563
  852TIP3    H226752   1.645   5.845  19.732  0.0984 -0.0397 -0.1696
  853TIP3   OH226753   3.031   5.942  18.405 -0.0092  0.2481 -0.2085
  853TIP3    H126754   3.074   5.856  18.407  0.5309  0.3322 -3.2840
  853TIP3    H226755   2.944   5.925  18.443  0.5252 -1.3480  0.4181
  854TIP3   OH226756   3.512   5.272  19.044 -0.5938  0.2732 -0.0723
  854TIP3    H126757   3.580   5.339  19.034 -0.5247  0.2103 -0.0207
  854TIP3    H226758   3.560   5.190  19.050 -0.7317  0.0002 -1.9854
  855TIP3   OH226759   2.474   1.390  17.997  0.3030 -0.3564  0.0655
  855TIP3    H126760   2.559   1.425  18.025  0.4650 -1.0512  0.4562
  855TIP3    H226761   2.475   1.299  18.025 -0.2129 -0.6186 -0.7334
  856TIP3   OH226762   2.160   1.206  18.730 -0.3186  0.2935  0.2875
  856TIP3    H126763   2.141   1.268  18.801 -0.5475  0.6756 -0.1023
  856TIP3    H226764   2.241   1.239  18.691  0.0957 -0.2143  0.6934
  857TIP3   OH226765   4.137   3.163  18.349 -0.8528 -0.1829 -0.1968
  857TIP3    H126766   4.095   3.110  18.282 -0.0961 -0.4398 -0.4787
  857TIP3    H226767   4.142   3.107  18.426 -0.3407 -0.4158 -0.3975
  858TIP3   OH226768   3.128   0.229  17.967 -0.2994 -0.1036  0.2732
  858TIP3    H126769   3.187   0.300  17.992  0.8331 -1.7633  2.7397
  858TIP3    H226770   3.040   0.263  17.984  0.0396  1.5086 -0.9711
  859TIP3   OH226771   2.984   0.522  18.244  0.1240  0.2643  0.0450
  859TIP3    H126772   3.043   0.504  18.317  0.4356 -0.2541 -0.3342
  859TIP3    H226773   2.957   0.613  18.258 -0.0464  0.0893  0.9653
  860TIP3   OH226774   2.066   6.697  18.434 -0.0498 -0.0844 -0.1531
  860TIP3    H126775   2.031   6.747  18.360 -2.7441 -1.9102 -0.2599
  860TIP3    H226776   2.071   6.761  18.506  0.5084  1.2044 -1.2931
  861TIP3   OH226777   2.373   1.293  19.478 -0.5365 -0.1193 -0.0043
  861TIP3    H126778   2.282   1.265  19.487 -0.4662 -0.3092  0.1176
  861TIP3    H226779   2.417   1.219  19.435 -0.1314 -0.6332  1.2419
  862TIP3   OH226780   2.014   0.422  19.870  0.4411 -0.0441 -0.0762
  862TIP3    H126781   1.956   0.483  19.915 -0.7435  1.5157 -3.3407
  862TIP3    H226782   2.088   0.475  19.840 -0.0168 -0.3634 -1.9505
  863TIP3   OH226783   3.683   4.613  18.467  0.3904 -0.5910 -0.2224
  863TIP3    H126784   3.639   4.698  18.478  2.3086  0.7856 -2.2516
  863TIP3    H226785   3.719   4.593  18.553 -1.6514 -0.3412  0.7627
  864TIP3   OH226786   6.666   4.603  18.093 -0.3873  0.0519 -0.0396
  864TIP3    H126787   6.698   4.651  18.016  0.1609 -1.8495 -1.0490
  864TIP3    H226788   6.587   4.650  18.119  0.1009  1.4718 -0.9921
  865TIP3   OH226789   6.578   3.320  18.121 -0.1516 -0.5153  0.4551
  865TIP3    H126790   6.574   3.386  18.190 -1.9305 -0.1565  0.0720
  865TIP3    H226791   6.584   3.370  18.040 -1.7917 -0.7653  0.1431
  866TIP3   OH226792   3.608   1.858  19.279 -0.1144 -0.1256  0.4433
  866TIP3    H126793   3.627   1.944  19.240  0.5564 -0.1811  0.6481
  866TIP3    H226794   3.682   1.841  19.337 -0.8035 -0.3234  1.2837
  867TIP3   OH226795   4.451   3.834  18.059  0.0132  0.0551 -0.5044
  867TIP3    H126796   4.545   3.847  18.065 -0.2189  1.1021  2.4794
  867TIP3    H226797   4.414   3.922  18.066 -1.2122 -0.5408  0.9792
  868TIP3   OH226798   0.722   5.372  19.149 -0.1649 -0.1644 -0.2809
  868TIP3    H126799   0.815   5.354  19.132 -0.3492 -1.6065  0.1383
  868TIP3    H226800   0.682   5.376  19.062 -0.1280 -2.0413 -0.4204
  869TIP3   OH226801   2.286   4.186  16.569  0.2873 -0.1970 -0.3950
  869TIP3    H126802   2.307   4.100  16.533 -1.3358 -0.1859 -1.4657
  869TIP3    H226803   2.285   4.244  16.494  0.5347  0.6011  0.2063
  870TIP3   OH226804   5.596   0.765  18.734  0.5210 -0.0691  0.3234
  870TIP3    H126805   5.640   0.792  18.814 -0.0226  0.4619  0.4514
  870TIP3    H226806   5.661   0.713  18.687  1.3861  0.9572  0.3613
  871TIP3   OH226807   1.444   3.059  19.205 -0.3266 -0.3062  0.1280
  871TIP3    H126808   1.533   3.063  19.241 -0.2379 -0.2289 -0.1011
  871TIP3    H226809   1.450   3.102  19.120 -0.5656 -0.3769  0.0747
  872TIP3   OH226810   1.276   5.107  19.010 -0.5992  0.2534 -0.0526
  872TIP3    H126811   1.187   5.080  19.032 -0.7219 -0.5901 -1.4318
  872TIP3    H226812   1.331   5.065  19.077 -0.9962 -1.7623 -0.9066
  873TIP3   OH226813   0.901   0.715  16.908  0.0192 -0.5549 -0.1800
  873TIP3    H126814   0.984   0.745  16.946 -0.1919  1.2637 -1.0164
  873TIP3    H226815   0.888   0.627  16.944  0.8680  0.2196  2.2296
  874TIP3   OH226816   4.230   5.537  17.571  0.0074 -0.1111 -0.4869
  874TIP3    H126817   4.304   5.529  17.511  1.6542 -1.0434  1.5551
  874TIP3    H226818   4.193   5.449  17.576 -0.6543  0.1440 -0.7661
  875TIP3   OH226819   6.241   3.745  20.169 -0.3977 -0.1859  0.0678
  875TIP3    H126820   6.154   3.785  20.166 -0.6615 -0.7968 -0.8072
  875TIP3    H226821   6.300   3.814  20.138 -0.3549  0.7090  1.9989
  876TIP3   OH226822   4.730   3.412  18.445  0.0648 -0.2320 -0.5380
  876TIP3    H126823   4.641   3.438  18.470 -0.0957 -0.7841 -0.5054
  876TIP3    H226824   4.717   3.352  18.371  0.5550  1.9805 -2.5482
  877TIP3   OH226825   0.377   0.319  18.411 -0.1384  0.3942  0.1103
  877TIP3    H126826   0.429   0.308  18.331  0.2530  0.0859  0.4013
  877TIP3    H226827   0.355   0.412  18.413 -0.7629  0.2769 -0.7263
  878TIP3   OH226828   6.100   1.393  19.865  0.0309 -0.2429  0.6125
  878TIP3    H126829   6.052   1.468  19.899  0.2040 -0.6955  1.9230
  878TIP3    H226830   6.117   1.339  19.942  0.6704 -1.1962 -0.1751
  879TIP3   OH226831   5.636   6.067  20.134 -0.1190  0.6182  0.4853
  879TIP3    H126832   5.704   6.047  20.197 -0.3477 -1.9044  0.0179
  879TIP3    H226833   5.678   6.058  20.049 -0.4098  1.6819  0.2038
  880TIP3   OH226834   0.034   4.531  20.043 -0.1492  0.2156 -0.1412
  880TIP3    H126835  -0.009   4.614  20.025  0.3365  1.1697  2.6341
  880TIP3    H226836  -0.038   4.471  20.064 -0.4960 -0.1075 -2.0795
  881TIP3   OH226837   0.073   2.440  20.180 -0.1987 -0.1535  0.1171
  881TIP3    H126838   0.043   2.349  20.181  0.0184 -0.2226  0.8092
  881TIP3    H226839   0.085   2.460  20.087 -0.4431 -0.7627 -0.0526
  882TIP3   OH226840   1.716   3.053  19.122 -0.3237 -0.1151  0.2084
  882TIP3    H126841   1.777   3.117  19.157  0.2349  0.1552 -1.2067
  882TIP3    H226842   1.770   2.977  19.099 -0.4318  0.2124 -1.2727
  883TIP3   OH226843   4.321   2.354  17.250  0.5377 -0.1347 -0.6156
  883TIP3    H126844   4.409   2.317  17.244  1.5086  1.9888 -0.5502
  883TIP3    H226845   4.291   2.361  17.160  1.1760  0.7239 -0.7744
  884TIP3   OH226846   5.281   3.377  16.927 -0.1118 -0.3823  0.1921
  884TIP3    H126847   5.258   3.470  16.917 -1.5789 -0.8053 -0.6300
  884TIP3    H226848   5.321   3.353  16.844  0.1857 -0.5264  0.3738
  885TIP3   OH226849   0.388   1.638  17.412 -0.2466  0.4698 -0.4222
  885TIP3    H126850   0.406   1.587  17.491 -0.8313 -0.3117 -0.7768
  885TIP3    H226851   0.357   1.573  17.349 -0.4937  1.1973 -1.0605
  886TIP3   OH226852   2.530   1.340  16.957 -0.0235  0.2128 -0.3200
  886TIP3    H126853   2.566   1.426  16.979  1.6068 -0.4829 -0.1729
  886TIP3    H226854   2.545   1.287  17.035  0.5869 -0.6800 -1.0180
  887TIP3   OH226855   1.960   5.186  19.716 -0.0323  0.1528 -0.3288
  887TIP3    H126856   1.981   5.163  19.806  0.4114 -0.9098 -0.6954
  887TIP3    H226857   1.906   5.113  19.684 -1.3454  1.1560 -0.5110
  888TIP3   OH226858   4.641   6.024  18.924  0.3084  0.2699 -0.3986
  888TIP3    H126859   4.683   5.958  18.979 -0.3662  1.3300  1.4814
  888TIP3    H226860   4.559   5.982  18.896 -0.4002  0.4472  1.2702
  889TIP3   OH226861   2.328   3.290  17.506 -0.1844  0.0960 -0.3322
  889TIP3    H126862   2.372   3.205  17.507 -0.7281 -0.1921 -0.3011
  889TIP3    H226863   2.243   3.272  17.466 -0.4533  0.5532  0.0267
  890TIP3   OH226864   5.533   4.218  18.633  0.3907  0.7982  0.1541
  890TIP3    H126865   5.493   4.181  18.712  1.9346 -0.9306  0.2040
  890TIP3    H226866   5.619   4.249  18.663  0.6581  0.8575 -0.6703
  891TIP3   OH226867   0.089   3.079  17.382  0.3581  0.2015 -0.0884
  891TIP3    H126868   0.123   3.158  17.424  0.0037  0.7899 -0.8831
  891TIP3    H226869  -0.004   3.078  17.405  1.0064 -2.0822  3.1538
  892TIP3   OH226870   4.812   0.596  17.152  0.1617 -0.2497  0.0337
  892TIP3    H126871   4.794   0.661  17.219  0.8713 -1.5616  1.5688
  892TIP3    H226872   4.725   0.564  17.126 -0.1539  0.8045 -0.2678
  893TIP3   OH226873   5.031   4.750  20.367 -0.0495  0.0912 -0.4901
  893TIP3    H126874   5.030   4.659  20.396  1.9169  0.3878  0.7102
  893TIP3    H226875   5.099   4.753  20.300  1.8546  1.1281  1.3816
  894TIP3   OH226876   1.769   5.010  17.931  0.6520 -0.0358 -0.3593
  894TIP3    H126877   1.836   5.053  17.878  0.5639 -1.0872 -1.3475
  894TIP3    H226878   1.755   4.925  17.889 -1.9027  0.4749 -0.6691
  895TIP3   OH226879   0.102   1.471  17.742  0.0938  0.3799  0.5370
  895TIP3    H126880   0.013   1.438  17.734  0.7218 -1.3206  0.1524
  895TIP3    H226881   0.107   1.542  17.678  0.0033 -1.7952 -2.0262
  896TIP3   OH226882   1.746   3.684  18.230 -0.2530 -0.3051 -0.3628
  896TIP3    H126883   1.815   3.697  18.166 -0.6230 -1.0593 -0.9394
  896TIP3    H226884   1.791   3.666  18.312  0.2714  2.9649  0.1834
  897TIP3   OH226885   5.269   3.960  20.318  0.2663  0.2750 -0.1704
  897TIP3    H126886   5.210   3.895  20.281  0.3635 -0.6790  1.2708
  897TIP3    H226887   5.351   3.913  20.334  0.6001  0.9431  0.1503
  898TIP3   OH226888   2.437   3.137  17.303  0.6089 -0.3810  0.1801
  898TIP3    H126889   2.496   3.210  17.282  1.1801 -1.0575 -0.6122
  898TIP3    H226890   2.349   3.174  17.289  0.9113 -0.4818 -2.6476
  899TIP3   OH226891   2.779   3.749  19.102  0.3127  0.4151 -0.2237
  899TIP3    H126892   2.706   3.742  19.163 -0.6036  1.9107 -1.0861
  899TIP3    H226893   2.842   3.806  19.146  0.5344 -0.1090  0.1361
  900TIP3   OH226894   2.826   1.891  16.855 -0.1195 -0.4749 -0.0974
  900TIP3    H126895   2.899   1.876  16.915  1.4871 -0.3681 -1.9220
  900TIP3    H226896   2.796   1.979  16.874  1.1251 -0.0144 -0.1930
  901TIP3   OH226897   0.481   3.038  19.407 -0.1885  0.2684 -0.1244
  901TIP3    H126898   0.526   3.086  19.477 -0.0215 -1.1116  0.7485
  901TIP3    H226899   0.551   2.988  19.364 -0.1602  1.6524 -1.7972
  902TIP3   OH226900   5.606   5.559  18.156 -0.1735  0.5381 -0.0252
  902TIP3    H126901   5.627   5.602  18.073  0.5305 -1.2905 -0.8633
  902TIP3    H226902   5.673   5.491  18.165 -2.5563 -2.0145 -0.0825
  903TIP3   OH226903   1.999   2.943  19.591  0.0175 -0.4053  0.0124
  903TIP3    H126904   2.085   2.951  19.632  1.3669 -0.7264 -2.5070
  903TIP3    H226905   2.008   2.990  19.508 -2.2018 -0.5991 -0.3940
  904TIP3   OH226906   1.961   4.342  18.253  0.1056  0.4157 -0.0583
  904TIP3    H126907   2.031   4.377  18.199  1.0207 -0.4466  0.5329
  904TIP3    H226908   1.960   4.248  18.234  1.9281 -0.3545  2.8825
  905TIP3   OH226909   3.657   0.592  18.950 -0.2198  0.2204 -0.6313
  905TIP3    H126910   3.604   0.656  18.997  0.0285  0.1174 -0.1994
  905TIP3    H226911   3.620   0.589  18.862 -1.1799 -0.1357 -0.2318
  906TIP3   OH226912   6.566   6.007  19.685  0.4460  0.6684  0.4361
  906TIP3    H126913   6.609   5.924  19.704 -1.0972 -0.2793  0.0260
  906TIP3    H226914   6.635   6.063  19.652  2.0282  0.3891  3.0213
  907TIP3   OH226915   0.621   5.734  18.031 -0.0122  0.1084  0.2415
  907TIP3    H126916   0.587   5.789  17.960 -0.5705  1.0459  1.2178
  907TIP3    H226917   0.574   5.762  18.109 -0.2938 -1.7666  0.7873
  908TIP3   OH226918   6.478   5.900  17.134  0.4420  0.0669 -0.2112
  908TIP3    H126919   6.494   5.995  17.135 -3.3501  0.8554 -0.1139
  908TIP3    H226920   6.448   5.882  17.045 -0.5361 -0.6834  0.2592
  909TIP3   OH226921   0.519   0.618  20.364 -0.0386 -0.1806 -0.5215
  909TIP3    H126922   0.433   0.595  20.330  0.3039  0.5896 -1.9872
  909TIP3    H226923   0.579   0.557  20.321  0.2210 -0.2991  0.0015
  910TIP3   OH226924   4.065   2.541  17.225 -0.2185 -0.2844  0.2665
  910TIP3    H126925   4.090   2.519  17.315  2.1902  0.6086 -0.1100
  910TIP3    H226926   4.116   2.480  17.171 -2.1101 -1.2322 -0.5285
  911TIP3   OH226927   0.133   4.080  17.512  0.1013  0.0817  0.0432
  911TIP3    H126928   0.082   4.157  17.538 -0.6877 -0.5165  0.3278
  911TIP3    H226929   0.144   4.088  17.418 -0.3531  0.3226  0.0091
  912TIP3   OH226930   5.307   1.263  17.452 -0.4832 -0.1386 -0.1149
  912TIP3    H126931   5.246   1.230  17.519 -0.1170  1.1880  0.9133
  912TIP3    H226932   5.372   1.313  17.501 -1.8940  3.5711 -1.5978
  913TIP3   OH226933   2.039   5.679  19.820 -0.0322 -0.0075  0.6581
  913TIP3    H126934   1.991   5.723  19.750 -1.1423  1.4959  2.2822
  913TIP3    H226935   2.131   5.694  19.799 -0.2384 -1.4313 -1.5682
  914TIP3   OH226936   4.587   0.400  18.971 -0.4170  0.4512 -0.5634
  914TIP3    H126937   4.588   0.437  18.883 -2.7872 -0.4084 -1.0338
  914TIP3    H226938   4.562   0.474  19.028  0.4927  0.8569 -0.6739
  915TIP3   OH226939   1.096   0.510  18.763  0.1619  0.2089 -0.8152
  915TIP3    H126940   1.133   0.599  18.762  0.8808 -0.0781 -0.1708
  915TIP3    H226941   1.171   0.453  18.778 -0.4197 -0.4517 -0.3952
  916TIP3   OH226942   5.420   6.135  19.593  0.0763  0.3930  0.3797
  916TIP3    H126943   5.336   6.088  19.590  0.8128 -1.2840  2.6187
  916TIP3    H226944   5.406   6.207  19.655  0.1614  0.3465  0.4556
  917TIP3   OH226945   3.823   4.016  17.625  0.3256  0.0530  0.3612
  917TIP3    H126946   3.788   3.996  17.712  0.8566 -3.4001 -0.0535
  917TIP3    H226947   3.758   3.979  17.565  1.8114 -1.1845 -0.5571
  918TIP3   OH226948   3.614   4.574  18.948  0.0110 -0.1581  0.3545
  918TIP3    H126949   3.571   4.494  18.919  0.6745  0.2245 -1.8332
  918TIP3    H226950   3.552   4.614  19.009 -1.0844 -1.4542  0.1314
  919TIP3   OH226951   3.552   0.808  18.629  0.7632 -0.1982  0.1831
  919TIP3    H126952   3.627   0.843  18.677  0.5015 -0.1695  0.5839
  919TIP3    H226953   3.506   0.885  18.595 -1.0575  0.0897  2.9326
  920TIP3   OH226954   5.545   4.438  17.289 -0.2798  0.0073  0.0041
  920TIP3    H126955   5.492   4.363  17.264  0.2069 -0.2240 -0.3617
  920TIP3    H226956   5.519   4.507  17.228 -0.1193 -0.1216 -0.2104
  921TIP3   OH226957   1.426   3.741  19.249 -0.4707  0.3284 -0.2335
  921TIP3    H126958   1.436   3.651  19.280  0.8149  1.1002  1.7872
  921TIP3    H226959   1.352   3.738  19.189 -2.5802 -1.5060  2.2636
  922TIP3   OH226960   4.701   4.339  17.946 -0.0389  0.1709  0.0755
  922TIP3    H126961   4.711   4.434  17.951  0.7120  0.0351  1.5692
  922TIP3    H226962   4.619   4.326  17.898 -0.0887  1.5599 -0.2413
  923TIP3   OH226963   4.535   5.016  19.826 -0.1067 -0.2064 -0.0718
  923TIP3    H126964   4.576   4.997  19.742  0.7425  0.7503  0.1093
  923TIP3    H226965   4.607   5.011  19.889 -0.3488  0.9896  0.3222
  924TIP3   OH226966   3.245   4.308  17.045 -0.4889  1.0381  0.6047
  924TIP3    H126967   3.168   4.278  16.997 -0.7482  0.4569  1.3587
  924TIP3    H226968   3.314   4.248  17.017 -1.0077 -0.3385  2.1134
  925TIP3   OH226969   0.384   0.272  18.148  0.2645  0.3078  0.0691
  925TIP3    H126970   0.454   0.334  18.126  0.4030  0.5292  1.0917
  925TIP3    H226971   0.303   0.319  18.129  0.3294  1.3470  2.1043
  926TIP3   OH226972   0.548   6.156  18.100  0.3526  0.1278 -0.2896
  926TIP3    H126973   0.483   6.153  18.030  0.3237 -0.3928 -0.2424
  926TIP3    H226974   0.629   6.124  18.059  0.8261  1.6408 -0.6053
  927TIP3   OH226975   3.650   0.438  18.375  0.5848  0.7065 -0.3650
  927TIP3    H126976   3.573   0.482  18.338 -0.4083 -0.0256  0.7612
  927TIP3    H226977   3.719   0.505  18.373 -0.6676  2.1042  0.5647
  928TIP3   OH226978   4.629   4.828  20.162 -0.0486  0.3467  0.1020
  928TIP3    H126979   4.540   4.855  20.139  0.2072  0.4882 -0.7963
  928TIP3    H226980   4.634   4.736  20.136 -0.2384  0.0523  1.0898
  929TIP3   OH226981   4.786   1.275  17.137 -0.0634  0.2846 -0.3532
  929TIP3    H126982   4.702   1.316  17.116 -0.3762 -0.4069 -0.4981
  929TIP3    H226983   4.762   1.189  17.172  0.5195  0.7301  1.1870
  930TIP3   OH226984   4.377   1.391  17.288 -0.4536 -0.0626 -0.7770
  930TIP3    H126985   4.354   1.386  17.380  0.6872 -1.3607 -0.5381
  930TIP3    H226986   4.292   1.401  17.243 -1.0431  0.2315  0.3641
  931TIP3   OH226987   5.383   1.721  18.871 -0.0930 -0.0079  0.1014
  931TIP3    H126988   5.348   1.798  18.827 -2.3340 -1.3043 -0.4929
  931TIP3    H226989   5.321   1.704  18.942  0.1879 -1.4613  0.0147
  932TIP3   OH226990   3.530   0.150  18.906  0.3478  0.2876 -0.1478
  932TIP3    H126991   3.516   0.167  18.999  1.2953  0.8331 -0.0862
  932TIP3    H226992   3.615   0.189  18.887  0.7975 -0.9986 -0.9437
  933TIP3   OH226993   0.419   5.784  17.527  0.2727  0.0121  0.1565
  933TIP3    H126994   0.433   5.690  17.525 -1.5605 -0.2839 -1.3910
  933TIP3    H226995   0.474   5.819  17.456  2.2230  0.3959  1.7395
  934TIP3   OH226996   2.252   1.459  18.296  0.4123 -0.6675 -0.1469
  934TIP3    H126997   2.246   1.490  18.386  2.6164 -0.0232 -0.1679
  934TIP3    H226998   2.168   1.483  18.256  0.2149  0.9608  1.1460
  935TIP3   OH226999   0.565   1.148  18.536  0.2297 -0.2193  0.4787
  935TIP3    H127000   0.592   1.061  18.508  0.0171  0.4931 -2.3161
  935TIP3    H227001   0.630   1.174  18.601  1.6893 -1.5655 -0.3667
  936TIP3   OH227002   0.357   1.262  19.226  0.0973 -0.0453 -0.3293
  936TIP3    H127003   0.334   1.173  19.198  3.0297 -0.8749 -0.4656
  936TIP3    H227004   0.300   1.280  19.300  0.0863 -2.4736  0.3337
  937TIP3   OH227005   5.045   5.087  18.693 -0.5742 -0.6077  0.3215
  937TIP3    H127006   4.965   5.053  18.732 -1.8383  0.0038 -1.6206
  937TIP3    H227007   5.072   5.157  18.752  0.9116 -3.3568  3.2383
  938TIP3   OH227008   0.359   1.942  18.498 -0.5347  0.5161 -0.4369
  938TIP3    H127009   0.408   1.903  18.571 -0.7470  0.8807 -0.0951
  938TIP3    H227010   0.404   1.910  18.420 -0.0747  0.4161 -0.1391
  939TIP3   OH227011   3.493   2.365  17.309 -0.1090  0.1519  0.1063
  939TIP3    H127012   3.496   2.277  17.269 -0.9088  0.8602 -1.6364
  939TIP3    H227013   3.536   2.421  17.245 -0.3108  1.1640  0.8478
  940TIP3   OH227014   2.573   4.953  17.394  0.4494  0.2552 -0.4435
  940TIP3    H127015   2.523   4.984  17.469  0.9555  0.3222 -0.1290
  940TIP3    H227016   2.537   5.001  17.320  2.2153  2.7825  0.2150
  941TIP3   OH227017   4.870   1.592  17.510 -0.4345  0.1176 -0.1578
  941TIP3    H127018   4.947   1.626  17.554  0.0339 -0.1405 -0.7654
  941TIP3    H227019   4.904   1.548  17.432 -1.1521 -0.4133 -0.1867
  942TIP3   OH227020   1.105   2.296  20.019  0.2186  0.1721 -0.2333
  942TIP3    H127021   1.092   2.287  19.925  0.7244 -2.3140 -0.1352
  942TIP3    H227022   1.197   2.272  20.032  0.0307  0.0358  0.9297
  943TIP3   OH227023   5.552   1.725  20.435 -0.1654  0.5932 -0.6428
  943TIP3    H127024   5.585   1.762  20.517 -0.3891 -0.3247 -0.1190
  943TIP3    H227025   5.593   1.778  20.366 -0.1338  1.5036  0.0609
  944TIP3   OH227026   1.998   0.180  19.743  0.3115 -0.5492  0.0977
  944TIP3    H127027   1.908   0.185  19.713  0.1971 -1.2870  0.2869
  944TIP3    H227028   2.010   0.257  19.798 -0.0988 -0.2696 -0.2048
  945TIP3   OH227029   4.326   6.489  18.510 -0.3442 -0.1010 -0.2104
  945TIP3    H127030   4.312   6.504  18.604  1.6143 -2.1793  0.5002
  945TIP3    H227031   4.260   6.424  18.487 -2.2646  1.9410 -0.9047
  946TIP3   OH227032   2.277   1.818  18.024 -0.2784 -0.2737 -0.4349
  946TIP3    H127033   2.319   1.847  18.105  0.4113 -0.3294 -0.7593
  946TIP3    H227034   2.333   1.746  17.993 -0.1047  0.2333 -1.3420
  947TIP3   OH227035   2.866   3.401  20.016  0.3634 -0.2554 -0.4633
  947TIP3    H127036   2.934   3.432  20.077  0.5784  0.9587 -1.2883
  947TIP3    H227037   2.909   3.332  19.965  0.7377 -0.0298 -0.4578
  948TIP3   OH227038   0.159   1.256  20.346  0.4380  0.7597 -0.4209
  948TIP3    H127039   0.208   1.234  20.267  0.5916  0.4744 -0.2469
  948TIP3    H227040   0.188   1.344  20.369  0.3733  0.8520 -0.6991
  949TIP3   OH227041   3.334   0.415  19.329  0.4022 -0.2906 -0.3048
  949TIP3    H127042   3.333   0.322  19.351  1.3339 -0.3757 -0.6049
  949TIP3    H227043   3.293   0.458  19.404 -2.9361 -1.1875 -1.4477
  950TIP3   OH227044   1.072   1.680  17.712  0.4869  0.1346 -0.2575
  950TIP3    H127045   1.106   1.768  17.695  0.0927  0.0562 -1.5287
  950TIP3    H227046   1.036   1.651  17.629 -0.6795 -0.6852  0.5004
  951TIP3   OH227047   3.917   3.254  18.933  0.2371 -0.0255  0.3663
  951TIP3    H127048   3.860   3.230  18.860 -1.1565  2.7764  0.4277
  951TIP3    H227049   3.863   3.244  19.011  0.6735  0.1662  0.6999
  952TIP3   OH227050   3.520   3.444  20.384  0.5552  0.5831  0.1959
  952TIP3    H127051   3.531   3.539  20.375 -0.2445  1.1016  3.4056
  952TIP3    H227052   3.593   3.417  20.439  1.0107 -0.7867 -1.0315
  953TIP3   OH227053   0.003   6.566  18.835  0.2748  0.1050 -0.0125
  953TIP3    H127054   0.004   6.477  18.870 -0.4782  0.5136  1.1032
  953TIP3    H227055  -0.088   6.593  18.839  0.6385  1.3332  0.7483
  954TIP3   OH227056   5.383   0.676  17.979  0.0348  0.5327 -0.2511
  954TIP3    H127057   5.441   0.601  17.966  0.8264  0.7449  1.6911
  954TIP3    H227058   5.295   0.641  17.967  0.4438 -0.4182 -0.5397
  955TIP3   OH227059   4.607   1.869  19.825 -0.0606  0.7370 -0.1425
  955TIP3    H127060   4.579   1.803  19.763 -0.6758 -0.2904  1.1909
  955TIP3    H227061   4.531   1.926  19.836 -0.5275 -0.0569  0.8956
  956TIP3   OH227062   1.459   5.002  18.496  0.0882  0.0418 -0.2600
  956TIP3    H127063   1.424   4.982  18.583 -0.4191  0.3872 -0.3820
  956TIP3    H227064   1.395   4.964  18.436 -0.1914  0.8681 -0.4881
  957TIP3   OH227065   2.807   6.413  19.871  0.0057 -0.2152  0.1453
  957TIP3    H127066   2.812   6.318  19.866 -0.1620 -0.1983 -0.4073
  957TIP3    H227067   2.872   6.444  19.807  0.5169  0.0449  0.7809
  958TIP3   OH227068   4.386   0.167  17.724  0.3849 -0.8207 -0.8581
  958TIP3    H127069   4.298   0.203  17.736  1.7509  2.7661 -0.5687
  958TIP3    H227070   4.394   0.154  17.630 -0.4677 -1.3403 -0.8727
  959TIP3   OH227071   4.516   4.023  17.832  0.0092  0.5424 -0.0642
  959TIP3    H127072   4.565   3.967  17.771 -1.1431  0.9556 -1.4159
  959TIP3    H227073   4.552   4.001  17.918  1.9723  0.2210 -0.9051
  960TIP3   OH227074   0.308   3.681  19.789 -0.3984 -0.1479  0.4220
  960TIP3    H127075   0.316   3.772  19.760  0.1779 -0.2238  0.3278
  960TIP3    H227076   0.381   3.669  19.850 -0.8601 -0.3575  0.9337
  961TIP3   OH227077   6.749   4.297  17.585 -0.2772  0.0565 -0.5507
  961TIP3    H127078   6.789   4.367  17.534 -1.1034 -0.0870 -1.4233
  961TIP3    H227079   6.666   4.333  17.615 -0.2852 -0.2323 -0.2188
  962TIP3   OH227080   5.880   3.746  17.346 -0.1413  0.0210 -0.0381
  962TIP3    H127081   5.969   3.729  17.313  0.8113  1.0192  1.8331
  962TIP3    H227082   5.850   3.822  17.295 -0.4147 -0.9981 -1.4589
  963TIP3   OH227083   0.752   0.401  19.965 -0.0317 -0.1463  0.5380
  963TIP3    H127084   0.735   0.468  19.899 -0.4108 -1.5629 -0.8685
  963TIP3    H227085   0.848   0.400  19.973  0.0447 -0.2409 -0.3069
  964TIP3   OH227086   3.943   3.973  19.039  0.1716 -0.8327 -0.1082
  964TIP3    H127087   3.976   3.898  19.088  0.3351 -0.8788 -0.2882
  964TIP3    H227088   3.903   4.029  19.106 -0.6126 -1.4237 -0.0719
  965TIP3   OH227089   0.974   5.858  16.601  0.0933  0.1292  0.0413
  965TIP3    H127090   0.889   5.818  16.617 -0.5258  1.5606  0.4957
  965TIP3    H227091   1.003   5.889  16.687  0.3356  1.0451 -0.3570
  966TIP3   OH227092   6.511   5.837  19.320  0.3264  0.2611  0.5289
  966TIP3    H127093   6.487   5.752  19.356 -0.7402  0.3536  0.0685
  966TIP3    H227094   6.506   5.825  19.225  1.7188  0.4110  0.4090
  967TIP3   OH227095   2.189   5.986  18.900  0.5251  0.0159 -0.7250
  967TIP3    H127096   2.117   6.040  18.931 -1.3927 -1.8159 -1.7431
  967TIP3    H227097   2.208   6.019  18.812  1.5011  1.0026 -0.1601
  968TIP3   OH227098   5.723   4.076  20.178 -0.0980  0.3832 -0.2332
  968TIP3    H127099   5.648   4.135  20.191 -1.0739 -0.5646 -1.2955
  968TIP3    H227100   5.699   3.996  20.226  0.2043  0.0524 -0.6236
  969TIP3   OH227101   5.150   2.990  19.049  0.1764  0.3894  0.1733
  969TIP3    H127102   5.111   3.009  18.964  1.4654  0.9071 -0.3233
  969TIP3    H227103   5.241   3.016  19.040  0.3712  0.3005  1.6712
  970TIP3   OH227104   5.793   5.042  16.971 -0.6371  0.0802 -0.5614
  970TIP3    H127105   5.865   4.981  16.954  0.8429  1.3108  0.9278
  970TIP3    H227106   5.729   5.023  16.903  0.8742 -1.4098 -1.6512
  971TIP3   OH227107   4.344   4.667  17.306 -0.3423  0.1447 -0.5841
  971TIP3    H127108   4.317   4.656  17.215 -0.0100 -1.0429 -0.5658
  971TIP3    H227109   4.273   4.628  17.357 -0.2154  0.1823 -0.3776
  972TIP3   OH227110   3.482   3.146  17.222  0.1942 -0.5798 -0.3657
  972TIP3    H127111   3.550   3.164  17.287 -2.5349  1.2882  2.2302
  972TIP3    H227112   3.478   3.226  17.169  0.5931 -1.0534 -1.1317
  973TIP3   OH227113   0.195   0.220  18.813  0.4235 -0.0835 -0.1153
  973TIP3    H127114   0.238   0.293  18.859  0.9474  0.0274 -0.7690
  973TIP3    H227115   0.159   0.166  18.884 -1.3491  1.6049  0.3606
  974TIP3   OH227116   2.352   1.209  18.290 -0.3652  0.2428  0.0431
  974TIP3    H127117   2.340   1.304  18.287 -1.2214  0.1546  0.4076
  974TIP3    H227118   2.400   1.188  18.210 -0.7532  0.9086 -0.3681
  975TIP3   OH227119   1.394   2.680  18.892 -0.6692  0.1595 -0.2763
  975TIP3    H127120   1.433   2.767  18.886  1.3330 -0.6911 -0.2204
  975TIP3    H227121   1.418   2.650  18.979  1.8875 -1.8628 -1.5639
  976TIP3   OH227122   1.238   1.179  17.904 -0.0917  0.2016 -0.9635
  976TIP3    H127123   1.224   1.187  17.810 -1.0409 -0.1221 -0.8618
  976TIP3    H227124   1.212   1.089  17.924 -0.8653  0.5788 -0.2300
  977TIP3   OH227125   4.110   0.088  19.108  0.2949 -0.0762  0.3646
  977TIP3    H127126   4.146   0.001  19.089 -1.6149 -1.4065  2.3369
  977TIP3    H227127   4.016   0.074  19.115  0.2298  1.1053  5.1758
  978TIP3   OH227128   2.827   6.573  17.986 -0.3051  0.4652  0.2075
  978TIP3    H127129   2.745   6.568  18.035 -0.1242  1.7186  0.6747
  978TIP3    H227130   2.802   6.554  17.896 -0.5256 -2.5922  0.8162
  979TIP3   OH227131   0.550   5.999  19.496 -0.3778 -0.0785  0.1871
  979TIP3    H127132   0.540   6.021  19.589  1.2803  0.6198  0.2348
  979TIP3    H227133   0.642   6.016  19.477 -0.6778 -0.2479 -1.5926
  980TIP3   OH227134   5.611   1.939  16.829 -0.0532  0.0531  0.1828
  980TIP3    H127135   5.683   1.921  16.768 -1.2866  2.3403 -2.1695
  980TIP3    H227136   5.587   1.853  16.863  4.1378 -0.7611  1.6619
  981TIP3   OH227137   3.068   3.923  19.827 -0.2135 -0.3015 -0.2658
  981TIP3    H127138   2.989   3.889  19.870 -0.3112  1.3790  0.9872
  981TIP3    H227139   3.058   3.898  19.736 -1.4164 -1.4963  0.1598
  982TIP3   OH227140   6.116   3.419  19.075 -0.5000  0.5528 -0.0935
  982TIP3    H127141   6.085   3.392  19.161  0.7642 -1.1416 -0.1058
  982TIP3    H227142   6.160   3.503  19.090 -2.9638  1.8663  0.2998
  983TIP3   OH227143   6.557   5.837  18.332  0.6631 -0.4208 -0.0246
  983TIP3    H127144   6.635   5.888  18.353 -0.3910  1.0898  0.4102
  983TIP3    H227145   6.489   5.871  18.390 -0.9842  0.1920 -2.1617
  984TIP3   OH227146   1.261   5.388  18.937  0.2770 -0.6536  0.1617
  984TIP3    H127147   1.267   5.295  18.961  3.3556 -0.9157 -1.1663
  984TIP3    H227148   1.349   5.410  18.905 -0.7972  2.3166 -1.0712
  985TIP3   OH227149   2.250   5.423  17.437 -0.1441  0.3389  0.1272
  985TIP3    H127150   2.155   5.415  17.443 -0.1761 -0.2294 -0.8139
  985TIP3    H227151   2.266   5.442  17.344  0.6092  1.3717  0.4507
  986TIP3   OH227152   5.796   0.900  20.508  0.2124 -0.3590  0.2603
  986TIP3    H127153   5.749   0.923  20.588  0.0209 -0.7666  0.2712
  986TIP3    H227154   5.861   0.969  20.497 -0.1703  0.0328  0.4256
  987TIP3   OH227155   6.296   6.734  19.146 -0.3167 -0.2554  0.4697
  987TIP3    H127156   6.373   6.752  19.091 -0.6037  1.3783  0.5403
  987TIP3    H227157   6.312   6.785  19.226 -1.4040 -0.0255  0.5475
  988TIP3   OH227158   4.382   0.017  20.405  0.0116 -0.3452  0.1201
  988TIP3    H127159   4.409   0.108  20.404 -0.2205 -0.2834 -1.1259
  988TIP3    H227160   4.364  -0.001  20.498  0.6402  0.6851  0.4607
  989TIP3   OH227161   0.718   2.903  19.346 -0.1402  0.0077 -0.3068
  989TIP3    H127162   0.694   2.817  19.312  0.0514 -0.8069  1.4982
  989TIP3    H227163   0.812   2.909  19.331  0.0727 -0.6531  0.6613
  990TIP3   OH227164   4.096   4.789  18.152  0.4648 -0.2861  0.4749
  990TIP3    H127165   4.122   4.810  18.062 -1.5280 -0.8908 -0.3128
  990TIP3    H227166   4.175   4.802  18.204  1.5771  0.4577 -1.3024
  991TIP3   OH227167   0.335   3.982  16.794 -0.2509 -0.2949  0.0972
  991TIP3    H127168   0.251   4.003  16.753 -0.3619 -2.1033 -0.7265
  991TIP3    H227169   0.375   4.067  16.812 -1.1641  0.6089 -1.7829
  992TIP3   OH227170   5.741   4.807  19.253  0.3368  0.4354  0.1330
  992TIP3    H127171   5.829   4.846  19.250  0.8287 -0.6505 -0.3425
  992TIP3    H227172   5.754   4.722  19.295 -0.6716  0.6745  0.9682
  993TIP3   OH227173   1.856   0.690  18.761  0.1897  0.4080  0.2509
  993TIP3    H127174   1.807   0.761  18.720  0.0774  0.0630 -0.2231
  993TIP3    H227175   1.837   0.698  18.855  0.3545  1.1286  0.2245
  994TIP3   OH227176   6.592   2.217  17.056 -0.1307  0.2403  0.0637
  994TIP3    H127177   6.523   2.158  17.023 -0.3348 -0.0123  0.9267
  994TIP3    H227178   6.577   2.221  17.150  1.9943 -1.0734  0.5207
  995TIP3   OH227179   0.144   5.371  18.047 -0.0774 -0.0109  0.0858
  995TIP3    H127180   0.066   5.423  18.031  1.0321  1.2183 -1.7312
  995TIP3    H227181   0.157   5.323  17.965  1.7455  0.7882 -0.1360
  996TIP3   OH227182   5.660   4.437  17.779 -0.4726  0.0608 -0.2374
  996TIP3    H127183   5.618   4.522  17.794 -1.9090 -0.6977  0.2489
  996TIP3    H227184   5.648   4.422  17.685  0.7325  0.8460 -0.5436
  997TIP3   OH227185   0.476   3.464  17.546  0.0267  0.7674  0.1373
  997TIP3    H127186   0.568   3.457  17.570 -0.3445  1.3344  1.8967
  997TIP3    H227187   0.469   3.418  17.463  2.4963  3.5240 -1.7884
  998TIP3   OH227188   6.454   4.713  18.211 -0.0620  0.7981 -0.9738
  998TIP3    H127189   6.464   4.705  18.306  0.9733  1.2992 -1.0251
  998TIP3    H227190   6.383   4.776  18.199 -0.4829  0.4153 -0.5402
  999TIP3   OH227191   5.509   0.936  19.024 -0.0800 -0.2026  0.0743
  999TIP3    H127192   5.508   0.874  19.097 -1.2036 -0.8544 -0.4664
  999TIP3    H227193   5.433   0.992  19.040 -0.5678 -0.5950 -0.7685
 1000TIP3   OH227194   6.088   5.301  18.534 -0.1555 -0.0640 -0.4607
 1000TIP3    H127195   6.130   5.310  18.448 -0.5460 -0.4262 -0.6927
 1000TIP3    H227196   6.109   5.383  18.579 -1.4811  0.9577 -1.5819
 1001TIP3   OH227197   1.587   6.747  17.515  0.0671 -0.5612  0.3927
 1001TIP3    H127198   1.510   6.766  17.569 -0.2673  2.5209 -0.9300
 1001TIP3    H227199   1.624   6.834  17.496  2.3428 -1.7830 -1.2017
 1002TIP3   OH227200   1.972   2.940  19.093  0.2448 -0.2781  0.3207
 1002TIP3    H127201   1.989   2.936  18.998  2.1323  0.0377  0.6108
 1002TIP3    H227202   2.059   2.942  19.133 -0.5044 -1.6482  2.1548
 1003TIP3   OH227203   1.695   2.161  18.015  0.0402  0.0682  0.0221
 1003TIP3    H127204   1.666   2.105  17.943 -0.0909 -0.2230  0.3006
 1003TIP3    H227205   1.733   2.237  17.972 -0.3802  0.0699 -0.3519
 1004TIP3   OH227206   2.150   2.747  17.493  0.5079  0.3672  0.4843
 1004TIP3    H127207   2.113   2.779  17.576 -0.5354  1.3974 -0.3403
 1004TIP3    H227208   2.229   2.799  17.481  1.2825 -0.5737  1.3692
 1005TIP3   OH227209   3.042   2.483  19.370  0.2315  0.1557 -0.3056
 1005TIP3    H127210   3.049   2.388  19.378 -0.1477  0.2736  2.1844
 1005TIP3    H227211   2.957   2.505  19.410  1.9673  1.8009  2.8997
 1006TIP3   OH227212   6.266   0.357  19.249 -0.5226 -0.5098 -0.3965
 1006TIP3    H127213   6.279   0.382  19.340 -0.5215 -0.1378 -0.4980
 1006TIP3    H227214   6.179   0.318  19.247 -1.0134  0.5497 -0.4532
 1007TIP3   OH227215   3.838   4.344  17.090  0.4142  0.0842 -0.2638
 1007TIP3    H127216   3.763   4.310  17.138  0.1510  1.1954  0.1302
 1007TIP3    H227217   3.909   4.283  17.112 -0.3943 -1.0869 -0.7999
 1008TIP3   OH227218   0.529   3.552  19.636  0.1102  0.3360  0.4225
 1008TIP3    H127219   0.583   3.625  19.666 -1.2499  1.2184  0.8111
 1008TIP3    H227220   0.445   3.563  19.680 -0.6592 -0.5690 -0.7148
 1009TIP3   OH227221   4.444   0.907  19.238  0.3601  0.4834  0.2212
 1009TIP3    H127222   4.457   0.816  19.267 -1.2549  0.2979  0.4349
 1009TIP3    H227223   4.516   0.955  19.279  2.3745 -0.9811 -1.4183
 1010TIP3   OH227224   5.966   1.232  19.050  0.1361 -0.1672 -0.1532
 1010TIP3    H127225   6.051   1.188  19.049  0.9353  1.3021 -0.1086
 1010TIP3    H227226   5.902   1.161  19.048  1.3504 -1.3761  1.2052
 1011TIP3   OH227227   2.827   1.295  19.342  0.2316  0.2964 -0.2075
 1011TIP3    H127228   2.746   1.346  19.334 -0.3723 -0.8738 -2.0040
 1011TIP3    H227229   2.896   1.356  19.317 -0.0735  1.2231  1.0654
 1012TIP3   OH227230   4.861   2.163  18.919 -0.4232  0.2270 -0.1972
 1012TIP3    H127231   4.950   2.179  18.889 -0.5563 -0.3573 -0.9333
 1012TIP3    H227232   4.872   2.115  19.001 -0.0623  1.2294  0.3638
 1013TIP3   OH227233   5.437   1.825  16.399 -0.3288  0.6152 -0.7335
 1013TIP3    H127234   5.366   1.771  16.363 -0.7660  1.3908 -1.0439
 1013TIP3    H227235   5.429   1.816  16.494  0.9341 -1.5873 -0.7620
 1014TIP3   OH227236   4.091   5.448  17.921  0.1378 -0.1735 -0.0878
 1014TIP3    H127237   4.052   5.535  17.919 -1.0208 -0.6687  0.1320
 1014TIP3    H227238   4.093   5.421  17.829  1.1115  0.3286 -0.2298
 1015TIP3   OH227239   5.962   4.750  20.256  0.5373 -0.0903 -0.0878
 1015TIP3    H127240   6.018   4.827  20.267  1.1937 -0.3815 -1.2469
 1015TIP3    H227241   5.878   4.785  20.227  0.6208  0.2271  0.0470
 1016TIP3   OH227242   2.948   2.904  18.972  0.3367 -0.2507  0.8746
 1016TIP3    H127243   3.019   2.958  19.007  0.1873 -0.7393  1.9520
 1016TIP3    H227244   2.992   2.827  18.937  0.6430  0.8715 -1.4339
 1017TIP3   OH227245   2.072   3.739  18.519  0.5089  0.4945 -0.7097
 1017TIP3    H127246   2.102   3.770  18.434  3.6680  0.0809  0.1583
 1017TIP3    H227247   2.098   3.807  18.581 -2.6170  1.2807 -0.0399
 1018TIP3   OH227248   0.845   6.136  17.991 -0.5620 -0.0620 -0.2471
 1018TIP3    H127249   0.894   6.170  18.066 -0.2126 -0.0279 -0.4891
 1018TIP3    H227250   0.861   6.042  17.992  0.2148  0.0637 -0.8356
 1019TIP3   OH227251   3.158   3.044  19.973 -0.3644  0.4730 -0.3872
 1019TIP3    H127252   3.191   3.030  20.062 -0.1089 -0.9142 -0.6616
 1019TIP3    H227253   3.232   3.084  19.927  0.3820 -0.9928 -0.5466
 1020TIP3   OH227254   4.618   0.447  18.502 -0.0048  0.4046  0.3467
 1020TIP3    H127255   4.567   0.430  18.423 -0.6877  1.5923  0.5148
 1020TIP3    H227256   4.674   0.370  18.511  0.3097  0.3746 -1.4662
 1021TIP3   OH227257   4.973   0.347  19.548  0.2706 -0.0211 -0.1984
 1021TIP3    H127258   5.023   0.426  19.566  0.5824 -0.3522  0.3963
 1021TIP3    H227259   5.039   0.278  19.539 -0.0276 -0.2986 -0.2722
 1022TIP3   OH227260   1.743   6.110  20.041  0.2716 -0.0322 -0.3786
 1022TIP3    H127261   1.742   6.019  20.070  0.9248 -0.0838 -0.5087
 1022TIP3    H227262   1.815   6.150  20.089  0.7857  0.1011 -1.2351
 1023TIP3   OH227263   1.730   6.461  19.927  0.5422  0.6878  0.0945
 1023TIP3    H127264   1.722   6.514  19.848 -0.0089 -0.3842 -0.5954
 1023TIP3    H227265   1.773   6.381  19.898  1.5428  0.8128  1.1523
 1024TIP3   OH227266   1.434   1.715  17.015 -0.3357 -0.3010 -0.0943
 1024TIP3    H127267   1.481   1.631  17.014  1.1377  0.4745  0.3379
 1024TIP3    H227268   1.499   1.778  17.046 -1.5010  0.9598 -0.1204
 1025TIP3   OH227269   0.386   2.738  19.345 -0.0057 -0.0596  0.2267
 1025TIP3    H127270   0.379   2.758  19.252  2.3009  2.4249  0.4639
 1025TIP3    H227271   0.344   2.812  19.388 -0.6111 -0.9415  1.2070
 1026TIP3   OH227272   5.150   1.628  18.969  0.2377  0.4992 -0.5127
 1026TIP3    H127273   5.095   1.695  19.011  0.1430  0.3264 -0.3585
 1026TIP3    H227274   5.095   1.550  18.968  0.9584 -0.0809  0.9392
 1027TIP3   OH227275   4.898   4.465  20.196  0.2139 -0.1384 -0.1697
 1027TIP3    H127276   4.919   4.378  20.162  0.7905  0.0100 -0.2061
 1027TIP3    H227277   4.962   4.480  20.266  2.1652  1.4788 -2.1505
 1028TIP3   OH227278   2.359   5.186  17.190  0.0124 -0.2835  0.2013
 1028TIP3    H127279   2.434   5.242  17.213  0.2143 -0.3560 -0.2685
 1028TIP3    H227280   2.385   5.144  17.108 -1.0795  0.7224 -0.6968
 1029TIP3   OH227281   0.027   2.505  19.352  0.0531  0.0595  0.1468
 1029TIP3    H127282   0.021   2.598  19.330  0.5216  0.6571  2.3741
 1029TIP3    H227283  -0.054   2.467  19.317 -1.3279  1.7834  1.2811
 1030TIP3   OH227284   6.232   4.206  20.012 -0.0556  0.0714 -0.1960
 1030TIP3    H127285   6.251   4.222  20.104  0.6057  1.1215 -0.4990
 1030TIP3    H227286   6.277   4.124  19.992 -1.8772 -1.2589  0.8989
 1031TIP3   OH227287   0.146   2.389  19.914 -0.2757  0.1533 -0.1362
 1031TIP3    H127288   0.165   2.302  19.948 -1.0711 -0.3422 -0.9203
 1031TIP3    H227289   0.067   2.377  19.861 -0.1352  1.2654 -0.6139
 1032TIP3   OH227290   0.409   3.462  19.353 -0.6180  0.2627 -0.1711
 1032TIP3    H127291   0.486   3.492  19.401 -1.4927 -0.7895  1.9824
 1032TIP3    H227292   0.442   3.392  19.296 -0.1355 -1.0280  1.6227
 1033TIP3   OH227293   0.596   4.525  16.846  0.2777 -0.4736  0.1582
 1033TIP3    H127294   0.564   4.487  16.928  0.7963 -1.4897 -0.0916
 1033TIP3    H227295   0.623   4.449  16.794 -0.0198  0.1601 -0.9423
 1034TIP3   OH227296   1.885   4.140  17.615  0.1799 -0.5918 -0.7319
 1034TIP3    H127297   1.900   4.072  17.550 -0.6210  0.2254 -1.8113
 1034TIP3    H227298   1.861   4.217  17.564  1.0624  0.5152  0.4511
 1035TIP3   OH227299   6.189   4.153  20.309 -0.3477  0.1891 -0.0975
 1035TIP3    H127300   6.123   4.219  20.290 -1.1649 -0.6791 -0.3387
 1035TIP3    H227301   6.146   4.070  20.292  0.7353 -0.4092 -0.0222
 1036TIP3   OH227302   2.639   1.574  17.031 -0.5823 -0.5199 -0.1175
 1036TIP3    H127303   2.621   1.645  16.969 -0.5821  1.1281  1.6675
 1036TIP3    H227304   2.725   1.594  17.067  0.0515 -2.2457 -0.5900
 1037TIP3   OH227305   1.075   1.968  19.354 -0.0137 -0.5693 -0.3866
 1037TIP3    H127306   1.036   2.043  19.398 -0.2207 -0.0111 -1.4984
 1037TIP3    H227307   1.016   1.895  19.373 -0.3197 -0.2515 -0.1044
 1038TIP3   OH227308   5.341   3.606  17.184  0.4445 -0.5917  0.4759
 1038TIP3    H127309   5.294   3.523  17.189  1.4310 -1.2069  0.0140
 1038TIP3    H227310   5.305   3.651  17.108 -1.1186  0.0883  1.5724
 1039TIP3   OH227311   4.117   3.356  19.819 -0.2112 -0.2333  0.0513
 1039TIP3    H127312   4.154   3.432  19.863  1.5029 -2.9171  3.8125
 1039TIP3    H227313   4.048   3.325  19.878 -0.0541 -2.2509 -0.7377
 1040TIP3   OH227314   3.226   5.197  18.665 -0.2481  0.3543  0.3551
 1040TIP3    H127315   3.240   5.254  18.590  1.5410  0.5410  0.7668
 1040TIP3    H227316   3.315   5.175  18.695 -0.7893  1.9849  3.6878
 1041TIP3   OH227317   0.967   6.281  17.651  0.5182 -0.3605  0.3145
 1041TIP3    H127318   0.908   6.230  17.595 -0.7951  0.7451  0.6495
 1041TIP3    H227319   1.040   6.304  17.593  1.2670 -2.7185  0.1969
 1042TIP3   OH227320   1.735   5.946  17.549  0.2765 -0.1778  0.0095
 1042TIP3    H127321   1.792   5.947  17.626  1.2770  0.6141 -0.7083
 1042TIP3    H227322   1.795   5.937  17.475 -0.5787  0.2065 -0.7484
 1043TIP3   OH227323   0.974   1.921  20.220 -0.4051  0.6614  0.1819
 1043TIP3    H127324   0.960   1.833  20.253 -2.7843  0.9845  0.1783
 1043TIP3    H227325   1.067   1.939  20.239 -0.2514 -1.2522  1.5266
 1044TIP3   OH227326   6.452   4.041  17.674 -0.1873 -0.4153 -0.2526
 1044TIP3    H127327   6.467   3.947  17.674  0.0951 -0.3706 -0.9527
 1044TIP3    H227328   6.476   4.069  17.763 -0.6637 -1.0557  0.0853
 1045TIP3   OH227329   0.802   0.154  17.481 -0.4732 -0.3776  0.1215
 1045TIP3    H127330   0.770   0.186  17.565  2.0580  0.1726  0.9841
 1045TIP3    H227331   0.731   0.171  17.420 -1.2745  2.0016  1.5748
 1046TIP3   OH227332   5.383   2.686  17.652 -0.2251 -0.6662 -0.6240
 1046TIP3    H127333   5.456   2.746  17.637 -2.2347  1.7873 -1.5207
 1046TIP3    H227334   5.342   2.718  17.732 -0.2453 -2.1085 -0.0381
 1047TIP3   OH227335   2.122   3.799  18.238 -0.4217  0.1197  0.1639
 1047TIP3    H127336   2.184   3.870  18.220 -1.0693  0.4963 -0.6243
 1047TIP3    H227337   2.067   3.794  18.160 -1.4970 -0.1005  0.9080
 1048TIP3   OH227338   4.782   4.613  17.892  0.0894 -0.4752 -0.4742
 1048TIP3    H127339   4.695   4.584  17.863 -0.7218  0.6512  0.7108
 1048TIP3    H227340   4.832   4.625  17.811 -0.8538 -1.1546 -1.1751
 1049TIP3   OH227341   1.990   2.605  18.014 -0.7070 -0.1324 -0.0869
 1049TIP3    H127342   1.939   2.611  18.095  0.5213 -0.0684  0.7114
 1049TIP3    H227343   2.059   2.670  18.024  0.7255 -1.5569 -0.2243
 1050TIP3   OH227344   0.527   5.806  18.270 -0.4885 -0.3503  0.1198
 1050TIP3    H127345   0.533   5.898  18.295 -0.5776 -0.5011  0.7108
 1050TIP3    H227346   0.507   5.760  18.352 -0.2188 -0.9224 -0.1296
 1051TIP3   OH227347   2.512   5.396  19.930  0.0952  0.4912  0.1724
 1051TIP3    H127348   2.580   5.413  19.866  0.4086  1.1715  0.6753
 1051TIP3    H227349   2.509   5.475  19.984 -0.1325 -0.0785  1.0200
 1052TIP3   OH227350   3.035   4.239  18.917 -0.1629  0.0704  0.4622
 1052TIP3    H127351   2.954   4.277  18.952 -0.9363  1.1957 -2.2794
 1052TIP3    H227352   3.010   4.150  18.891 -0.9059  0.7462 -1.3246
 1053TIP3   OH227353   1.587   4.355  19.247  0.0090  0.2066  0.1232
 1053TIP3    H127354   1.599   4.435  19.298  0.8823  1.0068 -1.2520
 1053TIP3    H227355   1.501   4.323  19.271  0.6955  0.0923  2.6508
 1054TIP3   OH227356   6.260   2.965  17.289 -0.0275  0.2271 -0.2367
 1054TIP3    H127357   6.297   2.906  17.354  2.7938 -0.2213 -2.0721
 1054TIP3    H227358   6.298   3.051  17.310 -0.3512  0.4097 -0.3832
 1055TIP3   OH227359   1.208   0.817  19.097 -0.4600  0.3967  0.8470
 1055TIP3    H127360   1.202   0.823  19.002 -1.3419 -0.0020  0.8740
 1055TIP3    H227361   1.300   0.797  19.114 -0.0457  1.5579  0.1410
 1056TIP3   OH227362   4.720   3.219  18.216 -0.5856  0.2889 -0.2222
 1056TIP3    H127363   4.642   3.220  18.161 -2.7319 -1.6146  2.5304
 1056TIP3    H227364   4.743   3.127  18.224  0.8746  0.6810  0.5320
 1057TIP3   OH227365   4.885   0.952  19.765  0.2231  0.0332  0.6086
 1057TIP3    H127366   4.903   0.872  19.715  0.0638 -0.0669  0.7130
 1057TIP3    H227367   4.934   0.941  19.846 -0.5506 -0.3802  1.0302
 1058TIP3   OH227368   0.706   2.797  18.279  0.7404  0.3237 -0.5824
 1058TIP3    H127369   0.680   2.737  18.209  1.4117  0.6237 -1.0983
 1058TIP3    H227370   0.643   2.868  18.274  0.6343  0.2205 -0.7172
 1059TIP3   OH227371   3.218   1.930  19.789 -0.7254 -0.0818  0.2339
 1059TIP3    H127372   3.160   1.856  19.804 -0.1848 -1.5275 -3.6507
 1059TIP3    H227373   3.295   1.912  19.843 -0.9347 -2.0071 -0.0369
 1060TIP3   OH227374   2.055   2.961  18.125  0.3531  0.2667 -0.0332
 1060TIP3    H127375   1.965   2.994  18.123 -1.1728 -3.3824  0.1733
 1060TIP3    H227376   2.107   3.034  18.157 -2.9553  1.7702  2.4923
 1061TIP3   OH227377   4.967   0.800  17.062 -0.0342  0.0377 -0.0951
 1061TIP3    H127378   4.923   0.828  16.981  0.0577 -0.4305 -0.3104
 1061TIP3    H227379   4.913   0.728  17.094  0.2406 -0.1397 -0.0342
 1062TIP3   OH227380   0.571   2.657  18.512 -0.4641  0.0899 -0.2298
 1062TIP3    H127381   0.619   2.718  18.456 -1.9340  1.1441 -0.4292
 1062TIP3    H227382   0.607   2.671  18.599 -0.5164  0.9991 -0.3403
 1063TIP3   OH227383   1.442   2.525  18.665 -0.2938 -0.2996 -0.1237
 1063TIP3    H127384   1.414   2.584  18.735  0.7701 -0.3588  0.3803
 1063TIP3    H227385   1.388   2.549  18.590 -0.6294  0.5807  0.3813
 1064TIP3   OH227386   3.273   5.582  19.805 -0.1753  0.5361 -0.1980
 1064TIP3    H127387   3.359   5.614  19.833 -0.0536  0.4725 -0.5064
 1064TIP3    H227388   3.288   5.539  19.721 -0.5113  0.5379 -0.2624
 1065TIP3   OH227389   4.291   1.685  18.512 -0.4242 -0.2220  0.1014
 1065TIP3    H127390   4.316   1.679  18.604  1.4874 -0.4200 -0.3843
 1065TIP3    H227391   4.272   1.777  18.497 -0.1874 -0.0964  0.5744
 1066TIP3   OH227392   6.265   3.731  18.496  0.3395  0.6455  0.2447
 1066TIP3    H127393   6.323   3.731  18.573  0.9387 -0.4127 -0.1840
 1066TIP3    H227394   6.321   3.761  18.425  0.3270 -0.2072 -0.1358
 1067TIP3   OH227395   6.338   1.160  18.409  0.1307 -0.1120 -0.1245
 1067TIP3    H127396   6.270   1.200  18.463 -1.5061 -2.9356  0.1103
 1067TIP3    H227397   6.405   1.133  18.471 -0.5726 -1.0962  0.2418
 1068TIP3   OH227398   0.792   3.964  17.982 -0.4284  0.1307  0.2188
 1068TIP3    H127399   0.761   3.981  18.071  0.4772  0.2006  0.5285
 1068TIP3    H227400   0.876   3.920  17.994 -0.4108 -0.0753 -0.6077
 1069TIP3   OH227401   0.729   5.172  17.127  0.0298  0.2834 -0.5331
 1069TIP3    H127402   0.766   5.178  17.039 -0.5238 -1.0824 -0.8742
 1069TIP3    H227403   0.648   5.224  17.122  1.8425  3.4842  0.2800
 1070TIP3   OH227404   0.013   0.025  20.088  0.0594 -0.2179  0.1045
 1070TIP3    H127405  -0.048   0.079  20.140 -0.2526 -1.0842  0.6661
 1070TIP3    H227406  -0.038  -0.053  20.064  1.2815 -1.5953  1.7028
 1071TIP3   OH227407   6.619   2.738  16.613  0.1891 -0.3946 -0.5559
 1071TIP3    H127408   6.708   2.705  16.625 -0.0935 -0.4513  1.8024
 1071TIP3    H227409   6.563   2.664  16.637 -0.5135 -0.2139 -1.5842
 1072TIP3   OH227410   1.704   5.770  18.309 -0.2475  0.1385  0.0684
 1072TIP3    H127411   1.712   5.726  18.225  0.6374  1.4773 -0.5759
 1072TIP3    H227412   1.673   5.858  18.288  0.5226  0.6729  1.0689
 1073TIP3   OH227413   0.767   0.813  18.482  0.1886 -0.1447  0.2842
 1073TIP3    H127414   0.857   0.832  18.509  0.0849  1.2331 -0.2392
 1073TIP3    H227415   0.775   0.781  18.393  0.1422  0.5151  0.0319
 1074TIP3   OH227416   4.025   2.120  19.493 -0.0803 -0.2365 -0.7650
 1074TIP3    H127417   4.040   2.208  19.460 -0.0703 -0.3672 -1.1240
 1074TIP3    H227418   4.111   2.077  19.484 -0.4897 -0.8223 -2.2940
 1075TIP3   OH227419   5.887   1.338  16.850  0.1804  0.0083  0.4361
 1075TIP3    H127420   5.969   1.329  16.802  0.5564  0.0213  1.0591
 1075TIP3    H227421   5.871   1.251  16.887  0.7965  0.3951  1.6850
 1076TIP3   OH227422   0.304   0.721  18.159  0.3174  0.2349 -0.4471
 1076TIP3    H127423   0.383   0.772  18.139  0.4405  0.3750  0.3764
 1076TIP3    H227424   0.337   0.645  18.208  0.0326 -0.1616 -0.8665
 1077TIP3   OH227425   0.935   5.605  18.581 -0.2101 -0.7332  0.0850
 1077TIP3    H127426   0.920   5.522  18.626  1.3849 -0.3070  1.4979
 1077TIP3    H227427   1.000   5.650  18.634 -0.9299  1.3909 -0.7196
 1078TIP3   OH227428   4.211   4.165  20.370 -0.8206  0.0893 -0.5029
 1078TIP3    H127429   4.204   4.172  20.466  1.7268 -0.2523 -0.2278
 1078TIP3    H227430   4.199   4.255  20.339  0.0421  0.5082  0.3109
 1079TIP3   OH227431   3.402   1.975  17.627  0.2899  0.0703  0.1061
 1079TIP3    H127432   3.351   2.042  17.583 -1.6522 -1.8863 -0.8416
 1079TIP3    H227433   3.345   1.943  17.697 -0.1148 -2.4645 -1.2393
 1080TIP3   OH227434   4.272   5.484  18.312  0.0262  0.4722 -0.2491
 1080TIP3    H127435   4.263   5.569  18.271  1.3595  0.7463 -0.0367
 1080TIP3    H227436   4.283   5.503  18.406 -3.2035 -0.1544  0.3645
 1081TIP3   OH227437   4.412   4.087  19.788 -0.0797 -0.4497 -0.4062
 1081TIP3    H127438   4.505   4.108  19.776  0.1367 -0.9987  0.2419
 1081TIP3    H227439   4.366   4.156  19.742  0.6599 -1.0589 -2.1556
 1082TIP3   OH227440   6.639   2.642  18.106 -0.2926  0.1207 -0.1173
 1082TIP3    H127441   6.585   2.568  18.133 -0.4419  0.4454  0.4818
 1082TIP3    H227442   6.724   2.603  18.085 -0.7681 -0.4087 -1.1595
 1083TIP3   OH227443   3.767   5.710  18.381 -0.0209  0.2246  0.2754
 1083TIP3    H127444   3.839   5.651  18.403 -0.9145 -1.1857 -0.4414
 1083TIP3    H227445   3.717   5.719  18.461 -0.1966 -0.4568  0.2434
 1084TIP3   OH227446   0.347   4.433  17.989 -0.4999  0.0200  0.0966
 1084TIP3    H127447   0.315   4.451  17.901 -0.3515 -1.4307 -0.2790
 1084TIP3    H227448   0.413   4.365  17.977 -1.9272 -1.7260  1.4974
 1085TIP3   OH227449   2.361   5.524  16.554 -0.1681 -0.6684  0.1640
 1085TIP3    H127450   2.353   5.617  16.535  1.5388 -0.5317  0.0010
 1085TIP3    H227451   2.270   5.492  16.554 -0.7622  0.9170 -0.0460
 1086TIP3   OH227452   1.937   5.578  17.402 -0.2361  0.1713  0.0660
 1086TIP3    H127453   2.010   5.640  17.404  0.0708 -0.2066  0.8177
 1086TIP3    H227454   1.946   5.533  17.318 -0.1171  0.7296 -0.2250
 1087TIP3   OH227455   3.774   1.511  19.255 -0.4163  0.5770 -0.2610
 1087TIP3    H127456   3.781   1.574  19.327  0.8842 -0.6888  0.7868
 1087TIP3    H227457   3.822   1.434  19.286 -1.1068 -0.5674 -1.8978
 1088TIP3   OH227458   0.812   0.618  18.826  0.3812  0.1536  0.4711
 1088TIP3    H127459   0.778   0.536  18.791  0.7385 -0.3570  1.2781
 1088TIP3    H227460   0.907   0.611  18.819  0.4691  0.0020  1.5652
 1089TIP3   OH227461   5.347   4.723  18.371  0.0451  0.1145  0.4723
 1089TIP3    H127462   5.260   4.703  18.334  0.4369 -1.1577  0.1769
 1089TIP3    H227463   5.397   4.757  18.297 -0.0433  0.3396  0.5151
 1090TIP3   OH227464   4.160   3.026  17.390 -0.6281 -0.7450 -0.2832
 1090TIP3    H127465   4.171   3.094  17.456  1.9946 -1.0597 -0.2853
 1090TIP3    H227466   4.106   2.959  17.432 -1.4453  0.3706  0.4673
 1091TIP3   OH227467   0.797   0.910  17.069 -0.5319  0.2891 -0.1625
 1091TIP3    H127468   0.826   0.842  17.009  1.5005  0.2745  0.7558
 1091TIP3    H227469   0.851   0.986  17.048 -0.3361  0.5216  1.1072
 1092TIP3   OH227470   2.705   5.081  19.121  0.4087  0.2537 -0.0722
 1092TIP3    H127471   2.704   5.059  19.214  0.7613 -0.6519 -0.2676
 1092TIP3    H227472   2.707   4.996  19.077 -1.8596  0.5628 -0.9550
 1093TIP3   OH227473   6.281   4.506  19.960 -0.0051 -0.2475  0.0807
 1093TIP3    H127474   6.213   4.571  19.978  0.8703  1.0821 -1.2219
 1093TIP3    H227475   6.239   4.422  19.979 -1.3650  0.6336  1.2145
 1094TIP3   OH227476   0.328   2.830  18.445  0.6292  0.5302 -0.4141
 1094TIP3    H127477   0.283   2.774  18.508 -0.0515  0.8614 -0.5898
 1094TIP3    H227478   0.300   2.797  18.360 -0.0680  1.3454 -0.5173
 1095TIP3   OH227479   0.057   2.011  19.972  0.3826 -0.4334 -0.5781
 1095TIP3    H127480   0.113   2.035  19.897 -0.2341 -0.2138 -0.9719
 1095TIP3    H227481  -0.006   1.949  19.937  0.0717 -0.3115 -0.2408
 1096TIP3   OH227482   5.512   1.122  18.813 -0.3152  0.2982  0.4659
 1096TIP3    H127483   5.475   1.209  18.827 -1.7105 -0.2759  0.5015
 1096TIP3    H227484   5.470   1.067  18.879  0.2629 -0.4736  0.2053
 1097TIP3   OH227485   4.232   3.538  19.232  0.5610 -0.6261  0.1003
 1097TIP3    H127486   4.312   3.548  19.284  1.0498 -0.0420 -0.7341
 1097TIP3    H227487   4.161   3.549  19.295  1.1254 -1.4878  0.9179
 1098TIP3   OH227488   1.729   0.932  18.750  0.4203 -0.2228  0.3202
 1098TIP3    H127489   1.717   0.980  18.668 -0.0528 -0.0258  0.5061
 1098TIP3    H227490   1.749   0.999  18.815  0.2724 -0.3322  0.4768
 1099TIP3   OH227491   0.070   5.527  18.458  0.3690 -0.0802  0.2210
 1099TIP3    H127492   0.096   5.617  18.440 -1.1185  0.1275 -1.1092
 1099TIP3    H227493   0.153   5.480  18.467  1.1772  1.3888  0.9021
 1100TIP3   OH227494   1.411   3.433  17.513 -0.2798 -0.6472  0.2242
 1100TIP3    H127495   1.394   3.367  17.580  0.3484 -2.3526 -1.2100
 1100TIP3    H227496   1.503   3.421  17.490 -0.3094  0.3456 -0.4755
 1101TIP3   OH227497   3.841   3.586  19.073  0.0908  0.0432  0.3695
 1101TIP3    H127498   3.882   3.662  19.114  0.9628 -0.8418  1.1728
 1101TIP3    H227499   3.772   3.560  19.134  1.2360 -1.1312  1.2230
 1102TIP3   OH227500   3.691   2.782  19.548  0.2850 -0.0548  0.7614
 1102TIP3    H127501   3.767   2.759  19.494  0.5782  0.5091  0.9250
 1102TIP3    H227502   3.616   2.751  19.498  0.5006  1.1420 -0.3486
 1103TIP3   OH227503   3.814   1.972  17.544 -0.1102  0.4005 -0.4727
 1103TIP3    H127504   3.722   1.961  17.517  0.5946 -0.3907 -2.7429
 1103TIP3    H227505   3.826   2.067  17.548 -0.9088  0.5162 -0.5489
 1104TIP3   OH227506   3.670   1.386  17.973  0.1354  0.0781 -0.1894
 1104TIP3    H127507   3.665   1.311  17.913 -0.4129 -0.1631  0.1497
 1104TIP3    H227508   3.696   1.348  18.057 -0.3493  0.2296  0.0341
 1105TIP3   OH227509   1.732   1.643  17.137  0.0935  0.1373 -0.3787
 1105TIP3    H127510   1.697   1.566  17.093  0.6762  0.1589 -0.8949
 1105TIP3    H227511   1.817   1.658  17.095 -0.0461  1.0994 -0.3313
 1106TIP3   OH227512   0.588   0.445  18.097 -0.3811  0.2243 -0.1859
 1106TIP3    H127513   0.646   0.516  18.123  3.4744 -2.4553 -0.7285
 1106TIP3    H227514   0.601   0.437  18.003 -1.0199 -1.0123 -0.1865
 1107TIP3   OH227515   0.419   5.446  20.354  0.1591 -0.1455 -0.3337
 1107TIP3    H127516   0.501   5.401  20.374 -0.2773 -1.1493 -0.7186
 1107TIP3    H227517   0.422   5.526  20.405  1.8418  0.3318 -1.1355
 1108TIP3   OH227518   4.539   6.492  20.095  0.0452 -0.2802  0.1030
 1108TIP3    H127519   4.476   6.429  20.131 -0.9685  0.4644 -0.3267
 1108TIP3    H227520   4.524   6.572  20.145  1.3854 -0.3633  0.7016
 1109TIP3   OH227521   2.767   3.530  17.452 -0.4980  0.5700 -0.2564
 1109TIP3    H127522   2.692   3.471  17.449 -0.6866  0.8230 -2.4796
 1109TIP3    H227523   2.736   3.607  17.499 -0.6967 -0.4685  1.3892
 1110TIP3   OH227524   1.490   5.593  16.481 -0.0310  0.3679  0.7662
 1110TIP3    H127525   1.540   5.547  16.413 -1.7392 -1.6951  0.7864
 1110TIP3    H227526   1.402   5.600  16.445 -0.3040  1.8326  1.6493
 1111TIP3   OH227527   1.802   2.750  18.172  0.0071  0.3230 -0.2635
 1111TIP3    H127528   1.714   2.789  18.168 -0.1053  0.2946  1.3056
 1111TIP3    H227529   1.854   2.814  18.220  0.7797  0.2054 -0.9362
 1112TIP3   OH227530   5.141   4.838  17.502 -0.2235 -0.6733 -0.2968
 1112TIP3    H127531   5.049   4.854  17.481 -0.2985 -0.8949 -0.1379
 1112TIP3    H227532   5.188   4.858  17.421 -0.2957  0.5240 -0.0709
 1113TIP3   OH227533   6.277   0.455  18.464  0.5123  0.1696 -0.4189
 1113TIP3    H127534   6.275   0.399  18.541  1.8325  0.3823 -0.2091
 1113TIP3    H227535   6.370   0.469  18.447  0.2151  1.4211 -1.1107
 1114TIP3   OH227536   0.998   3.324  19.099  0.1060 -0.8511 -0.0372
 1114TIP3    H127537   1.031   3.244  19.139  0.5676 -0.4127  0.4878
 1114TIP3    H227538   0.904   3.309  19.090  0.1892 -1.4462  0.0655
 1115TIP3   OH227539   6.535   1.670  20.297 -0.4135 -0.1781  0.2724
 1115TIP3    H127540   6.469   1.672  20.366 -0.8355 -0.7242 -0.1089
 1115TIP3    H227541   6.559   1.578  20.289  0.0646 -0.0414  0.0949
 1116TIP3   OH227542   2.026   2.197  19.238  0.1366 -0.0449  0.3708
 1116TIP3    H127543   2.105   2.149  19.266  0.0701  0.6227  1.8301
 1116TIP3    H227544   2.028   2.277  19.290 -1.2509  0.2228  0.0449
 1117TIP3   OH227545   5.883   4.355  20.187 -0.3020  0.0892 -0.1534
 1117TIP3    H127546   5.883   4.404  20.105  0.1189  0.4237  0.0438
 1117TIP3    H227547   5.844   4.271  20.164  0.3531 -0.0402 -0.8233
 1118TIP3   OH227548   4.210   1.962  18.432 -0.3415  0.1258  0.1227
 1118TIP3    H127549   4.125   1.925  18.457 -0.1576  0.7440  1.7500
 1118TIP3    H227550   4.200   1.985  18.339 -1.2546 -1.6997 -0.2750
 1119TIP3   OH227551   2.431   0.400  17.534 -0.4468 -0.4915  0.1422
 1119TIP3    H127552   2.461   0.310  17.530 -1.2119 -0.8650  1.7910
 1119TIP3    H227553   2.338   0.396  17.511  0.1335  0.3602 -2.8103
 1120TIP3   OH227554   3.901   2.185  19.130 -0.1530 -0.5262  0.0445
 1120TIP3    H127555   3.923   2.095  19.153 -0.0633 -0.5529 -0.1433
 1120TIP3    H227556   3.967   2.210  19.065 -0.8522 -0.7125 -0.7550
 1121TIP3   OH227557   0.515   5.333  17.061 -0.3270  1.1045 -0.2327
 1121TIP3    H127558   0.509   5.427  17.046  0.6262  0.8964 -2.2323
 1121TIP3    H227559   0.479   5.293  16.982  1.3913 -0.1532 -0.4493
 1122TIP3   OH227560   5.657   3.696  19.839 -0.1067  0.5015  0.1466
 1122TIP3    H127561   5.625   3.776  19.880  2.1776  1.3748  0.3829
 1122TIP3    H227562   5.747   3.687  19.872  0.4178 -0.9849 -1.5489
 1123TIP3   OH227563   2.643   2.751  18.226 -0.0119  0.3762 -0.1994
 1123TIP3    H127564   2.720   2.807  18.210  0.1577  0.1076 -0.3318
 1123TIP3    H227565   2.660   2.711  18.311 -1.1729  2.2360  0.9993
 1124TIP3   OH227566   2.368   5.672  19.049 -0.2624 -0.0161  0.4910
 1124TIP3    H127567   2.319   5.702  18.973  1.2694 -2.0502 -1.4217
 1124TIP3    H227568   2.329   5.588  19.072  0.6380 -0.4335  0.5587
 1125TIP3   OH227569   6.375   1.232  18.794  0.4069  0.9402 -0.4578
 1125TIP3    H127570   6.296   1.270  18.754  1.3327  2.2527 -1.0984
 1125TIP3    H227571   6.419   1.306  18.835  1.3875  0.2561 -0.2404
 1126TIP3   OH227572   1.475   1.340  18.476 -0.4170  0.5361 -0.1001
 1126TIP3    H127573   1.512   1.293  18.401  0.4132  0.3874  0.3862
 1126TIP3    H227574   1.437   1.272  18.531  0.3296  0.4664  0.3503
 1127TIP3   OH227575   6.214   2.242  17.441  0.1250 -0.2557 -0.0650
 1127TIP3    H127576   6.222   2.316  17.381 -1.4040  0.1144  0.1274
 1127TIP3    H227577   6.204   2.282  17.527  2.4746 -0.7884  0.5159
 1128TIP3   OH227578   6.565   0.594  18.437  0.1919  0.5381 -0.0510
 1128TIP3    H127579   6.620   0.581  18.360  0.5922 -0.8076  0.4341
 1128TIP3    H227580   6.523   0.679  18.423  0.7060  0.5756 -1.4644
 1129TIP3   OH227581   1.828   2.537  19.183  0.0420 -0.2334 -0.1862
 1129TIP3    H127582   1.921   2.514  19.187  0.1956  0.5547  1.7916
 1129TIP3    H227583   1.823   2.624  19.220 -1.4633 -0.1101 -0.6206
 1130TIP3   OH227584   6.724   6.157  18.145 -0.1118  0.0378  0.4008
 1130TIP3    H127585   6.733   6.230  18.206 -0.6204  0.3054  0.1670
 1130TIP3    H227586   6.631   6.156  18.122 -0.0752 -0.5689  0.2559
 1131TIP3   OH227587   1.289   4.652  17.241  0.2830 -0.3547  0.4320
 1131TIP3    H127588   1.316   4.562  17.224 -0.4791 -0.6428  0.7054
 1131TIP3    H227589   1.208   4.644  17.292  1.7685  0.4489  3.1505
 1132TIP3   OH227590   3.298   4.762  17.046 -0.3656  0.6788 -0.4818
 1132TIP3    H127591   3.250   4.766  16.963 -0.5921 -0.8911 -0.4580
 1132TIP3    H227592   3.376   4.710  17.025 -1.1819 -1.0580  0.6165
 1133TIP3   OH227593   5.806   6.122  19.676 -0.1598 -0.2465  0.4228
 1133TIP3    H127594   5.749   6.198  19.679  0.4063  0.1499  1.7892
 1133TIP3    H227595   5.862   6.136  19.600  0.6513  1.2315  1.2726
 1134TIP3   OH227596   0.153   2.373  19.029 -0.0719  0.2172  0.1087
 1134TIP3    H127597   0.074   2.337  19.070 -0.6681  1.7897  0.3908
 1134TIP3    H227598   0.205   2.406  19.102  1.7189 -2.3285  0.0999
 1135TIP3   OH227599   5.948   5.607  17.381 -0.3444 -0.1129 -0.0116
 1135TIP3    H127600   5.973   5.643  17.297  0.1452 -1.6214 -0.5363
 1135TIP3    H227601   5.854   5.590  17.373  0.1118 -2.4041 -1.1267
 1136TIP3   OH227602   4.946   5.995  19.545  0.1999 -0.3920 -0.3795
 1136TIP3    H127603   4.881   6.060  19.570  0.8392  0.2009 -0.2274
 1136TIP3    H227604   4.933   5.922  19.606 -0.4814 -0.3829 -0.5145
 1137TIP3   OH227605   2.185   2.984  17.026 -0.1177  0.0397 -0.0623
 1137TIP3    H127606   2.118   2.922  16.997  0.3208 -1.5996  2.1016
 1137TIP3    H227607   2.151   3.070  17.003 -2.2729 -0.8299 -0.3214
 1138TIP3   OH227608   4.008   1.615  19.558  0.4634 -0.5577 -0.5369
 1138TIP3    H127609   4.033   1.592  19.647 -0.7931 -1.0600 -0.2989
 1138TIP3    H227610   3.923   1.573  19.544  0.3530  0.0031 -1.7649
 1139TIP3   OH227611   1.552   3.366  16.371 -0.3164  0.3846 -0.1804
 1139TIP3    H127612   1.478   3.318  16.407  0.2001 -0.6913 -0.5060
 1139TIP3    H227613   1.537   3.457  16.397 -1.1834  0.0117  0.6683
 1140TIP3   OH227614   4.616   4.545  20.122 -0.1778 -0.3448 -0.0807
 1140TIP3    H127615   4.581   4.530  20.034  2.1979 -0.7904 -1.0276
 1140TIP3    H227616   4.689   4.485  20.129 -0.6917 -0.7964  2.5039
 1141TIP3   OH227617   1.490   0.602  18.659 -0.3089  0.6147  0.2967
 1141TIP3    H127618   1.442   0.683  18.675  1.0815  1.5126  0.1709
 1141TIP3    H227619   1.514   0.570  18.746 -1.1504  0.1262  0.3641
 1142TIP3   OH227620   0.082   6.541  19.231  0.1696 -0.0154 -0.4605
 1142TIP3    H127621   0.006   6.595  19.252 -0.4150 -1.3449  0.9385
 1142TIP3    H227622   0.157   6.591  19.265 -0.1199  0.8990 -1.1071
 1143TIP3   OH227623   5.119   2.055  19.697 -0.4055  0.2507  0.2392
 1143TIP3    H127624   5.167   1.979  19.730  0.4701 -1.0506 -3.5180
 1143TIP3    H227625   5.027   2.031  19.705 -0.1714 -0.5874  0.4647
 1144TIP3   OH227626   1.967   1.491  18.249  0.0763 -0.0705 -0.4331
 1144TIP3    H127627   1.908   1.435  18.299  0.9260 -0.7236 -0.1459
 1144TIP3    H227628   1.911   1.563  18.218 -0.6306 -0.0923  0.7429
 1145TIP3   OH227629   0.769   0.850  20.411  0.0009 -0.4656  0.3472
 1145TIP3    H127630   0.689   0.901  20.428 -0.7655 -1.1920 -0.9145
 1145TIP3    H227631   0.770   0.784  20.480  0.2096  0.3071  1.1126
 1146TIP3   OH227632   1.606   3.977  17.204 -0.0083 -0.5242  0.2825
 1146TIP3    H127633   1.609   3.891  17.245 -0.0400 -1.0563 -0.7971
 1146TIP3    H227634   1.661   3.968  17.126  1.3756  0.9149  1.0224
 1147TIP3   OH227635   5.990   1.635  19.985 -0.3975  0.0372 -0.1016
 1147TIP3    H127636   5.976   1.729  19.970  0.5211 -0.0224 -1.5434
 1147TIP3    H227637   5.914   1.607  20.036 -0.4607  1.6524  0.7695
 1148TIP3   OH227638   1.803   3.407  17.031  0.5072  0.3222  0.1409
 1148TIP3    H127639   1.839   3.382  17.116 -0.6249 -0.5251  0.3957
 1148TIP3    H227640   1.712   3.377  17.034  1.1581 -2.3040 -2.4193
 1149TIP3   OH227641   2.982   2.383  18.820 -0.9791  0.0779 -0.4400
 1149TIP3    H127642   2.971   2.290  18.804  0.1601  0.2102 -2.3127
 1149TIP3    H227643   3.067   2.390  18.864 -1.6706  0.1566  0.9335
 1150TIP3   OH227644   6.424   0.672  18.189  0.4132 -0.1271 -0.6913
 1150TIP3    H127645   6.357   0.733  18.160 -0.8291 -1.0512  0.1551
 1150TIP3    H227646   6.404   0.655  18.281  1.1231 -1.2912 -0.7252
 1151TIP3   OH227647   2.604   1.699  17.643  0.4455 -0.0220 -0.2683
 1151TIP3    H127648   2.538   1.743  17.589  1.5579  0.4211 -1.3011
 1151TIP3    H227649   2.560   1.620  17.675 -1.4340  1.5258  1.2162
 1152TIP3   OH227650   2.080   1.329  18.963  0.1866  0.2761  0.6672
 1152TIP3    H127651   2.025   1.278  19.022 -1.0890  1.4512  0.5327
 1152TIP3    H227652   2.157   1.353  19.015  0.7750 -1.6479  0.7617
 1153TIP3   OH227653   6.660   3.179  17.706  0.2666  0.3825  0.2019
 1153TIP3    H127654   6.742   3.214  17.743  0.7279 -0.5708  0.1076
 1153TIP3    H227655   6.641   3.102  17.760  0.6196 -0.6778 -1.1442
 1154TIP3   OH227656   0.721   1.970  18.026 -0.2915  0.4979 -0.3222
 1154TIP3    H127657   0.757   1.932  17.946 -1.4866  0.9695 -1.1305
 1154TIP3    H227658   0.762   1.922  18.097  0.1587 -0.5245 -1.2481
 1155TIP3   OH227659   1.640   1.289  17.871  0.0655 -0.1876 -0.0602
 1155TIP3    H127660   1.675   1.377  17.859  1.4821 -0.5086  1.3772
 1155TIP3    H227661   1.670   1.240  17.794  0.8864  0.1143  0.0602
 1156TIP3   OH227662   3.345   1.622  17.902 -0.3954 -0.3341 -0.2016
 1156TIP3    H127663   3.282   1.555  17.875 -1.7327  0.0896  1.6307
 1156TIP3    H227664   3.394   1.581  17.974  2.7319 -1.2688 -2.6426
 1157TIP3   OH227665   2.618   2.326  18.663  0.4168  0.6524  0.0693
 1157TIP3    H127666   2.677   2.398  18.641  1.5414  0.2318  1.4923
 1157TIP3    H227667   2.603   2.335  18.757  0.1721 -0.6533  0.1815
 1158TIP3   OH227668   1.021   1.671  20.362  0.3851 -0.6347  0.4222
 1158TIP3    H127669   0.969   1.697  20.439  0.0324  0.4821 -0.1621
 1158TIP3    H227670   1.094   1.621  20.398 -0.1759 -0.7651  1.4210
 1159TIP3   OH227671   5.456   4.443  18.381  0.5898  0.1600 -0.8333
 1159TIP3    H127672   5.458   4.538  18.378  1.8464  0.2486  1.2721
 1159TIP3    H227673   5.466   4.421  18.473 -0.9683 -2.0242 -1.0841
 1160TIP3   OH227674   1.027   2.024  16.881  0.1710  0.3366 -0.8210
 1160TIP3    H127675   1.032   2.116  16.855  2.8961  0.0177 -1.8423
 1160TIP3    H227676   1.115   2.003  16.913 -1.3162 -1.0271  2.9853
 1161TIP3   OH227677   2.636   2.344  19.674  0.3072  0.0105  0.3503
 1161TIP3    H127678   2.596   2.319  19.757 -0.8033  1.3684  0.2759
 1161TIP3    H227679   2.650   2.438  19.681 -0.0587  0.2073 -1.0911
 1162TIP3   OH227680   6.502   2.441  19.381 -0.1577 -0.0989 -0.4696
 1162TIP3    H127681   6.493   2.371  19.446 -3.2716  0.3214 -0.2689
 1162TIP3    H227682   6.449   2.513  19.416  2.6241  2.3073 -0.8487
 1163TIP3   OH227683   1.096   2.254  17.446  0.7775 -0.0008 -0.4382
 1163TIP3    H127684   1.045   2.180  17.479  2.5924 -0.1980  2.2268
 1163TIP3    H227685   1.037   2.329  17.455  0.0982 -0.5927  0.1921
 1164TIP3   OH227686   2.217   1.814  18.868 -0.4918 -0.5524  0.4615
 1164TIP3    H127687   2.257   1.837  18.784 -1.7200 -0.4199 -0.1116
 1164TIP3    H227688   2.247   1.882  18.928  2.9961 -2.3265  1.0129
 1165TIP3   OH227689   4.094   1.067  19.306 -0.1101  0.9097 -0.3320
 1165TIP3    H127690   4.101   1.007  19.381 -1.3874  1.1980  0.0520
 1165TIP3    H227691   4.059   1.013  19.236  0.3986  0.8071 -0.5085
 1166TIP3   OH227692   0.426   3.237  18.677  0.4142 -0.6438  0.2782
 1166TIP3    H127693   0.433   3.157  18.625  1.3303  0.1161 -0.8343
 1166TIP3    H227694   0.516   3.266  18.689  0.0599  0.8251 -0.3572
 1167TIP3   OH227695   6.298   0.874  20.044  0.0803  0.2394 -0.0090
 1167TIP3    H127696   6.348   0.951  20.071  0.5380  0.5302 -1.5801
 1167TIP3    H227697   6.212   0.885  20.086 -0.1531  2.0607 -0.8709
 1168TIP3   OH227698   5.178   5.991  17.670 -0.0185  0.4754  0.4775
 1168TIP3    H127699   5.097   5.992  17.618  1.0126 -2.4640 -1.4408
 1168TIP3    H227700   5.203   5.899  17.673  3.5286  1.3190  0.5383
 1169TIP3   OH227701   6.393   2.169  18.099  0.1640 -0.0135 -0.0786
 1169TIP3    H127702   6.435   2.161  18.185 -0.8038 -2.5846  0.2389
 1169TIP3    H227703   6.406   2.084  18.058 -3.4090 -0.4974 -0.5424
 1170TIP3   OH227704   3.591   1.125  19.328 -0.2731 -0.4075  0.2997
 1170TIP3    H127705   3.658   1.141  19.262  0.0934  0.8339  0.9300
 1170TIP3    H227706   3.521   1.079  19.282  0.3561 -0.3588 -0.7265
 1171TIP3   OH227707   6.001   1.366  17.149  0.0779  0.4765 -0.3481
 1171TIP3    H127708   6.043   1.427  17.088  0.4858  2.2018  1.5595
 1171TIP3    H227709   6.073   1.315  17.185 -0.0765  0.0173 -0.6671
 1172TIP3   OH227710   5.008   2.937  19.310 -0.5417  0.7629 -0.4753
 1172TIP3    H127711   5.006   3.014  19.366 -1.7173  1.3589 -1.3089
 1172TIP3    H227712   5.053   2.966  19.231  1.0438 -0.0542  0.0947
 1173TIP3   OH227713   0.762   3.405  19.921  0.0052 -0.2156  0.6283
 1173TIP3    H127714   0.771   3.467  19.849 -1.8124 -0.4177  0.1816
 1173TIP3    H227715   0.841   3.419  19.974  0.7111  0.8967 -0.6418
 1174TIP3   OH227716   2.425   0.497  18.310 -0.0655 -0.2549 -0.0166
 1174TIP3    H127717   2.400   0.476  18.399 -1.1601 -0.5254 -0.3804
 1174TIP3    H227718   2.520   0.484  18.308  0.6585  3.2342  2.0974
 1175TIP3   OH227719   5.445   3.512  17.661  0.2413 -0.3943 -0.0431
 1175TIP3    H127720   5.388   3.557  17.599 -0.0412  0.5412  0.8790
 1175TIP3    H227721   5.412   3.536  17.747  1.2265 -0.8883  0.4951
 1176TIP3   OH227722   3.974   2.924  16.414  0.7224  0.5121 -0.0437
 1176TIP3    H127723   4.019   3.007  16.423  0.9108  0.2898  1.3733
 1176TIP3    H227724   4.039   2.858  16.441  0.1514  0.0333  0.1906
 1177TIP3   OH227725   0.793   6.623  18.224  0.5099 -0.1079 -0.1478
 1177TIP3    H127726   0.886   6.615  18.246  1.0532  2.2530 -1.1552
 1177TIP3    H227727   0.748   6.622  18.308  1.7856  1.7400  0.6313
 1178TIP3   OH227728   3.738   1.516  19.545  0.2883 -0.5601  0.6404
 1178TIP3    H127729   3.737   1.435  19.596  2.5533 -0.0825  1.5727
 1178TIP3    H227730   3.675   1.573  19.588 -1.6974 -1.9414 -0.3237
 1179TIP3   OH227731   1.436   2.780  16.787  0.5326  0.3336  0.4564
 1179TIP3    H127732   1.377   2.842  16.745  0.2956  1.6930  2.6475
 1179TIP3    H227733   1.463   2.721  16.717 -1.2322  1.3674 -1.1768
 1180TIP3   OH227734   5.568   6.214  17.485  1.0286  0.0279  0.0898
 1180TIP3    H127735   5.586   6.231  17.578 -1.0815  3.1738  0.0698
 1180TIP3    H227736   5.617   6.282  17.438 -1.7325  1.6696 -0.6464
 1181TIP3   OH227737   4.711   0.505  19.640 -0.1050  0.0237 -0.0927
 1181TIP3    H127738   4.755   0.455  19.709 -1.2952  0.3150  0.9044
 1181TIP3    H227739   4.624   0.523  19.675 -0.2121  1.5108 -1.0510
 1182TIP3   OH227740   5.693   4.658  18.369  0.3526 -0.2490  0.5651
 1182TIP3    H127741   5.690   4.732  18.429 -0.5687  0.7920 -0.6993
 1182TIP3    H227742   5.706   4.697  18.283 -1.8664 -1.3739 -0.3728
 1183TIP3   OH227743   0.143   2.783  19.180  0.5111  0.0400 -0.3229
 1183TIP3    H127744   0.153   2.866  19.227  1.0588 -0.1415 -0.1087
 1183TIP3    H227745   0.049   2.768  19.176  0.4392  0.3147  0.2719
 1184TIP3   OH227746   6.417   0.474  17.983 -0.4799  0.1659 -0.4021
 1184TIP3    H127747   6.465   0.392  17.996 -0.6454  0.0371 -0.6055
 1184TIP3    H227748   6.444   0.530  18.056  1.6063  0.8721 -1.6250
 1185TIP3   OH227749   1.450   2.880  18.492 -0.4450 -0.7848 -0.6784
 1185TIP3    H127750   1.381   2.936  18.526 -0.4753 -0.4582 -1.2554
 1185TIP3    H227751   1.416   2.791  18.501 -0.1555 -0.7660  0.7836
 1186TIP3   OH227752   0.498   1.385  18.998  0.2080  0.8448  0.1876
 1186TIP3    H127753   0.420   1.437  18.985  0.7911  1.6619 -0.1101
 1186TIP3    H227754   0.483   1.339  19.081 -0.3593  1.3973  0.3933
 1187TIP3   OH227755   5.464   5.049  17.668  0.1200  0.3002  0.0844
 1187TIP3    H127756   5.524   5.067  17.595  0.1901  0.2397  0.1283
 1187TIP3    H227757   5.447   4.955  17.662  1.8394 -0.1452  1.4651
 1188TIP3   OH227758   2.345   4.651  16.401  0.0967 -0.1987  0.3408
 1188TIP3    H127759   2.284   4.718  16.372  0.1597 -0.1833  0.2402
 1188TIP3    H227760   2.340   4.652  16.496 -0.9055 -0.9882  0.3066
 1189TIP3   OH227761   6.457   2.093  16.453  0.6023  0.0683  0.0679
 1189TIP3    H127762   6.523   2.162  16.449 -0.4887  1.1206 -3.2415
 1189TIP3    H227763   6.405   2.114  16.531  0.7393  2.5867 -0.4416
 1190TIP3   OH227764   4.295   4.704  20.248 -0.2434 -0.5181  0.6143
 1190TIP3    H127765   4.316   4.794  20.225 -1.3811 -0.5931 -0.8366
 1190TIP3    H227766   4.379   4.665  20.272  0.3582  0.7429  0.6235
 1191TIP3   OH227767   2.977   4.861  19.924 -0.9543 -0.2500 -0.1964
 1191TIP3    H127768   2.922   4.837  19.998 -1.1043 -1.3546 -0.6469
 1191TIP3    H227769   2.927   4.929  19.879 -0.8682  0.4177  0.6982
 1192TIP3   OH227770   1.602   6.426  20.171 -0.1390  0.5055  0.2870
 1192TIP3    H127771   1.659   6.440  20.246  0.2364 -0.7278  0.2608
 1192TIP3    H227772   1.661   6.421  20.096 -0.2923 -0.3993  0.2116
 1193TIP3   OH227773   3.601   1.963  17.816 -0.4489 -0.3533  0.6280
 1193TIP3    H127774   3.543   2.000  17.883 -1.9952  0.9363 -1.2904
 1193TIP3    H227775   3.553   1.976  17.734  2.7565  1.2184 -1.1735
 1194TIP3   OH227776   0.012   6.640  18.290  0.0812  0.4156  0.1865
 1194TIP3    H127777  -0.019   6.660  18.202  1.7439 -0.7043 -0.7185
 1194TIP3    H227778  -0.066   6.610  18.336 -0.7975  0.8575 -0.9522
 1195TIP3   OH227779   4.878   4.355  19.009  0.3666  0.3931  0.3839
 1195TIP3    H127780   4.880   4.264  19.040 -0.7156  0.1071 -0.2982
 1195TIP3    H227781   4.966   4.371  18.976  1.1504  0.2625  2.2883
 1196TIP3   OH227782   4.780   4.703  18.193  0.2807 -0.6878 -0.2514
 1196TIP3    H127783   4.790   4.732  18.284 -0.0574 -0.5423 -0.2608
 1196TIP3    H227784   4.827   4.768  18.142  2.8177 -2.1858 -0.0045
 1197TIP3   OH227785   3.546   5.249  17.614 -0.2104 -0.0036 -0.2597
 1197TIP3    H127786   3.551   5.188  17.540  1.6947  1.0062 -1.0380
 1197TIP3    H227787   3.481   5.210  17.673 -0.2405 -1.9283 -1.4689
 1198TIP3   OH227788   0.253   6.574  19.729  0.1095  0.0898  0.0765
 1198TIP3    H127789   0.255   6.578  19.825 -1.8912 -1.5753  0.2362
 1198TIP3    H227790   0.330   6.523  19.706  0.1163 -0.2681  0.8531
 1199TIP3   OH227791   1.794   6.022  16.694  0.4160  0.8389 -0.1473
 1199TIP3    H127792   1.876   6.043  16.650  0.7605 -0.6856 -0.2947
 1199TIP3    H227793   1.732   6.005  16.623  0.7177 -0.6638 -0.0970
 1200TIP3   OH227794   1.405   4.086  18.743  0.0106  1.1562 -0.6380
 1200TIP3    H127795   1.325   4.127  18.710 -0.6712  1.3618  1.1550
 1200TIP3    H227796   1.384   3.993  18.748  0.9075  0.7826 -2.8913
 1201TIP3   OH227797   2.627   3.078  18.479 -0.0596 -0.3055 -0.3834
 1201TIP3    H127798   2.610   3.060  18.571  1.5420  0.2365  0.0433
 1201TIP3    H227799   2.552   3.039  18.433 -0.6512 -0.9877  1.0937
 1202TIP3   OH227800   3.826   6.117  18.487 -0.0252  0.4926 -0.3107
 1202TIP3    H127801   3.813   6.061  18.410 -0.3182 -0.3589  0.3376
 1202TIP3    H227802   3.853   6.202  18.451  0.6384 -0.1196 -1.3146
 1203TIP3   OH227803   3.119   6.652  18.827  0.2149 -0.2152  0.3489
 1203TIP3    H127804   3.132   6.558  18.825  0.4064 -0.1753 -0.8837
 1203TIP3    H227805   3.161   6.680  18.908  0.3213 -1.1516  0.6308
 1204TIP3   OH227806   5.149   0.986  18.787  0.1055  0.5152 -0.2098
 1204TIP3    H127807   5.056   0.974  18.765  0.5516 -0.2531 -1.8360
 1204TIP3    H227808   5.181   0.898  18.807  0.6367  0.6747 -0.3399
 1205TIP3   OH227809   3.153   6.432  17.570  0.7800  0.2700  0.1537
 1205TIP3    H127810   3.103   6.509  17.597  0.3713  0.9690 -2.3004
 1205TIP3    H227811   3.088   6.374  17.531  1.4619 -0.0424 -0.5532
 1206TIP3   OH227812   5.201   2.179  17.261 -0.1085 -0.2837  0.2896
 1206TIP3    H127813   5.110   2.205  17.270 -0.1628  0.5891 -2.0465
 1206TIP3    H227814   5.198   2.099  17.208  0.4612 -0.6976  0.8638
 1207TIP3   OH227815   6.692   1.631  20.055  0.0037 -0.1467 -0.2023
 1207TIP3    H127816   6.615   1.648  20.109 -0.9697  0.4293 -1.7019
 1207TIP3    H227817   6.708   1.538  20.066 -0.2716 -0.0746  0.9361
 1208TIP3   OH227818   1.552   4.469  19.548 -0.2714  0.1317  1.2296
 1208TIP3    H127819   1.632   4.509  19.583  0.4156  1.5820 -1.6929
 1208TIP3    H227820   1.494   4.543  19.531 -0.8858 -0.5671  0.1981
 1209TIP3   OH227821   1.310   1.407  19.556 -0.3730 -0.1441 -0.3411
 1209TIP3    H127822   1.289   1.444  19.471 -1.3080 -1.3290 -0.6379
 1209TIP3    H227823   1.229   1.368  19.587  0.9767 -3.9048 -1.0408
 1210TIP3   OH227824   1.418   2.480  17.990  0.1760  0.1868 -0.4111
 1210TIP3    H127825   1.464   2.438  18.063 -2.4577 -0.3333  1.0964
 1210TIP3    H227826   1.393   2.408  17.933 -0.9605  0.1149  0.1464
 1211TIP3   OH227827   2.051   0.959  18.515 -0.5653  0.2039  0.1080
 1211TIP3    H127828   1.961   0.929  18.500 -0.7789  0.4397  0.8642
 1211TIP3    H227829   2.068   0.937  18.607  0.1196  0.2447 -0.0049
 1212TIP3   OH227830   5.572   2.591  18.931  0.0300 -0.3434  0.2046
 1212TIP3    H127831   5.519   2.556  18.860 -1.0489  1.8190 -0.1358
 1212TIP3    H227832   5.537   2.549  19.010 -0.9692 -0.3237 -0.2145
 1213TIP3   OH227833   5.403   3.301  16.703  0.7115  0.2146 -0.0654
 1213TIP3    H127834   5.354   3.241  16.646 -0.3657  2.7199 -1.9794
 1213TIP3    H227835   5.490   3.305  16.663 -0.2258  2.4707 -2.1538
 1214TIP3   OH227836   4.617   3.480  19.124  0.4760  0.8031 -0.3177
 1214TIP3    H127837   4.709   3.457  19.112  0.5021  1.8137 -2.8598
 1214TIP3    H227838   4.569   3.398  19.112  0.9235  0.7943 -2.6091
 1215TIP3   OH227839   5.396   5.992  20.056 -0.1276 -0.0573 -0.3423
 1215TIP3    H127840   5.409   5.903  20.024 -0.7112 -0.2428 -0.0871
 1215TIP3    H227841   5.473   6.010  20.110 -0.0195 -0.4151 -0.3781
 1216TIP3   OH227842   5.215   3.510  18.185  0.1041 -0.1458  0.1763
 1216TIP3    H127843   5.139   3.453  18.182  0.3248 -0.4003 -1.3464
 1216TIP3    H227844   5.192   3.578  18.248 -2.0536  0.7140 -1.4344
 1217TIP3   OH227845   4.230   5.716  18.188  0.5023 -0.0974  0.1469
 1217TIP3    H127846   4.309   5.765  18.167 -0.1274  1.4642  1.1980
 1217TIP3    H227847   4.160   5.782  18.187 -0.3658 -0.9340  1.7642
 1218TIP3   OH227848   6.217   4.154  17.588  0.9836  0.2269 -0.2618
 1218TIP3    H127849   6.241   4.247  17.596  1.8231  0.1198 -1.3041
 1218TIP3    H227850   6.300   4.107  17.599  0.7636 -0.3279 -0.8950
 1219TIP3   OH227851   5.214   2.629  19.921 -0.6048 -0.1532 -0.3426
 1219TIP3    H127852   5.220   2.571  19.997  2.8688  0.0711 -0.2810
 1219TIP3    H227853   5.244   2.714  19.953  1.9667 -0.2954 -2.0674
 1220TIP3   OH227854   4.002   4.667  19.122  0.3702  0.1655  0.0411
 1220TIP3    H127855   4.011   4.573  19.111  1.8186  0.3691 -0.6791
 1220TIP3    H227856   3.942   4.677  19.196  2.1668 -1.3478  1.8171
 1221TIP3   OH227857   0.255   1.626  18.208 -0.3116 -0.1990  0.2666
 1221TIP3    H127858   0.237   1.545  18.160  2.0070 -0.0596 -0.9597
 1221TIP3    H227859   0.254   1.600  18.300 -0.4763 -1.4400 -0.0658
 1222TIP3   OH227860   1.837   5.856  17.332 -0.1360 -0.2783  0.1648
 1222TIP3    H127861   1.885   5.775  17.314  0.5473  0.5382 -1.9523
 1222TIP3    H227862   1.894   5.926  17.302 -1.3986  0.9189  0.4243
 1223TIP3   OH227863   0.310   1.642  19.597  0.3735 -0.5367 -0.2062
 1223TIP3    H127864   0.393   1.632  19.551  0.2493  0.6710 -0.7061
 1223TIP3    H227865   0.324   1.714  19.658  0.7079 -2.3993  2.1108
 1224TIP3   OH227866   1.922   5.183  19.282 -0.2535  0.7222 -0.4333
 1224TIP3    H127867   1.966   5.214  19.361 -1.5942  0.5975  0.3861
 1224TIP3    H227868   1.958   5.238  19.212  2.0180 -0.1121 -0.0239
 1225TIP3   OH227869   1.374   2.822  19.352 -0.5932  0.4213 -0.3634
 1225TIP3    H127870   1.430   2.744  19.344 -1.9849 -0.7895  0.9667
 1225TIP3    H227871   1.418   2.889  19.300  0.6363 -1.2655 -1.6126
 1226TIP3   OH227872   4.069   3.478  18.646  0.4964 -0.4935 -0.3869
 1226TIP3    H127873   4.066   3.572  18.629 -0.5131 -0.2323  1.0588
 1226TIP3    H227874   4.161   3.454  18.634  0.6566  0.5484 -1.3900
 1227TIP3   OH227875   3.399   5.661  19.361 -0.1562  0.3470  0.0245
 1227TIP3    H127876   3.321   5.714  19.378  0.2624  0.5284  1.5224
 1227TIP3    H227877   3.425   5.684  19.272 -0.9345  1.4382  0.0625
 1228TIP3   OH227878   5.287   0.763  17.686  0.2009 -0.3374  0.1823
 1228TIP3    H127879   5.254   0.694  17.743 -0.3757  1.4179  2.0822
 1228TIP3    H227880   5.265   0.845  17.731  0.2173  1.1478 -2.3011
 1229TIP3   OH227881   5.784   5.423  18.323  0.1419 -0.0690  0.1016
 1229TIP3    H127882   5.825   5.348  18.280  2.6310  1.5556 -0.6247
 1229TIP3    H227883   5.745   5.387  18.402  1.4532 -2.1169 -0.1099
 1230TIP3   OH227884   0.502   1.897  17.453  0.3151  0.0464 -0.2373
 1230TIP3    H127885   0.494   1.888  17.548  0.4844 -0.2661 -0.2511
 1230TIP3    H227886   0.480   1.810  17.419  1.9482 -0.3471 -0.3783
 1231TIP3   OH227887   0.095   4.945  17.198  0.7879 -0.4956  0.8088
 1231TIP3    H127888   0.163   4.904  17.145  0.3303  0.7861 -0.8840
 1231TIP3    H227889   0.090   5.035  17.165 -1.7576 -0.5585  0.8242
 1232TIP3   OH227890   5.247   4.947  20.237 -0.1651 -0.4594 -0.1483
 1232TIP3    H127891   5.239   4.950  20.141 -0.1031  0.2566 -0.1375
 1232TIP3    H227892   5.169   4.994  20.268 -1.5196 -2.7755  0.2301
 1233TIP3   OH227893   5.268   4.350  17.800  0.5362 -0.0527  0.1739
 1233TIP3    H127894   5.306   4.438  17.805 -0.0770  0.1373  3.4690
 1233TIP3    H227895   5.189   4.361  17.746  1.4618  0.9445 -1.0671
 1234TIP3   OH227896   1.136   0.423  18.036  0.8731  0.1705  0.5494
 1234TIP3    H127897   1.171   0.353  17.981 -1.8677 -0.5720 -0.3880
 1234TIP3    H227898   1.162   0.398  18.125  1.1636 -1.2780  0.0855
 1235TIP3   OH227899   2.260   1.532  18.556 -0.1848 -0.0132  0.2346
 1235TIP3    H127900   2.323   1.476  18.602  0.1870 -0.5805 -0.9312
 1235TIP3    H227901   2.186   1.540  18.616  0.1187 -1.0632  0.7640
 1236TIP3   OH227902   2.125   5.053  17.425 -0.1773 -0.0426 -0.2386
 1236TIP3    H127903   2.121   4.958  17.414  1.0064 -0.1759  0.3090
 1236TIP3    H227904   2.134   5.086  17.336 -2.6643 -0.2717 -0.6382
 1237TIP3   OH227905   2.513   6.360  19.851  0.0492 -0.3730  0.3934
 1237TIP3    H127906   2.577   6.431  19.854 -1.5578  1.1839  0.2471
 1237TIP3    H227907   2.565   6.280  19.846  1.9497  0.7756  0.7021
 1238TIP3   OH227908   3.683   5.454  16.703  0.0932 -0.1750 -0.0357
 1238TIP3    H127909   3.766   5.497  16.680  0.6949 -1.8513 -1.2083
 1238TIP3    H227910   3.660   5.404  16.625 -3.5233  2.3486 -0.8273
 1239TIP3   OH227911   2.115   3.102  17.531 -0.0974  0.5204 -0.7013
 1239TIP3    H127912   2.183   3.084  17.595  0.3372 -0.4987 -1.4266
 1239TIP3    H227913   2.118   3.028  17.470  0.1367  1.9036 -2.4482
 1240TIP3   OH227914   0.165   3.581  17.872  0.3328 -0.2065  0.1047
 1240TIP3    H127915   0.149   3.617  17.959  0.1186 -2.1894  0.9450
 1240TIP3    H227916   0.237   3.519  17.885  0.8043  0.0179 -1.2965
 1241TIP3   OH227917   1.059   0.677  20.076  0.0102  0.2920 -0.0377
 1241TIP3    H127918   0.976   0.718  20.100  0.2912  2.4074 -2.3334
 1241TIP3    H227919   1.115   0.749  20.048  2.4276 -1.1510  0.7095
 1242TIP3   OH227920   5.862   1.540  18.375  0.0557  0.4257  0.3268
 1242TIP3    H127921   5.951   1.527  18.343 -0.3340 -1.7790  0.0338
 1242TIP3    H227922   5.817   1.584  18.303  0.7318  0.9910  0.2366
 1243TIP3   OH227923   3.658   6.611  17.443 -0.1206  0.6547  0.1350
 1243TIP3    H127924   3.625   6.549  17.509 -1.0923  0.3404 -0.6250
 1243TIP3    H227925   3.707   6.556  17.381  1.8140  1.0986  1.1873
 1244TIP3   OH227926   3.304   5.724  17.608  0.2537  0.2864 -0.0779
 1244TIP3    H127927   3.237   5.676  17.560 -1.0297  1.1862  0.7230
 1244TIP3    H227928   3.273   5.723  17.699 -0.7330  3.8598 -0.1904
 1245TIP3   OH227929   2.151   6.014  17.522 -0.5415  0.4831 -0.0968
 1245TIP3    H127930   2.092   6.078  17.482  1.2466  1.2141 -1.7159
 1245TIP3    H227931   2.179   6.055  17.603  0.0098  1.4676 -0.7657
 1246TIP3   OH227932   3.568   2.782  17.397  0.3011 -0.7045  0.0289
 1246TIP3    H127933   3.595   2.759  17.485  1.7794  1.1655  0.1241
 1246TIP3    H227934   3.645   2.824  17.358 -0.3653 -1.3096 -2.1041
 1247TIP3   OH227935   2.364   4.443  16.731  0.0528  0.1091  0.0804
 1247TIP3    H127936   2.439   4.434  16.790  0.2072  0.6435 -0.0288
 1247TIP3    H227937   2.368   4.365  16.676 -0.7636 -0.9922  1.5153
 1248TIP3   OH227938   3.504   6.137  19.421 -0.1961 -0.6093  0.7017
 1248TIP3    H127939   3.536   6.104  19.337  1.0884 -1.5538  1.5200
 1248TIP3    H227940   3.413   6.109  19.425  0.2667 -2.2589  0.4425
 1249TIP3   OH227941   1.770   6.277  19.568  0.1757 -0.7259 -0.1563
 1249TIP3    H127942   1.676   6.261  19.579  0.2871 -1.1673  0.1647
 1249TIP3    H227943   1.798   6.317  19.650 -0.0411  0.9080 -0.8427
 1250TIP3   OH227944   3.181   6.655  19.861  0.3028 -0.1361  0.1320
 1250TIP3    H127945   3.098   6.680  19.901 -0.6565 -1.7681 -0.7421
 1250TIP3    H227946   3.166   6.663  19.767  1.2848 -0.0412 -0.0251
 1251TIP3   OH227947   0.814   5.105  18.644 -0.2421  0.1693  0.1082
 1251TIP3    H127948   0.891   5.048  18.656  0.4821  0.8580 -1.0505
 1251TIP3    H227949   0.752   5.051  18.596 -0.5372 -0.4222  1.1235
 1252TIP3   OH227950   5.699   4.785  16.750  0.2614 -0.1439 -0.2846
 1252TIP3    H127951   5.794   4.775  16.756  0.2408 -0.0669  0.2553
 1252TIP3    H227952   5.686   4.852  16.683  0.6480  0.7291  0.4791
 1253TIP3   OH227953   1.297   1.224  16.675 -0.2903  0.5667  0.4077
 1253TIP3    H127954   1.340   1.287  16.733  0.0678 -0.5812  1.4437
 1253TIP3    H227955   1.254   1.162  16.735  0.8010 -1.1488 -0.5066
 1254TIP3   OH227956   4.007   4.053  18.547  0.4871 -0.1696  0.1701
 1254TIP3    H127957   3.930   4.023  18.595  0.7755 -0.2594  0.5803
 1254TIP3    H227958   4.082   4.017  18.595  0.7840 -0.1659 -0.2788
 1255TIP3   OH227959   6.480   1.889  18.762  0.0710  0.0325  0.7014
 1255TIP3    H127960   6.443   1.845  18.685  0.2436  1.3360 -0.1625
 1255TIP3    H227961   6.415   1.956  18.784 -0.0236 -0.3905  1.7741
 1256TIP3   OH227962   5.152   1.045  19.620  0.2126 -0.3126 -0.0526
 1256TIP3    H127963   5.062   1.016  19.634  0.6548 -0.5447  2.8513
 1256TIP3    H227964   5.201   0.965  19.604  0.2121 -0.3800  0.2863
 1257TIP3   OH227965   1.597   3.047  19.444  0.6456  0.5540  0.1958
 1257TIP3    H127966   1.561   3.050  19.533 -1.6266 -1.3791 -0.5513
 1257TIP3    H227967   1.642   2.963  19.439 -1.3516 -0.5144 -1.1273
 1258TIP3   OH227968   2.459   0.516  18.566  0.2434  0.6963 -0.4474
 1258TIP3    H127969   2.429   0.529  18.656  0.5185  0.7332 -0.3637
 1258TIP3    H227970   2.554   0.522  18.570  0.2552  0.7690 -0.7533
 1259TIP3   OH227971   5.092   3.781  18.853  0.5929  0.7213  0.0630
 1259TIP3    H127972   5.023   3.771  18.919  0.6307 -1.0062 -0.1305
 1259TIP3    H227973   5.046   3.816  18.777 -0.0738 -0.2768 -0.0182
 1260TIP3   OH227974   5.913   2.595  18.217 -0.1442  0.6921 -0.1128
 1260TIP3    H127975   5.953   2.662  18.162 -2.2531  1.9781 -0.1765
 1260TIP3    H227976   5.930   2.625  18.307 -0.3675  0.8499 -0.1253
 1261TIP3   OH227977   0.534   5.215  18.338  0.1701  0.1735 -0.0067
 1261TIP3    H127978   0.480   5.174  18.270  1.2377 -0.4756 -0.4850
 1261TIP3    H227979   0.474   5.227  18.412 -0.5334 -0.9087 -0.3808
 1262TIP3   OH227980   4.686   3.085  19.360 -0.2163 -0.1907  0.2563
 1262TIP3    H127981   4.717   3.003  19.320 -0.6225  0.5064 -1.5583
 1262TIP3    H227982   4.713   3.153  19.299 -0.3578  1.0039  1.4831
 1263TIP3   OH227983   0.867   3.498  16.729  0.4991 -0.5871  0.3682
 1263TIP3    H127984   0.910   3.567  16.678 -2.2714  0.3981 -0.8331
 1263TIP3    H227985   0.848   3.540  16.813 -1.3471  0.3038 -0.4239
 1264TIP3   OH227986   4.315   2.926  18.455 -0.2750  0.1430 -0.0768
 1264TIP3    H127987   4.314   2.831  18.465 -1.1337  0.3541  2.9027
 1264TIP3    H227988   4.376   2.943  18.383  0.1903 -2.6054 -0.4243
 1265TIP3   OH227989   5.559   6.206  18.011  0.1035 -0.1806  0.4464
 1265TIP3    H127990   5.473   6.195  18.051  0.4101 -1.3914  0.8228
 1265TIP3    H227991   5.620   6.168  18.074  0.6722 -1.4396 -0.7895
 1266TIP3   OH227992   5.082   2.776  17.992 -0.4502  0.9300 -0.3575
 1266TIP3    H127993   5.063   2.797  18.084 -1.8117  0.2958 -0.4670
 1266TIP3    H227994   5.138   2.699  17.997 -0.2781  1.0701 -0.0556
 1267TIP3   OH227995   4.259   3.427  17.726  0.4835  0.1191 -0.5243
 1267TIP3    H127996   4.173   3.457  17.754 -0.1413 -1.6613 -0.3737
 1267TIP3    H227997   4.319   3.458  17.794 -0.3742 -0.4119  0.4948
 1268TIP3   OH227998   0.696   3.268  18.743  0.3839  0.0635  0.4518
 1268TIP3    H127999   0.716   3.299  18.831  1.1382 -0.1775  0.3699
 1268TIP3    H228000   0.734   3.335  18.685 -1.0465  0.7920  0.3046
 1269TIP3   OH228001   2.093   4.395  19.990 -0.2917  0.1677 -0.3052
 1269TIP3    H128002   2.129   4.417  19.904  2.3950  1.4960  1.0472
 1269TIP3    H228003   2.063   4.479  20.026 -0.1972 -0.1614  0.5660
 1270TIP3   OH228004   5.412   6.416  19.854  0.1100 -0.2607 -0.2225
 1270TIP3    H128005   5.460   6.395  19.934 -1.3514 -1.8002  0.3170
 1270TIP3    H228006   5.475   6.397  19.784  1.0898  0.1623  0.5205
 1271TIP3   OH228007   2.512   1.119  18.075  0.0977 -0.4067  0.3295
 1271TIP3    H128008   2.535   1.036  18.034  1.0599  0.1127 -0.2189
 1271TIP3    H228009   2.596   1.160  18.095 -0.3687  0.1268  1.2374
 1272TIP3   OH228010   5.477   0.269  18.922 -0.4945 -0.4442 -0.6653
 1272TIP3    H128011   5.492   0.262  18.828  1.3368  3.7593 -0.9045
 1272TIP3    H228012   5.562   0.250  18.962 -1.0618 -1.4218  0.1244
 1273TIP3   OH228013   3.328   4.289  19.955  0.2984 -0.1569  0.3023
 1273TIP3    H128014   3.306   4.330  19.871  2.1026 -0.2270 -0.2537
 1273TIP3    H228015   3.266   4.217  19.964  1.3708 -1.4625 -2.0242
 1274TIP3   OH228016   0.972   4.984  18.381 -0.3943 -0.2566 -0.4203
 1274TIP3    H128017   0.917   5.050  18.340  0.5693  0.6086 -0.3568
 1274TIP3    H228018   1.060   5.000  18.347  0.2723 -0.0831  1.2648
 1275TIP3   OH228019   3.504   6.675  19.685  0.1809 -0.5420  0.1077
 1275TIP3    H128020   3.475   6.749  19.632  1.0738 -0.0107  0.3464
 1275TIP3    H228021   3.586   6.703  19.724 -0.1915 -1.1107  1.3721
 1276TIP3   OH228022   5.370   1.377  18.604  0.1879  0.2735 -0.6204
 1276TIP3    H128023   5.408   1.390  18.691  0.1160 -2.1727 -0.1573
 1276TIP3    H228024   5.292   1.324  18.620  1.6938 -2.6628 -2.3498
 1277TIP3   OH228025   6.426   2.368  19.912  0.7990  0.3514 -0.2389
 1277TIP3    H128026   6.432   2.273  19.906 -1.5969  0.0485  1.0489
 1277TIP3    H228027   6.500   2.400  19.860  3.0431 -2.1993  1.1464
 1278TIP3   OH228028   2.192   1.592  17.800 -0.1541 -0.6114 -0.3090
 1278TIP3    H128029   2.162   1.682  17.802  0.4602 -0.4082  1.1352
 1278TIP3    H228030   2.112   1.540  17.805 -0.4516 -0.1186  0.2700
 1279TIP3   OH228031   3.983   4.755  19.840 -0.1995 -0.3448  0.1508
 1279TIP3    H128032   4.011   4.829  19.785  3.9618 -0.7378  1.3962
 1279TIP3    H228033   3.970   4.793  19.927 -0.7349 -0.6598  0.2109
 1280TIP3   OH228034   1.067   6.571  17.229 -0.2798 -0.1528  0.0518
 1280TIP3    H128035   1.008   6.518  17.175 -2.5251  0.7587  1.4501
 1280TIP3    H228036   1.071   6.655  17.183  2.0891 -0.9556 -1.3810
 1281TIP3   OH228037   1.940   3.583  16.610 -0.2801 -0.5696  0.2525
 1281TIP3    H128038   1.943   3.509  16.549  1.2001 -2.5094  2.4793
 1281TIP3    H228039   2.010   3.641  16.580 -1.0278 -0.3335 -1.1447
 1282TIP3   OH228040   0.201   6.099  17.747 -0.5936  0.2399  0.2956
 1282TIP3    H128041   0.163   6.038  17.810  0.1435 -1.2202 -0.6371
 1282TIP3    H228042   0.280   6.133  17.790 -0.2964 -0.4608  0.3053
 1283TIP3   OH228043   4.201   4.258  17.978 -0.1013  0.4305  0.2791
 1283TIP3    H128044   4.178   4.306  18.058  0.2955  0.4860  0.3629
 1283TIP3    H228045   4.201   4.324  17.909 -0.9294  0.2952  0.1378
 1284TIP3   OH228046   3.553   4.687  16.950  0.3647  0.6277  0.1222
 1284TIP3    H128047   3.500   4.622  16.904  0.7719 -0.9243  1.7391
 1284TIP3    H228048   3.632   4.640  16.974  1.0753  2.0083  0.5429
 1285TIP3   OH228049   6.708   1.077  20.184 -0.1660  0.6318 -0.0606
 1285TIP3    H128050   6.745   1.022  20.116  0.4681  0.3984  0.4647
 1285TIP3    H228051   6.759   1.057  20.262 -2.1636 -0.6406  1.0263
 1286TIP3   OH228052   4.527   6.653  18.795 -0.0020 -0.1639 -0.2998
 1286TIP3    H128053   4.575   6.708  18.733 -0.7922  0.8832 -0.0097
 1286TIP3    H228054   4.571   6.668  18.879  0.7205 -1.1586 -0.4738
 1287TIP3   OH228055   2.939   2.870  20.021  0.5914 -0.0178  0.3568
 1287TIP3    H128056   2.992   2.933  19.972  1.3202  0.6540  1.9452
 1287TIP3    H228057   2.853   2.912  20.030  1.1741  0.9576  1.7077
 1288TIP3   OH228058   2.826   3.850  19.918 -0.7847  0.0849  0.1650
 1288TIP3    H128059   2.800   3.809  19.835  1.3214 -0.1555 -0.4273
 1288TIP3    H228060   2.759   3.821  19.980 -1.7093 -0.7844 -1.1592
 1289TIP3   OH228061   5.667   6.223  17.736 -0.0048 -0.7236 -0.5631
 1289TIP3    H128062   5.763   6.223  17.729  0.0199  0.1443 -0.3609
 1289TIP3    H228063   5.650   6.220  17.830 -0.1599 -0.1925 -0.5710
 1290TIP3   OH228064   3.989   2.848  19.052  0.7127 -0.2858  0.5081
 1290TIP3    H128065   3.982   2.753  19.063  0.1482 -0.4619 -1.1382
 1290TIP3    H228066   3.911   2.873  19.002  1.2129  0.9369  0.2932
 1291TIP3   OH228067   5.623   0.626  18.205 -0.3544 -0.1149 -0.0034
 1291TIP3    H128068   5.683   0.619  18.279 -0.4419 -0.7076  0.0171
 1291TIP3    H228069   5.536   0.624  18.244 -0.4327  2.2463  0.1087
 1292TIP3   OH228070   6.386   3.957  18.657  0.4993 -0.2999  0.1499
 1292TIP3    H128071   6.360   3.887  18.717 -0.2407  0.2101  0.4443
 1292TIP3    H228072   6.480   3.969  18.672  0.7077 -1.4651 -0.1685
 1293TIP3   OH228073   1.605   1.227  18.265 -0.2041 -0.0152 -0.1374
 1293TIP3    H128074   1.697   1.248  18.278 -0.0235 -1.2723  0.8413
 1293TIP3    H228075   1.587   1.252  18.175  0.6385  1.8004  0.1395
 1294TIP3   OH228076   2.527   2.632  17.269 -0.3584  0.7048  0.4338
 1294TIP3    H128077   2.433   2.625  17.288 -0.5958  0.4771 -0.7154
 1294TIP3    H228078   2.552   2.543  17.243 -0.5343  1.3181 -2.1530
 1295TIP3   OH228079   0.471   1.136  19.930  0.3217 -0.1955 -0.5548
 1295TIP3    H128080   0.493   1.193  19.855 -4.7855  1.0572 -1.5213
 1295TIP3    H228081   0.408   1.073  19.894  0.9752 -2.4170  1.9007
 1296TIP3   OH228082   3.220   4.839  17.888 -0.4051 -0.5797  0.0533
 1296TIP3    H128083   3.265   4.897  17.950 -0.4932 -0.8093  0.3375
 1296TIP3    H228084   3.263   4.754  17.900 -1.5113 -1.0287  0.9926
 1297TIP3   OH228085   6.506   2.816  19.476 -0.3055 -0.1059  0.1832
 1297TIP3    H128086   6.449   2.739  19.486  0.6437 -1.1382 -1.7468
 1297TIP3    H228087   6.590   2.789  19.514 -0.6046  0.8296  1.5626
 1298TIP3   OH228088   5.601   5.103  18.652 -0.5477  0.3012  0.0531
 1298TIP3    H128089   5.523   5.119  18.705  0.3668  2.4513  0.8671
 1298TIP3    H228090   5.611   5.183  18.600  1.0262  0.0177 -0.1253
 1299TIP3   OH228091   4.936   4.228  20.072 -0.4493  0.0004 -0.1684
 1299TIP3    H128092   4.980   4.162  20.126  1.8400  0.4906 -1.2728
 1299TIP3    H228093   4.970   4.212  19.984 -1.7057  1.1592 -0.8997
 1300TIP3   OH228094   3.884   6.351  18.331 -0.2998 -0.6812  0.5505
 1300TIP3    H128095   3.865   6.439  18.299 -0.2810 -0.8268  0.1324
 1300TIP3    H228096   3.971   6.331  18.297 -1.7611 -2.3577 -2.7296
 1301TIP3   OH228097   4.675   1.096  19.856  0.1242 -0.3278 -0.3885
 1301TIP3    H128098   4.592   1.053  19.832 -0.3232 -3.4040  5.0017
 1301TIP3    H228099   4.742   1.046  19.809 -0.8441 -2.1515  0.0787
 1302TIP3   OH228100   3.230   6.425  18.153  0.2265  0.6243 -0.2123
 1302TIP3    H128101   3.252   6.333  18.136  0.9411  0.6984  0.2606
 1302TIP3    H228102   3.278   6.446  18.233 -1.7180  0.7592  0.9519
 1303TIP3   OH228103   5.119   2.704  17.581 -0.1693  0.6010 -0.1991
 1303TIP3    H128104   5.214   2.695  17.584 -0.2954 -0.8148  0.7122
 1303TIP3    H228105   5.096   2.683  17.491  0.2435 -1.0965  0.0607
 1304TIP3   OH228106   0.185   6.660  19.484  0.3149 -0.0545 -0.3719
 1304TIP3    H128107   0.109   6.712  19.510  2.0462  2.8051 -0.6357
 1304TIP3    H228108   0.227   6.636  19.566 -0.5933 -1.2863 -0.2422
 1305TIP3   OH228109   1.425   4.423  17.216 -0.5389 -0.2141 -0.4475
 1305TIP3    H128110   1.504   4.474  17.202 -0.4386 -0.6226 -1.4602
 1305TIP3    H228111   1.452   4.350  17.272 -0.3517  0.0143 -0.2379
 1306TIP3   OH228112   3.015   6.663  17.609 -0.3795 -0.3070  0.4762
 1306TIP3    H128113   2.932   6.697  17.574  0.1000 -0.2708 -0.6564
 1306TIP3    H228114   3.013   6.687  17.702 -0.2435  2.5643 -0.1641
 1307TIP3   OH228115   1.874   2.916  18.393  0.0843 -0.0463  0.4037
 1307TIP3    H128116   1.832   2.947  18.474  1.3172  0.9759  0.6799
 1307TIP3    H228117   1.873   2.992  18.335 -0.8028 -0.7789 -0.5800
 1308TIP3   OH228118   4.491   0.142  19.519 -0.2726  0.3552  0.1654
 1308TIP3    H128119   4.586   0.148  19.523 -0.3200  0.4687  1.4678
 1308TIP3    H228120   4.474   0.091  19.440  0.9683 -1.5224  1.0214
 1309TIP3   OH228121   1.970   2.338  18.199 -0.4381 -0.7129  0.4640
 1309TIP3    H128122   1.922   2.375  18.273 -0.2956 -2.3154  1.4094
 1309TIP3    H228123   1.937   2.248  18.191 -0.0054 -0.7693 -1.0389
 1310TIP3   OH228124   5.608   3.093  18.338  0.3666 -0.0710 -0.0554
 1310TIP3    H128125   5.643   3.087  18.249  0.5394  2.1470 -0.2032
 1310TIP3    H228126   5.645   3.018  18.383 -0.7945 -2.0526 -2.1448
 1311TIP3   OH228127   3.851   2.353  17.842 -0.7511  0.1065 -0.0016
 1311TIP3    H128128   3.879   2.438  17.877  1.1155  0.2989 -1.7690
 1311TIP3    H228129   3.760   2.344  17.872 -0.5932  2.1077  1.3153
 1312TIP3   OH228130   2.708   5.071  17.088  0.1013 -0.3940 -0.0746
 1312TIP3    H128131   2.696   5.159  17.055  0.2701 -1.1736 -2.4064
 1312TIP3    H228132   2.653   5.016  17.032  1.6183 -2.0029 -0.0886
 1313TIP3   OH228133   2.765   1.841  17.297  0.2100 -0.4347  0.3323
 1313TIP3    H128134   2.781   1.768  17.238 -0.5444 -1.8629  1.8270
 1313TIP3    H228135   2.670   1.851  17.298  0.2453 -0.1205  0.9478
 1314TIP3   OH228136   3.426   6.493  18.322 -0.0647 -0.3051 -0.0818
 1314TIP3    H128137   3.468   6.505  18.237  0.8829 -0.4449  0.3546
 1314TIP3    H228138   3.383   6.577  18.339  3.2156  1.2762  1.1576
 1315TIP3   OH228139   2.179   3.961  17.551  0.4394  0.5962  0.6349
 1315TIP3    H128140   2.192   4.054  17.572 -0.0426  0.3977  1.8529
 1315TIP3    H228141   2.153   3.962  17.458 -2.7006  2.0039  1.3630
 1316TIP3   OH228142   0.439   0.114  19.833 -0.0322  0.0136  0.3979
 1316TIP3    H128143   0.521   0.066  19.837 -0.0202 -0.2168 -1.5925
 1316TIP3    H228144   0.377   0.061  19.883  0.6663 -0.5862  0.6445
 1317TIP3   OH228145   3.581   6.084  19.904  0.2879 -0.1808 -0.1544
 1317TIP3    H128146   3.511   6.020  19.924  0.7010 -0.2739  1.1077
 1317TIP3    H228147   3.566   6.108  19.813 -0.4964 -1.3261 -0.3579
 1318TIP3   OH228148   1.090   3.218  17.373  0.4961  0.2609  0.0817
 1318TIP3    H128149   1.182   3.194  17.359  0.0079 -1.2853 -0.6007
 1318TIP3    H228150   1.074   3.289  17.310  1.4551  1.2235  0.8707
 1319TIP3   OH228151   2.746   3.199  16.893  0.3959  0.8550  0.0634
 1319TIP3    H128152   2.830   3.164  16.922  0.1267  0.3002  0.2010
 1319TIP3    H228153   2.768   3.277  16.842  1.0168  0.4590 -0.2822
 1320TIP3   OH228154   5.472   1.806  19.721  0.2812 -0.2358  0.1851
 1320TIP3    H128155   5.448   1.848  19.639 -0.2899 -0.7704  0.0628
 1320TIP3    H228156   5.558   1.769  19.704 -0.2879 -1.2948 -0.5646
 1321TIP3   OH228157   0.189   1.765  18.857 -0.6368  0.3983  0.2189
 1321TIP3    H128158   0.187   1.817  18.938 -1.7326 -0.5001  0.8004
 1321TIP3    H228159   0.189   1.830  18.787 -1.6119  1.2046  0.9332
 1322TIP3   OH228160   3.615   3.007  17.689 -0.0762 -0.0180 -0.0869
 1322TIP3    H128161   3.520   2.994  17.685 -0.3744  1.9029 -0.1359
 1322TIP3    H228162   3.642   2.958  17.767 -1.0310 -0.8613 -0.2573
 1323TIP3   OH228163   0.299   5.820  17.763 -0.1141  0.1321  0.3564
 1323TIP3    H128164   0.253   5.899  17.736  2.5074  2.0475  1.1005
 1323TIP3    H228165   0.333   5.783  17.681  0.2018  0.8485  0.1571
 1324TIP3   OH228166   0.170   1.467  19.774 -0.6214 -0.0967  0.1814
 1324TIP3    H128167   0.082   1.502  19.770  0.3388  2.4111 -2.0186
 1324TIP3    H228168   0.225   1.536  19.737  1.9881 -2.3636 -0.4910
 1325TIP3   OH228169   5.663   5.956  16.954  0.5946  0.2157 -0.1840
 1325TIP3    H128170   5.750   5.994  16.956  1.1591 -0.9640 -1.1529
 1325TIP3    H228171   5.665   5.894  16.881 -0.5637 -0.9672  0.7230
 1326TIP3   OH228172   0.089   1.987  19.119  0.0774 -0.0805 -0.3196
 1326TIP3    H128173   0.027   1.987  19.046  0.2392 -0.1266 -0.4559
 1326TIP3    H228174   0.166   2.033  19.085 -0.1981  0.7242  0.1154
 1327TIP3   OH228175   5.032   0.766  19.587  0.1198 -0.3025 -0.4138
 1327TIP3    H128176   5.093   0.769  19.513  0.6095  0.0663  0.0052
 1327TIP3    H228177   5.075   0.711  19.652 -0.5834 -1.1366 -0.6357
 1328TIP3   OH228178   1.501   0.404  18.922 -0.1393 -0.2337 -0.6238
 1328TIP3    H128179   1.493   0.354  19.004 -0.9511  1.7515  0.6015
 1328TIP3    H228180   1.431   0.370  18.866 -1.3401  0.1759  0.5738
 1329TIP3   OH228181   5.186   1.774  18.314 -0.4581  0.0326  0.3121
 1329TIP3    H128182   5.221   1.721  18.385  1.5313  2.6416  1.4386
 1329TIP3    H228183   5.238   1.750  18.237  0.4898  0.3984  0.8315
 1330TIP3   OH228184   6.109   3.116  17.667  0.1717 -0.4107  0.1899
 1330TIP3    H128185   6.071   3.054  17.604 -1.5849 -0.2889  1.0709
 1330TIP3    H228186   6.160   3.060  17.727 -0.0229 -0.7983 -0.0010
 1331TIP3   OH228187   1.321   2.386  18.318  1.0158 -0.6775 -0.1938
 1331TIP3    H128188   1.306   2.319  18.384  0.6070 -0.7546 -0.3636
 1331TIP3    H228189   1.399   2.355  18.270  3.4264  1.0049  2.3354
 1332TIP3   OH228190   1.660   3.389  18.664  0.3941  0.4060  0.4114
 1332TIP3    H128191   1.643   3.402  18.571  0.6705 -1.5885  0.0406
 1332TIP3    H228192   1.747   3.426  18.678  0.4471  0.5105 -0.1680
 1333TIP3   OH228193   5.227   4.889  17.256 -0.0770 -0.2236  0.0232
 1333TIP3    H128194   5.241   4.938  17.175  1.8768 -0.4010  0.1935
 1333TIP3    H228195   5.235   4.797  17.231 -3.3647 -0.5347 -0.2250
 1334TIP3   OH228196   5.852   2.775  19.185  0.0567  0.3044 -0.3978
 1334TIP3    H128197   5.770   2.824  19.177  0.6510  1.7669  1.4856
 1334TIP3    H228198   5.920   2.843  19.186  1.1598 -0.7650 -0.4681
 1335TIP3   OH228199   3.299   6.162  18.083  0.3016  0.1313 -0.5079
 1335TIP3    H128200   3.295   6.153  17.987 -0.9543 -0.2649 -0.4367
 1335TIP3    H228201   3.228   6.106  18.115  0.6162  0.3773  0.6574
 1336TIP3   OH228202   4.610   6.714  19.098 -0.3910 -0.0393 -0.0603
 1336TIP3    H128203   4.606   6.618  19.102 -0.1251 -0.0598 -0.2338
 1336TIP3    H228204   4.572   6.743  19.180 -0.7537 -0.2876 -0.1414
 1337TIP3   OH228205   3.427   4.938  17.685  0.2024  0.2998  0.1368
 1337TIP3    H128206   3.364   4.873  17.655  0.8033 -0.1619 -0.1635
 1337TIP3    H228207   3.379   5.021  17.683  0.0082  0.1925 -1.5106
 1338TIP3   OH228208   3.532   5.219  18.003  0.1173  0.4741 -0.3344
 1338TIP3    H128209   3.457   5.279  18.000 -0.1001  0.1873 -1.0620
 1338TIP3    H228210   3.606   5.272  17.972  0.3834  0.9642  1.0761
 1339TIP3   OH228211   2.573   3.357  17.215 -0.4218 -0.2336 -0.0913
 1339TIP3    H128212   2.522   3.426  17.256 -0.5990  0.0372 -0.7700
 1339TIP3    H228213   2.548   3.358  17.123  1.8467  0.8769 -0.7820
 1340TIP3   OH228214   3.937   0.343  19.009  0.4371  0.0971 -0.0947
 1340TIP3    H128215   3.984   0.377  19.085  0.0851  1.1095 -0.3150
 1340TIP3    H228216   3.973   0.392  18.934  2.5182 -2.5530 -0.9877
 1341TIP3   OH228217   0.175   1.357  19.397  0.8043 -0.0904  0.0277
 1341TIP3    H128218   0.192   1.389  19.485  1.3055 -0.2155 -0.0203
 1341TIP3    H228219   0.158   1.436  19.345 -2.5241 -0.1272  0.8228
 1342TIP3   OH228220   4.511   4.293  19.602  0.3793 -0.0707 -0.0650
 1342TIP3    H128221   4.547   4.281  19.514 -0.8237 -0.4462 -0.5226
 1342TIP3    H228222   4.587   4.317  19.655  1.3338 -0.9673 -0.9661
 1343TIP3   OH228223   1.653   1.067  19.091 -0.2575  0.0828  0.4135
 1343TIP3    H128224   1.675   1.012  19.166  2.1505  1.7860  1.0947
 1343TIP3    H228225   1.622   1.149  19.130  0.9602  0.9722 -0.3778
 1344TIP3   OH228226   1.928   6.262  18.059  0.4268 -0.3564  0.5399
 1344TIP3    H128227   1.973   6.178  18.069  0.2687 -0.5417 -0.2458
 1344TIP3    H228228   1.915   6.272  17.964  0.6976  0.6903  0.5945
 1345TIP3   OH228229   2.844   4.704  19.613  0.0520  0.8277  0.0077
 1345TIP3    H128230   2.770   4.728  19.669  0.1248 -1.3779  1.1650
 1345TIP3    H228231   2.903   4.655  19.671  0.5237 -0.8569 -1.7786
 1346TIP3   OH228232   1.026   0.034  18.636  0.6145  0.1495  0.3558
 1346TIP3    H128233   1.027   0.091  18.712 -0.6274 -0.3690  0.7886
 1346TIP3    H228234   0.942   0.051  18.593  1.2699  0.4048 -0.8950
 1347TIP3   OH228235   6.342   1.275  19.227 -0.0449  0.0694  0.6587
 1347TIP3    H128236   6.330   1.257  19.320 -3.6900 -1.2476  0.1077
 1347TIP3    H228237   6.326   1.191  19.184  1.3946  0.6743 -1.1985
 1348TIP3   OH228238   4.919   4.890  17.849  0.0907  0.2019  0.0180
 1348TIP3    H128239   4.968   4.809  17.836 -2.4877 -1.8368  2.0968
 1348TIP3    H228240   4.852   4.889  17.781 -0.7360 -0.0781  0.8265
 1349TIP3   OH228241   1.566   4.156  18.042  0.5019 -0.2190  0.0952
 1349TIP3    H128242   1.541   4.150  17.950  0.9235  2.8278 -0.3175
 1349TIP3    H228243   1.485   4.139  18.091 -0.0251 -0.5122 -0.8594
 1350TIP3   OH228244   1.086   0.509  18.498 -0.0294 -0.6692  0.3186
 1350TIP3    H128245   1.073   0.487  18.591 -0.2960  0.1788  0.4957
 1350TIP3    H228246   1.074   0.604  18.495  2.6942 -0.2628 -0.1258
 1351TIP3   OH228247   2.289   3.074  17.742 -0.3032  0.3013  0.0668
 1351TIP3    H128248   2.269   3.158  17.784 -1.0501  0.1883 -0.0476
 1351TIP3    H228249   2.356   3.035  17.798 -0.4673  0.6560  0.5221
 1352TIP3   OH228250   0.053   0.436  17.089  0.1348  0.2051  0.1700
 1352TIP3    H128251   0.113   0.498  17.047  0.8909 -0.5296  0.1416
 1352TIP3    H228252  -0.034   0.472  17.073  0.5153  0.8089 -0.5941
 1353TIP3   OH228253   0.110   6.334  19.387 -0.3645 -0.6191  0.1590
 1353TIP3    H128254   0.123   6.390  19.310 -0.2552 -0.2732  0.4304
 1353TIP3    H228255   0.047   6.381  19.441 -0.6846 -1.0146  0.1318
 1354TIP3   OH228256   4.351   5.650  20.060  0.3309  0.3134  0.3350
 1354TIP3    H128257   4.276   5.613  20.014 -0.3539  0.9824  0.8711
 1354TIP3    H228258   4.319   5.735  20.092  1.1923  0.4286  0.9110
 1355TIP3   OH228259   5.709   4.526  19.716 -0.2292 -0.6255 -0.2724
 1355TIP3    H128260   5.617   4.514  19.692 -0.7619 -0.8862  1.7410
 1355TIP3    H228261   5.710   4.610  19.762  0.9585  0.4031 -2.0337
 1356TIP3   OH228262   1.178   6.330  19.081  0.0597  0.3503 -0.1854
 1356TIP3    H128263   1.138   6.355  19.164  0.4681 -0.2421  0.1953
 1356TIP3    H228264   1.258   6.284  19.106  1.1626  1.7729 -0.9359
 1357TIP3   OH228265   1.740   3.675  17.130  0.5421  0.2564  0.3026
 1357TIP3    H128266   1.765   3.616  17.059 -0.0527  0.1758  0.1467
 1357TIP3    H228267   1.650   3.649  17.151 -0.0371  1.6464 -0.3379
 1358TIP3   OH228268   0.401   5.489  19.455 -0.4116 -0.6129  0.0200
 1358TIP3    H128269   0.463   5.539  19.401  0.1810 -1.6093 -0.2319
 1358TIP3    H228270   0.357   5.556  19.507  1.7858  0.0577  1.1721
 1359TIP3   OH228271   0.045   4.169  17.077  0.3385 -0.1238  0.0617
 1359TIP3    H128272  -0.047   4.190  17.061  0.0950 -1.9639 -1.2219
 1359TIP3    H228273   0.045   4.118  17.157  0.2808  0.1426  0.2309
 1360TIP3   OH228274   4.986   6.400  17.853 -0.0033 -0.0324 -0.3075
 1360TIP3    H128275   4.894   6.386  17.873  0.3513 -0.5708  1.0693
 1360TIP3    H228276   5.020   6.312  17.835  0.7442 -0.2047  1.6303
 1361TIP3   OH228277   3.330   4.042  18.971  0.5493  0.2877 -0.8786
 1361TIP3    H128278   3.319   3.967  18.913 -0.5651 -0.5637  0.3884
 1361TIP3    H228279   3.307   4.117  18.918 -2.2134 -0.6241 -1.0878
 1362TIP3   OH228280   4.528   2.570  19.401 -0.3063  0.4300  0.2846
 1362TIP3    H128281   4.571   2.628  19.338  0.6573 -0.7476 -0.1821
 1362TIP3    H228282   4.517   2.488  19.353 -1.0344  0.0071  1.1497
 1363TIP3   OH228283   6.686   5.114  18.333  0.7125 -0.2363  0.9481
 1363TIP3    H128284   6.704   5.025  18.302  0.3175 -0.1476  0.4340
 1363TIP3    H228285   6.639   5.102  18.415  1.6426 -0.4825  1.4533
 1364TIP3   OH228286   3.229   0.825  19.590 -0.0095  0.2675 -0.1549
 1364TIP3    H128287   3.150   0.871  19.616  0.1829 -0.4944  1.9586
 1364TIP3    H228288   3.246   0.854  19.500 -2.3089  0.9238 -0.4295
 1365TIP3   OH228289   4.870   1.493  19.527 -0.2491 -0.0521 -0.3465
 1365TIP3    H128290   4.864   1.474  19.434 -1.2165 -0.1231 -0.2775
 1365TIP3    H228291   4.907   1.413  19.565 -0.3522 -0.2243 -0.6016
 1366TIP3   OH228292   1.086   3.709  19.852 -0.0534  0.1423  0.3038
 1366TIP3    H128293   1.139   3.678  19.778 -0.1765 -0.9410  0.6470
 1366TIP3    H228294   1.143   3.771  19.898  1.1235 -1.3434  0.9239
 1367TIP3   OH228295   3.044   1.957  18.297  0.2251 -0.4295 -0.4222
 1367TIP3    H128296   3.128   1.918  18.271 -0.1578 -1.3757 -0.2904
 1367TIP3    H228297   3.000   1.888  18.347  0.3082  0.8323  1.4878
 1368TIP3   OH228298   5.140   5.599  19.810  0.0604 -0.3368 -0.7826
 1368TIP3    H128299   5.234   5.583  19.819  0.1606  0.6878  0.2484
 1368TIP3    H228300   5.100   5.560  19.888 -0.3309 -0.4316 -1.0246
 1369TIP3   OH228301   5.330   1.392  19.164  0.2269 -0.2118  0.0324
 1369TIP3    H128302   5.313   1.298  19.160  0.1973 -0.1698 -1.2757
 1369TIP3    H228303   5.266   1.425  19.227  1.3326 -1.2767  1.8010
 1370TIP3   OH228304   1.749   0.075  18.824 -0.2121  0.1127  0.0425
 1370TIP3    H128305   1.795   0.022  18.890 -0.0188  0.8577  0.5248
 1370TIP3    H228306   1.666   0.099  18.866 -0.6203 -0.4231 -0.4554
 1371TIP3   OH228307   2.424   5.952  19.016 -0.1464 -0.5216 -0.1502
 1371TIP3    H128308   2.330   5.954  19.001 -0.0533 -0.3059 -0.7235
 1371TIP3    H228309   2.447   5.859  19.013 -0.4373 -0.6229  0.6265
 1372TIP3   OH228310   4.528   2.893  20.006  0.7156 -0.5060 -0.1660
 1372TIP3    H128311   4.565   2.978  19.980  0.2356 -0.3502 -0.3570
 1372TIP3    H228312   4.598   2.830  19.988  1.3787 -0.0588  0.7473
 1373TIP3   OH228313   6.599   3.762  20.030  0.2191  0.2080  0.7994
 1373TIP3    H128314   6.602   3.670  20.053 -0.9617  0.5247  2.3712
 1373TIP3    H228315   6.651   3.769  19.950 -0.5049 -1.9730  0.0894
 1374TIP3   OH228316   1.371   2.011  19.383 -0.2128 -0.1877 -0.1596
 1374TIP3    H128317   1.371   2.076  19.453  0.1191 -0.3876  0.0216
 1374TIP3    H228318   1.278   1.990  19.371 -0.2628 -0.2214  0.2777
 1375TIP3   OH228319   5.052   5.900  17.386  0.6173 -0.5489 -0.6139
 1375TIP3    H128320   5.111   5.902  17.311 -0.4549 -1.8587 -1.5389
 1375TIP3    H228321   5.088   5.833  17.444  1.8324  0.9306  0.4428
 1376TIP3   OH228322   5.195   0.839  19.096 -0.2485 -0.1487 -0.5402
 1376TIP3    H128323   5.126   0.905  19.100 -1.0109 -0.9451 -0.1752
 1376TIP3    H228324   5.187   0.792  19.180  2.3478  1.3254  0.6444
 1377TIP3   OH228325   2.769   5.379  19.518  0.0075 -0.9240  0.8392
 1377TIP3    H128326   2.725   5.341  19.442 -0.3738  3.1238 -1.2548
 1377TIP3    H228327   2.853   5.411  19.483  0.0616  0.5878  2.2117
 1378TIP3   OH228328   1.887   4.018  19.499  0.2069 -0.0735 -0.4903
 1378TIP3    H128329   1.914   4.032  19.590  0.3845 -1.5829 -0.2836
 1378TIP3    H228330   1.802   4.061  19.492  0.9494  1.5741 -0.1308
 1379TIP3   OH228331   0.912   6.631  20.202 -0.5801 -0.1505  0.7946
 1379TIP3    H128332   0.944   6.561  20.144 -0.6511  0.0692  0.4836
 1379TIP3    H228333   0.929   6.599  20.290 -0.0248 -0.2855  0.6445
 1380TIP3   OH228334   0.134   0.787  17.479 -0.3835  0.6917 -0.2941
 1380TIP3    H128335   0.211   0.764  17.428 -1.0955 -2.2187 -0.2590
 1380TIP3    H228336   0.060   0.760  17.425 -1.2738  0.7975  0.8165
 1381TIP3   OH228337   6.235   3.081  19.799 -0.1090  0.5363  0.1772
 1381TIP3    H128338   6.285   2.999  19.791 -1.0928 -0.0587 -0.0560
 1381TIP3    H228339   6.170   3.062  19.867 -0.8187  0.8696 -0.4010
 1382TIP3   OH228340   0.431   2.196  19.867 -0.3183 -0.5057  0.5644
 1382TIP3    H128341   0.383   2.138  19.808  1.4512  0.4995 -2.0214
 1382TIP3    H228342   0.406   2.284  19.839  2.2302  0.0216 -0.2437
 1383TIP3   OH228343   0.724   4.372  19.365  0.4123 -0.4075 -0.3946
 1383TIP3    H128344   0.653   4.369  19.301  1.1505 -0.8451 -1.2094
 1383TIP3    H228345   0.732   4.283  19.397  0.3461 -0.2826 -0.0253
 1384TIP3   OH228346   1.670   4.256  16.087 -0.2170  0.4239 -0.4161
 1384TIP3    H128347   1.668   4.211  16.003  1.0129  2.8380 -1.8633
 1384TIP3    H228348   1.677   4.349  16.064  2.5367  1.0470  2.3365
 1385TIP3   OH228349   3.935   4.424  17.909  0.3132 -0.1661 -0.3539
 1385TIP3    H128350   4.012   4.473  17.881 -0.0236 -0.2961 -1.5707
 1385TIP3    H228351   3.874   4.431  17.836 -1.5751  1.4082  1.2659
 1386TIP3   OH228352   0.383   3.018  16.755  0.2166 -0.1109  0.2317
 1386TIP3    H128353   0.411   2.927  16.758 -1.2048 -0.5600  0.8718
 1386TIP3    H228354   0.290   3.014  16.731 -0.2860  1.0550  1.7881
 1387TIP3   OH228355   0.845   4.141  18.938 -0.5334 -0.2632  0.2204
 1387TIP3    H128356   0.813   4.160  19.026 -0.3669  0.2163  0.1817
 1387TIP3    H228357   0.916   4.203  18.924 -1.3448  0.4916 -0.7109
 1388TIP3   OH228358   6.322   1.310  17.739 -0.0340  0.4584 -0.1935
 1388TIP3    H128359   6.306   1.319  17.833  1.2835 -0.5127  0.1511
 1388TIP3    H228360   6.234   1.304  17.700 -0.5974 -0.7154  1.1580
 1389TIP3   OH228361   2.455   2.564  16.357 -0.3146  0.3891  0.9424
 1389TIP3    H128362   2.418   2.644  16.318 -1.2755 -0.6486 -0.3862
 1389TIP3    H228363   2.379   2.514  16.385 -0.0941 -1.9110 -2.0463
 1390TIP3   OH228364   2.453   4.249  18.343 -0.2143 -0.0568  1.0145
 1390TIP3    H128365   2.527   4.188  18.336  0.6919  0.9835  1.2988
 1390TIP3    H228366   2.376   4.193  18.338  0.5781 -1.1382  0.3619
 1391TIP3   OH228367   3.389   2.613  17.765 -0.0589 -0.4645 -0.1389
 1391TIP3    H128368   3.367   2.565  17.686  1.5616  0.9106 -1.4919
 1391TIP3    H228369   3.311   2.665  17.784  0.2387  0.7370 -2.0426
 1392TIP3   OH228370   0.697   2.079  19.487 -0.0689 -0.0410  0.1780
 1392TIP3    H128371   0.782   2.105  19.523  0.0591  1.5287 -1.1415
 1392TIP3    H228372   0.652   2.036  19.560  1.0994  0.8545  1.4784
 1393TIP3   OH228373   3.821   3.123  16.939  0.1982 -0.0525  0.4174
 1393TIP3    H128374   3.879   3.188  16.900 -1.0859  0.9357  0.0799
 1393TIP3    H228375   3.827   3.047  16.880 -0.2614  0.7245 -0.6750
 1394TIP3   OH228376   6.625   0.739  19.648  0.1152 -0.0219 -0.3075
 1394TIP3    H128377   6.700   0.779  19.605  0.8158  0.6569  1.4306
 1394TIP3    H228378   6.658   0.712  19.734 -1.5267 -0.0465  0.3638
 1395TIP3   OH228379   1.771   4.977  18.203 -0.0064  0.5005  0.0638
 1395TIP3    H128380   1.777   5.064  18.241 -0.3878  0.9064 -0.7780
 1395TIP3    H228381   1.756   4.992  18.109 -1.8692 -0.4314  0.1471
 1396TIP3   OH228382   5.417   0.209  17.614 -0.1414 -0.0712  0.1047
 1396TIP3    H128383   5.349   0.189  17.550 -1.1345 -2.5768  1.8041
 1396TIP3    H228384   5.404   0.145  17.684  3.5848 -0.2474  0.8360
 1397TIP3   OH228385   5.958   5.957  18.054 -0.0599 -0.0217 -0.0698
 1397TIP3    H128386   6.041   5.983  18.014  0.3008 -1.4091 -0.2867
 1397TIP3    H228387   5.924   5.889  17.997 -1.8310  1.1374 -0.4803
 1398TIP3   OH228388   0.797   1.137  18.702  0.2907  0.3285 -0.3574
 1398TIP3    H128389   0.788   1.194  18.778  0.3174  0.2510 -0.2961
 1398TIP3    H228390   0.863   1.179  18.647  1.1889 -0.2532  0.2614
 1399TIP3   OH228391   0.670   5.420  17.745  0.1818 -0.2581 -0.1062
 1399TIP3    H128392   0.758   5.412  17.782  0.2542  1.1484  0.0733
 1399TIP3    H228393   0.627   5.486  17.800 -1.1750 -1.3003  0.1388
 1400TIP3   OH228394   2.632   1.993  19.895  0.1740  0.0373  0.4426
 1400TIP3    H128395   2.679   2.033  19.822 -0.2214 -1.1445 -0.5051
 1400TIP3    H228396   2.700   1.964  19.955  0.5557  0.2556  0.1182
 1401TIP3   OH228397   6.402   2.747  17.881  0.4061 -0.1048 -0.0933
 1401TIP3    H128398   6.493   2.734  17.853 -0.1050  1.0382 -2.5163
 1401TIP3    H228399   6.358   2.665  17.858  0.7497 -0.6136  0.9720
 1402TIP3   OH228400   0.357   6.303  19.004  0.4946 -0.1525  0.3013
 1402TIP3    H128401   0.266   6.281  18.983  0.4286  0.5581 -0.1936
 1402TIP3    H228402   0.409   6.246  18.947  0.3608 -0.4288  0.4525
 1403TIP3   OH228403   3.466   4.143  17.692 -0.2158 -0.0736  0.1528
 1403TIP3    H128404   3.439   4.230  17.723 -0.7050  0.0621 -0.6198
 1403TIP3    H228405   3.447   4.085  17.765 -3.9411 -0.2193 -0.7361
 1404TIP3   OH228406   4.262   5.402  16.603  0.1083 -0.5180  0.4208
 1404TIP3    H128407   4.326   5.409  16.532 -0.3041 -0.9065 -0.0034
 1404TIP3    H228408   4.295   5.331  16.657  0.9813  0.4752  1.2179
 1405TIP3   OH228409   3.740   1.288  18.595  0.1513  0.1170 -0.0174
 1405TIP3    H128410   3.691   1.366  18.569  0.4825  0.5289  0.5652
 1405TIP3    H228411   3.806   1.277  18.527 -2.1092 -1.7627 -2.0656
 1406TIP3   OH228412   2.784   0.803  18.326 -0.4459  0.5623 -0.0896
 1406TIP3    H128413   2.824   0.873  18.275  1.1197  0.2641  0.6914
 1406TIP3    H228414   2.712   0.771  18.270  0.0740  1.4369 -1.3077
 1407TIP3   OH228415   6.547   1.175  18.586  0.3032 -0.1675 -0.3468
 1407TIP3    H128416   6.497   1.163  18.667  0.5760 -1.2108 -0.3209
 1407TIP3    H228417   6.581   1.264  18.592 -0.5663  0.1481  0.1843
 1408TIP3   OH228418   2.742   3.908  18.141  0.3091  0.3869  0.5506
 1408TIP3    H128419   2.824   3.867  18.112 -0.3319  1.7901 -3.9773
 1408TIP3    H228420   2.770   3.989  18.184  1.3747  0.8532 -0.9394
 1409TIP3   OH228421   0.539   2.627  19.541 -0.3772  0.2181  0.4141
 1409TIP3    H128422   0.484   2.663  19.471 -0.2055  1.7296  1.0086
 1409TIP3    H228423   0.605   2.575  19.495  0.2200  1.8283 -0.6646
 1410TIP3   OH228424   4.588   2.542  18.234  0.0326 -0.3335  0.3468
 1410TIP3    H128425   4.630   2.535  18.148 -1.7241  0.0110 -0.5748
 1410TIP3    H228426   4.507   2.590  18.218 -0.6340 -0.7903  2.0961
 1411TIP3   OH228427   1.503   5.477  18.891 -0.2262 -0.7015  0.4806
 1411TIP3    H128428   1.592   5.456  18.863  0.6023  0.5800  1.9625
 1411TIP3    H228429   1.457   5.498  18.810  1.0024 -0.7537 -0.2607
 1412TIP3   OH228430   6.602   1.342  19.230  0.2485  0.2535  0.0225
 1412TIP3    H128431   6.603   1.406  19.301  1.6379 -0.6870  0.8917
 1412TIP3    H228432   6.509   1.321  19.217 -0.1228  1.4970  0.5652
 1413TIP3   OH228433   4.320   5.966  16.737  0.2320  0.1440  0.0737
 1413TIP3    H128434   4.227   5.943  16.736  0.3685 -0.5598 -2.4243
 1413TIP3    H228435   4.364   5.885  16.763  0.2864 -0.5178 -1.9123
 1414TIP3   OH228436   0.764   3.234  16.810 -0.4991  0.1516 -0.4475
 1414TIP3    H128437   0.775   3.150  16.765 -1.7794 -0.7897  0.9114
 1414TIP3    H228438   0.854   3.262  16.830 -0.0442 -0.7925 -1.0683
 1415TIP3   OH228439   0.128   0.535  19.543  0.0174 -0.1681 -0.1705
 1415TIP3    H128440   0.127   0.518  19.637  0.9744  0.5239 -0.0223
 1415TIP3    H228441   0.203   0.485  19.511 -1.9997 -2.8338 -1.0927
 1416TIP3   OH228442   6.411   0.867  19.214  0.2608 -0.3345  0.2120
 1416TIP3    H128443   6.378   0.901  19.297  1.4876  0.3561  0.4452
 1416TIP3    H228444   6.363   0.916  19.147  1.0961  0.9849  0.5426
 1417TIP3   OH228445   6.113   2.928  20.220 -0.2478  0.1622 -0.6596
 1417TIP3    H128446   6.119   2.844  20.266  1.3662  0.2894 -0.6066
 1417TIP3    H228447   6.019   2.944  20.213 -0.8382 -3.2656 -3.6167
 1418TIP3   OH228448   2.936   0.579  17.423 -0.3522  0.0864 -0.1330
 1418TIP3    H128449   2.946   0.631  17.343  0.9820  0.1640  0.0458
 1418TIP3    H228450   2.891   0.638  17.484 -0.5651  0.3511 -0.5412
 1419TIP3   OH228451   5.757   2.594  19.830  0.5519 -0.0096 -0.0215
 1419TIP3    H128452   5.734   2.682  19.799 -1.6323  0.0993  1.6838
 1419TIP3    H228453   5.844   2.604  19.869  1.1346  0.9431 -1.4809
 1420TIP3   OH228454   6.150   6.175  19.487 -0.4398  0.1944  0.2411
 1420TIP3    H128455   6.183   6.115  19.554 -0.2749  0.3110  0.2659
 1420TIP3    H228456   6.192   6.259  19.508 -1.9659  0.7470  1.2332
 1421TIP3   OH228457   2.283   1.421  19.125 -0.0456 -0.7442 -0.4619
 1421TIP3    H128458   2.233   1.427  19.205  0.0070  0.0030 -0.4752
 1421TIP3    H228459   2.352   1.357  19.144 -0.6021 -1.2883 -0.2363
 1422TIP3   OH228460   3.861   0.933  17.685 -0.2315 -0.0084 -0.1998
 1422TIP3    H128461   3.953   0.907  17.697 -0.2483 -0.8600 -1.7385
 1422TIP3    H228462   3.863   0.996  17.613 -0.7703  0.6637  0.3582
 1423TIP3   OH228463   1.007   4.965  17.328 -0.4219  0.0414  0.1064
 1423TIP3    H128464   1.055   4.996  17.252 -0.9750  0.1369 -0.2114
 1423TIP3    H228465   1.074   4.951  17.395  0.4152 -2.2172 -1.0719
 1424TIP3   OH228466   6.380   1.051  17.546 -0.0004 -0.5089  0.2135
 1424TIP3    H128467   6.328   1.121  17.586  2.3570  1.6709 -0.2118
 1424TIP3    H228468   6.389   1.078  17.455  1.8303 -0.7433  0.2858
 1425TIP3   OH228469   2.606   0.926  17.880 -0.0322  0.3258 -0.5586
 1425TIP3    H128470   2.574   0.920  17.790 -0.0463  0.6917 -0.5775
 1425TIP3    H228471   2.702   0.919  17.872  0.2445  3.4029 -0.9052
 1426TIP3   OH228472   6.731   4.744  18.681 -0.4087 -0.4856 -0.2094
 1426TIP3    H128473   6.814   4.697  18.682 -1.7097 -2.9310  1.2604
 1426TIP3    H228474   6.725   4.785  18.767 -0.1567  0.8832 -0.8091
 1427TIP3   OH228475   4.501   1.049  20.234 -0.1057  0.5186 -0.1601
 1427TIP3    H128476   4.471   0.958  20.239 -0.1185  0.5696  3.7250
 1427TIP3    H228477   4.427   1.097  20.198 -0.6852 -0.7754 -0.7430
 1428TIP3   OH228478   6.200   5.206  19.276 -0.0453 -0.6068 -0.0497
 1428TIP3    H128479   6.274   5.246  19.230  1.0972 -2.2871  0.2181
 1428TIP3    H228480   6.225   5.207  19.368 -0.1864 -1.4924  0.0115
 1429TIP3   OH228481   1.794   3.862  16.664  0.6094  0.5727 -0.3666
 1429TIP3    H128482   1.745   3.846  16.583 -0.2706  3.5115 -0.5395
 1429TIP3    H228483   1.885   3.866  16.636  0.3688  0.9632 -1.1378
 1430TIP3   OH228484   5.631   5.044  19.494  0.1366  0.0690 -0.1912
 1430TIP3    H128485   5.544   5.006  19.509 -0.1644 -0.2595 -2.4095
 1430TIP3    H228486   5.687   5.001  19.559 -1.0651 -0.8589  0.2877
 1431TIP3   OH228487   6.137   4.964  20.240 -0.4159  0.1252 -0.4332
 1431TIP3    H128488   6.134   5.028  20.311  0.5244  0.1697 -0.4168
 1431TIP3    H228489   6.218   4.984  20.194  0.6357 -1.9452  0.4083
 1432TIP3   OH228490   4.530   0.699  19.012 -0.3960 -0.0495  0.3513
 1432TIP3    H128491   4.439   0.708  18.986 -0.5135  2.0735  1.3006
 1432TIP3    H228492   4.531   0.723  19.105  0.9791 -1.0672  0.6261
 1433TIP3   OH228493   3.042   0.417  19.736 -0.1115  0.2009  0.0896
 1433TIP3    H128494   3.126   0.373  19.720  0.3341  1.3350 -0.8474
 1433TIP3    H228495   3.008   0.435  19.648 -1.5459 -0.5980  0.4503
 1434TIP3   OH228496   6.484   1.681  18.979 -0.8907  0.0529  0.5126
 1434TIP3    H128497   6.430   1.606  19.006  0.7064 -1.9388 -1.4239
 1434TIP3    H228498   6.452   1.701  18.890  2.7154 -2.6828 -1.6911
 1435TIP3   OH228499   1.932   4.531  19.308 -0.2802 -0.5808  0.3186
 1435TIP3    H128500   2.019   4.503  19.334  0.2899  1.0580  0.3362
 1435TIP3    H228501   1.947   4.596  19.239 -1.4461  0.1188  0.6825
 1436TIP3   OH228502   2.711   1.589  18.468  1.1246  0.1418 -0.1663
 1436TIP3    H128503   2.678   1.662  18.519  2.0927  1.5010 -1.3852
 1436TIP3    H228504   2.633   1.547  18.431  0.4695 -0.3587  1.6540
 1437TIP3   OH228505   4.284   2.568  19.971 -0.0993 -0.1721 -0.3227
 1437TIP3    H128506   4.245   2.481  19.961  0.1157 -0.0717 -2.3785
 1437TIP3    H228507   4.372   2.560  19.935 -0.0716  0.9060 -0.5387
 1438TIP3   OH228508   4.917   5.305  18.073 -0.6037 -0.2786 -0.2618
 1438TIP3    H128509   4.984   5.373  18.081  0.5570 -1.3861 -0.2199
 1438TIP3    H228510   4.853   5.340  18.011 -1.0655  1.6420  1.2067
 1439TIP3   OH228511   2.260   4.246  20.407  0.1554 -0.2650 -0.0388
 1439TIP3    H128512   2.278   4.166  20.456 -0.5090 -0.0324  0.6040
 1439TIP3    H228513   2.165   4.246  20.395  0.2306  0.0487 -0.7042
 1440TIP3   OH228514   3.950   5.839  20.092  0.3489 -0.4652 -0.1827
 1440TIP3    H128515   3.880   5.856  20.028 -0.3714 -1.2476  0.3809
 1440TIP3    H228516   3.933   5.750  20.123  0.9680 -0.2649  0.7488
 1441TIP3   OH228517   2.968   0.955  17.449  0.8259  0.1542 -0.2227
 1441TIP3    H128518   2.982   1.010  17.372 -0.6037  0.0364 -0.6014
 1441TIP3    H228519   2.883   0.983  17.482 -0.9695 -3.1199 -1.5935
 1442TIP3   OH228520   1.165   1.723  17.007 -0.8504 -0.1091  0.0191
 1442TIP3    H128521   1.254   1.688  17.014 -1.2436 -1.2368 -0.5396
 1442TIP3    H228522   1.150   1.765  17.092 -0.6951 -2.0920  1.0832
 1443TIP3   OH228523   6.464   3.578  18.933 -0.1972 -0.3038  0.7344
 1443TIP3    H128524   6.553   3.556  18.905 -0.1328  0.5394  0.2302
 1443TIP3    H228525   6.462   3.556  19.026 -0.2501 -2.6578  0.2314
 1444TIP3   OH228526   2.883   1.284  18.894 -0.2035 -0.3779 -0.5884
 1444TIP3    H128527   2.904   1.302  18.802 -0.5205  1.6731 -0.2983
 1444TIP3    H228528   2.968   1.281  18.937 -0.0985 -0.5282 -0.8015
 1445TIP3   OH228529   4.916   4.046  16.667  0.2811  0.2828 -0.4193
 1445TIP3    H128530   4.836   4.094  16.687  0.4317  1.8881 -3.1950
 1445TIP3    H228531   4.887   3.955  16.656 -1.0442  0.6981 -0.5690
 1446TIP3   OH228532   3.944   6.044  19.498 -0.2271  0.1169 -0.3070
 1446TIP3    H128533   4.010   6.013  19.436 -0.0633  1.9813 -1.1438
 1446TIP3    H228534   3.861   6.031  19.452 -0.4174 -1.5034  0.4320
 1447TIP3   OH228535   1.248   2.097  18.449  0.3639  0.2246  0.0725
 1447TIP3    H128536   1.157   2.077  18.471  0.5154  0.1639  0.6604
 1447TIP3    H228537   1.294   2.014  18.462  0.5362  0.3014 -0.0523
 1448TIP3   OH228538   0.650   5.087  20.046  0.1025  0.0563 -0.2364
 1448TIP3    H128539   0.625   5.056  19.959  0.8156  0.1002 -0.4632
 1448TIP3    H228540   0.568   5.120  20.084 -0.1249  0.5211 -1.0919
 1449TIP3   OH228541   5.583   5.968  17.627 -0.0983  0.1289  0.0435
 1449TIP3    H128542   5.553   5.887  17.668 -0.6694  0.4610  0.2881
 1449TIP3    H228543   5.595   6.029  17.699 -0.2892  0.4553 -0.1983
 1450TIP3   OH228544   4.202   5.069  18.977  0.4267 -0.1223  0.1631
 1450TIP3    H128545   4.208   4.974  18.981  0.4902 -0.1311 -0.1001
 1450TIP3    H228546   4.112   5.087  18.949  0.6084 -0.1275 -0.4493
 1451TIP3   OH228547   1.461   0.773  17.093  0.4510 -0.0297 -0.6899
 1451TIP3    H128548   1.552   0.742  17.086  0.5808  0.5184 -1.4327
 1451TIP3    H228549   1.410   0.693  17.109  0.9544 -0.4560 -1.1926
 1452TIP3   OH228550   0.998   0.356  17.703 -0.0021 -0.4453  0.1893
 1452TIP3    H128551   0.981   0.293  17.633 -0.4133 -0.4972  0.3341
 1452TIP3    H228552   1.013   0.302  17.780  1.7991 -0.4519 -0.1160
 1453TIP3   OH228553   3.174   1.363  19.664 -0.1156 -0.2711  0.5062
 1453TIP3    H128554   3.198   1.273  19.642 -2.2714 -0.7252 -0.2777
 1453TIP3    H228555   3.219   1.381  19.746 -1.3415 -2.8885  1.8863
 1454TIP3   OH228556   4.003   3.705  18.787 -1.0025  0.2538 -0.3039
 1454TIP3    H128557   3.966   3.793  18.775  2.1952  1.9927  1.1729
 1454TIP3    H228558   4.097   3.720  18.799 -0.2979 -3.4221  0.0197
 1455TIP3   OH228559   6.066   2.599  18.793  0.0072 -0.3099 -0.4074
 1455TIP3    H128560   6.083   2.535  18.862  1.1698 -1.0781 -1.3611
 1455TIP3    H228561   5.975   2.626  18.807  0.3094 -0.1868  1.6011
 1456TIP3   OH228562   2.700   6.035  18.515  0.2579  0.1865  0.5468
 1456TIP3    H128563   2.687   5.941  18.520  0.5591  0.1157  0.0290
 1456TIP3    H228564   2.633   6.072  18.573  0.4341 -0.3633  1.1019
 1457TIP3   OH228565   5.363   0.935  16.791  0.7758 -0.5954  0.3248
 1457TIP3    H128566   5.337   0.852  16.831 -0.1576 -1.0314 -1.1000
 1457TIP3    H228567   5.458   0.929  16.783  0.6453 -1.9751 -0.6007
 1458TIP3   OH228568   1.238   4.707  19.896  0.3642  0.0191 -0.2423
 1458TIP3    H128569   1.271   4.626  19.857  0.5173  0.8901 -2.0322
 1458TIP3    H228570   1.251   4.696  19.990  1.4820 -1.5321 -0.5461
 1459TIP3   OH228571   5.767   4.290  19.197  0.1844  0.0911 -0.5765
 1459TIP3    H128572   5.715   4.209  19.196 -0.0644  0.2410  0.0809
 1459TIP3    H228573   5.832   4.276  19.128  1.5368 -1.5882  0.9460
 1460TIP3   OH228574   6.614   3.750  17.907  0.1326 -0.2190  0.2355
 1460TIP3    H128575   6.700   3.787  17.887 -0.2012  0.3465 -0.1883
 1460TIP3    H228576   6.572   3.741  17.821 -1.2101  1.9529  0.5813
 1461TIP3   OH228577   2.160   3.589  17.289 -0.4238  0.5167  0.5470
 1461TIP3    H128578   2.187   3.499  17.306  0.4804  0.7200  0.2642
 1461TIP3    H228579   2.066   3.584  17.277 -0.3612 -0.4285  0.3387
 1462TIP3   OH228580   1.300   3.594  18.137  0.4080 -0.0476 -0.1082
 1462TIP3    H128581   1.382   3.546  18.144  0.3657 -0.0654  0.3525
 1462TIP3    H228582   1.292   3.618  18.045 -0.8758 -3.2802 -0.9705
 1463TIP3   OH228583   4.657   1.648  18.519 -0.2453 -0.4381 -1.3646
 1463TIP3    H128584   4.615   1.667  18.603 -0.8225 -0.6641 -1.5974
 1463TIP3    H228585   4.584   1.630  18.459  0.1200  0.3294 -2.0686
 1464TIP3   OH228586   3.978   6.366  20.429 -0.0359  0.2366 -0.9025
 1464TIP3    H128587   3.983   6.275  20.458 -0.9861  0.2860 -0.5549
 1464TIP3    H228588   3.920   6.364  20.353 -0.7422  0.6593 -0.3860
 1465TIP3   OH228589   4.882   3.639  18.425 -0.0803  0.3369 -0.1239
 1465TIP3    H128590   4.882   3.668  18.516  0.5560  1.5429 -0.4845
 1465TIP3    H228591   4.840   3.553  18.427  3.2569 -1.4854  1.8565
 1466TIP3   OH228592   1.139   2.899  17.286  0.3093  0.1615 -0.1385
 1466TIP3    H128593   1.061   2.848  17.306 -0.6539  1.5470 -0.2161
 1466TIP3    H228594   1.106   2.978  17.242  1.7776  0.6310 -0.4688
 1467TIP3   OH228595   1.779   0.070  18.364  0.0704 -0.3685  0.5588
 1467TIP3    H128596   1.812   0.011  18.296  0.1686  1.0291 -0.6475
 1467TIP3    H228597   1.686   0.079  18.343 -0.0570 -0.5108  1.0605
 1468TIP3   OH228598   3.573   2.327  17.816  0.1661 -0.6283 -0.0775
 1468TIP3    H128599   3.512   2.253  17.818 -1.1054  0.3344 -1.4141
 1468TIP3    H228600   3.593   2.339  17.723 -0.4352  1.3060  0.0015
 1469TIP3   OH228601   3.185   3.001  19.111 -0.6684 -0.4628  0.0000
 1469TIP3    H128602   3.269   3.046  19.109 -0.0420 -1.5338 -3.0804
 1469TIP3    H228603   3.200   2.924  19.165 -0.1433  0.1062  0.6892
 1470TIP3   OH228604   0.720   6.309  17.821 -0.1882  0.1514  0.5869
 1470TIP3    H128605   0.777   6.253  17.875 -0.3060 -0.5346  0.0068
 1470TIP3    H228606   0.781   6.360  17.768 -0.1023 -0.2888  0.2586
 1471TIP3   OH228607   2.028   5.729  18.105  0.8349 -0.3361  0.0523
 1471TIP3    H128608   1.991   5.771  18.182  0.9809 -0.2081  0.0521
 1471TIP3    H228609   1.968   5.656  18.087  0.6265 -0.1772  0.0990
 1472TIP3   OH228610   3.546   2.546  16.818 -0.3753  0.5383  0.4294
 1472TIP3    H128611   3.518   2.537  16.726  0.3281 -1.6450  0.3824
 1472TIP3    H228612   3.464   2.558  16.866 -0.9083 -0.1043 -0.2922
 1473TIP3   OH228613   2.322   1.845  18.578 -0.0117  0.7979  0.4225
 1473TIP3    H128614   2.377   1.779  18.538 -0.0062  0.3501  1.1556
 1473TIP3    H228615   2.236   1.833  18.538 -0.1648 -0.0577  0.9802
 1474TIP3   OH228616   2.007   4.017  16.878 -0.2848 -0.6875  0.0129
 1474TIP3    H128617   2.042   4.098  16.840 -2.4035 -0.6990 -2.2683
 1474TIP3    H228618   2.021   3.951  16.810 -1.1907 -1.5462  0.6211
 1475TIP3   OH228619   2.886   4.730  20.632 -0.2940 -0.1414 -0.6862
 1475TIP3    H128620   2.830   4.656  20.654 -1.5376  0.1978 -2.5164
 1475TIP3    H228621   2.925   4.706  20.548  2.6794 -0.5120  0.6375
 1476TIP3   OH228622   6.397   0.239  16.675  0.1698  0.1674 -0.4936
 1476TIP3    H128623   6.412   0.245  16.580  1.3649 -1.1315 -0.4227
 1476TIP3    H228624   6.317   0.185  16.683 -0.3384  0.8652 -0.7553
 1477TIP3   OH228625   5.946   4.236  17.785 -0.2410  0.0853  0.2587
 1477TIP3    H128626   5.955   4.190  17.701  0.4537  0.1418  0.2999
 1477TIP3    H228627   6.031   4.226  17.827 -0.3687  0.6495  0.6597
 1478TIP3   OH228628   1.219   2.782  19.114  0.1472  0.2934  0.2939
 1478TIP3    H128629   1.207   2.688  19.123 -1.4110  0.3070 -1.1079
 1478TIP3    H228630   1.262   2.809  19.195  2.0526 -1.8337  0.0805
 1479TIP3   OH228631   0.278   2.648  19.774 -0.4902 -0.4983 -0.4453
 1479TIP3    H128632   0.291   2.638  19.868 -0.3111  0.5905 -0.3498
 1479TIP3    H228633   0.239   2.564  19.747  1.3241 -1.6150  0.2282
 1480TIP3   OH228634   2.355   4.465  18.496 -0.5747  0.7471 -1.0209
 1480TIP3    H128635   2.268   4.455  18.457 -0.6729 -0.7799 -0.4572
 1480TIP3    H228636   2.404   4.390  18.463 -0.7854 -0.8825  2.0577
 1481TIP3   OH228637   3.239   6.498  17.133  0.2974  0.1750  0.0996
 1481TIP3    H128638   3.303   6.460  17.192 -2.9829 -2.1976  2.4866
 1481TIP3    H228639   3.180   6.425  17.111 -3.8966  2.8173  1.4080
 1482TIP3   OH228640   6.616   0.794  18.006 -0.0568  0.4314  0.7066
 1482TIP3    H128641   6.548   0.743  18.050 -0.2597 -1.7709 -1.8933
 1482TIP3    H228642   6.688   0.796  18.069 -0.4748 -2.2084  1.4051
 1483TIP3   OH228643   6.659   5.422  19.295 -0.0627  0.0261 -0.4069
 1483TIP3    H128644   6.617   5.421  19.381 -1.0504 -0.1493 -0.8876
 1483TIP3    H228645   6.620   5.497  19.251 -0.7785 -0.8598 -1.3056
 1484TIP3   OH228646   3.464   4.344  18.888 -0.1801 -0.1869  0.2342
 1484TIP3    H128647   3.420   4.326  18.805 -0.5708  1.3946  0.0767
 1484TIP3    H228648   3.395   4.339  18.954  0.0244 -0.8646  0.4097
 1485TIP3   OH228649   3.424   5.904  18.449 -0.8384  0.4407 -0.8687
 1485TIP3    H128650   3.361   5.977  18.450 -0.1521  1.0412 -0.7406
 1485TIP3    H228651   3.506   5.944  18.420 -1.1838 -0.9165 -4.2176
 1486TIP3   OH228652   3.363   4.022  17.904  0.1779 -0.2559  0.1889
 1486TIP3    H128653   3.330   3.976  17.980 -2.0990 -0.0752 -0.6070
 1486TIP3    H228654   3.297   4.007  17.836  1.6229  0.4129 -1.4512
 1487TIP3   OH228655   6.233   2.138  19.088  0.0619 -0.4307 -0.1280
 1487TIP3    H128656   6.245   2.195  19.164 -0.2562 -2.0109  1.1637
 1487TIP3    H228657   6.174   2.069  19.119 -1.7522 -0.0333 -2.4081
 1488TIP3   OH228658   0.893   6.372  19.024 -0.0748  0.3587  0.2279
 1488TIP3    H128659   0.969   6.346  19.076  0.1839  0.0535 -0.2960
 1488TIP3    H228660   0.902   6.467  19.014  0.2225  0.3268  0.1887
 1489TIP3   OH228661   5.299   2.325  18.185 -0.7602  0.0893  0.2259
 1489TIP3    H128662   5.239   2.267  18.231 -2.1854  0.3867 -1.1521
 1489TIP3    H228663   5.311   2.284  18.099  0.6354  0.2926  0.2963
 1490TIP3   OH228664   6.588   6.351  16.689  0.5543 -0.2453 -0.0418
 1490TIP3    H128665   6.517   6.407  16.658  0.9402  0.7060  0.7701
 1490TIP3    H228666   6.582   6.353  16.784  2.8134  1.4097  0.1510
 1491TIP3   OH228667   0.326   6.100  18.540  0.1255 -0.0754  0.0889
 1491TIP3    H128668   0.273   6.091  18.460 -1.7680  0.6543  1.1897
 1491TIP3    H228669   0.278   6.050  18.606  0.7325  0.7454  1.1767
 1492TIP3   OH228670   5.409   4.331  17.000 -0.2483 -0.3624  0.0599
 1492TIP3    H128671   5.317   4.309  16.984 -0.4192 -0.0280  0.5695
 1492TIP3    H228672   5.444   4.351  16.913 -0.1599 -2.3250 -0.4013
 1493TIP3   OH228673   1.137   4.142  17.530  0.7509  0.4747  0.6630
 1493TIP3    H128674   1.096   4.213  17.481 -0.0232  0.8131  1.7844
 1493TIP3    H228675   1.127   4.065  17.472  0.1998  0.9402  0.1263
 1494TIP3   OH228676   0.195   4.550  18.701 -0.0560  0.1325 -0.4409
 1494TIP3    H128677   0.248   4.596  18.766  0.3811  0.7383 -1.2045
 1494TIP3    H228678   0.201   4.458  18.725 -0.4925  0.4080  0.7915
 1495TIP3   OH228679   3.846   4.504  17.652 -0.0837  0.4363 -0.1266
 1495TIP3    H128680   3.758   4.536  17.636 -0.6599 -0.7109  0.6029
 1495TIP3    H228681   3.893   4.580  17.687 -0.9154  0.9227 -0.0413
 1496TIP3   OH228682   2.681   3.209  17.509 -0.1951  0.7106 -0.3942
 1496TIP3    H128683   2.707   3.246  17.593  1.9883  1.1142 -1.1728
 1496TIP3    H228684   2.752   3.233  17.449 -0.8677 -0.9538 -1.9705
 1497TIP3   OH228685   0.847   2.192  18.778 -0.1374  0.5397  0.2695
 1497TIP3    H128686   0.931   2.210  18.735 -0.2979  0.8902  0.0995
 1497TIP3    H228687   0.800   2.136  18.717  0.9984 -1.9004  1.4805
 1498TIP3   OH228688   1.581   0.934  17.698  0.1798 -0.7500 -0.0084
 1498TIP3    H128689   1.654   0.907  17.642  0.7900  0.0968  0.3494
 1498TIP3    H228690   1.595   1.028  17.711 -1.0108 -0.5680  0.0246
 1499TIP3   OH228691   2.486   6.700  19.848 -0.3665 -0.4038 -0.4911
 1499TIP3    H128692   2.460   6.632  19.910 -1.0129  0.7355  0.5320
 1499TIP3    H228693   2.536   6.654  19.781  0.3363 -1.6893  0.8612
 1500TIP3   OH228694   3.324   1.528  17.242  0.2183 -0.4248 -0.1800
 1500TIP3    H128695   3.360   1.476  17.171 -1.7939  0.2382 -1.7816
 1500TIP3    H228696   3.263   1.588  17.200 -0.8446  0.2101  2.0873
 1501TIP3   OH228697   6.624   6.710  17.379 -0.6405 -0.2192 -0.0124
 1501TIP3    H128698   6.639   6.798  17.344 -1.4292  0.0177  0.2362
 1501TIP3    H228699   6.659   6.652  17.311 -0.7726  0.2692 -0.5101
 1502TIP3   OH228700   4.014   0.549  19.308  0.1214 -0.2144 -0.2531
 1502TIP3    H128701   4.097   0.597  19.318  0.9851 -1.9270  1.5225
 1502TIP3    H228702   3.982   0.575  19.222  1.2606  2.3637 -0.0109
 1503TIP3   OH228703   2.787   2.090  19.675 -0.1023 -0.7089  0.5545
 1503TIP3    H128704   2.805   2.062  19.585 -0.0560 -1.1162  0.6910
 1503TIP3    H228705   2.736   2.171  19.665  1.4748  0.2812  0.1504
 1504TIP3   OH228706   2.835   4.355  17.195 -0.6152  0.0967 -0.0075
 1504TIP3    H128707   2.746   4.374  17.226 -0.0479  1.3095  0.9796
 1504TIP3    H228708   2.825   4.342  17.100 -1.8103  0.3478  0.0627
 1505TIP3   OH228709   3.494   3.730  20.364 -0.3355  0.4532 -0.7959
 1505TIP3    H128710   3.569   3.758  20.312 -0.5231  0.8726 -0.8380
 1505TIP3    H228711   3.444   3.810  20.381  0.4867  0.5689  1.2750
 1506TIP3   OH228712   4.770   5.249  19.481 -0.5365  0.2549 -0.1970
 1506TIP3    H128713   4.855   5.225  19.443  0.2963  1.6078  0.6937
 1506TIP3    H228714   4.711   5.254  19.406 -0.0563 -1.5549 -0.7295
 1507TIP3   OH228715   1.313   6.001  18.292  0.1694 -0.5697 -0.5659
 1507TIP3    H128716   1.369   5.966  18.223 -0.9188 -0.9269 -1.2957
 1507TIP3    H228717   1.335   6.094  18.297  0.1246 -0.5074 -1.5154
 1508TIP3   OH228718   5.580   3.227  19.444 -0.0372  0.0629 -0.3538
 1508TIP3    H128719   5.633   3.154  19.411  2.2145  1.7490 -0.7036
 1508TIP3    H228720   5.580   3.290  19.372  1.9698  2.3223  1.4719
 1509TIP3   OH228721   0.954   4.881  19.773  0.3155 -0.4894  0.3047
 1509TIP3    H128722   0.913   4.810  19.822  2.5318 -1.1495  1.3010
 1509TIP3    H228723   1.000   4.933  19.838 -0.8721  1.6481 -0.4741
 1510TIP3   OH228724   1.077   1.981  18.686 -0.0334  0.1071  0.9194
 1510TIP3    H128725   1.102   1.917  18.751  0.7339  1.0307  1.5628
 1510TIP3    H228726   0.982   1.973  18.679 -0.0200 -0.5835  1.5224
 1511TIP3   OH228727   0.432   2.513  18.326  0.3500 -0.2737  0.0374
 1511TIP3    H128728   0.491   2.567  18.378 -0.8028  1.7116 -0.6104
 1511TIP3    H228729   0.356   2.499  18.383  0.7413 -1.4853  0.2970
 1512TIP3   OH228730   6.076   2.388  18.963 -0.1910  0.3971  0.2674
 1512TIP3    H128731   5.983   2.370  18.978  0.1113  0.2851  2.2215
 1512TIP3    H228732   6.120   2.310  18.995  0.5902  0.3378 -0.9018
 1513TIP3   OH228733   1.296   6.623  17.970  0.2719 -0.1144 -0.0142
 1513TIP3    H128734   1.273   6.692  18.032 -2.6341  0.4740 -1.5590
 1513TIP3    H228735   1.345   6.667  17.900 -1.9722  0.6131 -1.2299
 1514TIP3   OH228736   2.935   3.227  17.194 -0.1312 -0.0737  0.2190
 1514TIP3    H128737   2.886   3.301  17.159  1.5009  0.9803  0.0587
 1514TIP3    H228738   2.963   3.178  17.117  2.1003  1.3661  0.0072
 1515TIP3   OH228739   0.776   1.119  19.480 -0.1134 -0.7333 -0.1128
 1515TIP3    H128740   0.832   1.050  19.516 -0.3146 -0.0420  1.6338
 1515TIP3    H228741   0.790   1.194  19.538 -2.8658 -0.5494  0.4515
 1516TIP3   OH228742   3.834   5.376  19.704  0.1851 -0.0261 -0.3949
 1516TIP3    H128743   3.926   5.391  19.683 -0.1668 -0.3902 -2.4769
 1516TIP3    H228744   3.826   5.395  19.797  2.3223  0.1786 -0.2185
 1517TIP3   OH228745   0.077   2.125  18.189 -0.1708  0.3737  0.0592
 1517TIP3    H128746   0.155   2.126  18.245 -1.0655 -0.5755  1.3980
 1517TIP3    H228747   0.088   2.047  18.134  0.5093  1.0754 -0.8381
 1518TIP3   OH228748   3.831   1.610  18.055 -0.2339 -0.2040 -0.6724
 1518TIP3    H128749   3.776   1.687  18.070 -2.2694 -1.8495  0.8532
 1518TIP3    H228750   3.770   1.543  18.025  1.4553 -1.3099 -1.7533
 1519TIP3   OH228751   0.282   2.853  20.037 -0.3049 -0.2454  0.0029
 1519TIP3    H128752   0.220   2.863  19.965  1.0445 -1.5376 -1.4187
 1519TIP3    H228753   0.246   2.908  20.107 -1.8681  0.7759 -1.4979
 1520TIP3   OH228754   1.784   5.340  17.986 -0.1681  0.5798  0.2814
 1520TIP3    H128755   1.701   5.293  17.991  0.4540 -0.6589 -0.4166
 1520TIP3    H228756   1.801   5.350  17.892 -0.3368  2.3436  0.4187
 1521TIP3   OH228757   1.859   6.748  18.088  0.3762 -0.4655 -0.3830
 1521TIP3    H128758   1.899   6.811  18.028 -1.0266  0.8441 -0.0010
 1521TIP3    H228759   1.933   6.704  18.130  1.3761 -0.2380 -1.8406
 1522TIP3   OH228760   1.008   2.507  19.346 -0.0810  0.1199  0.1276
 1522TIP3    H128761   0.930   2.482  19.395 -0.4353  0.9603 -0.0009
 1522TIP3    H228762   1.082   2.478  19.401 -0.4666  0.9526  1.1029
 1523TIP3   OH228763   0.647   3.660  19.158  0.6925 -0.1025  0.0727
 1523TIP3    H128764   0.565   3.618  19.130  0.4822  0.2667  0.1276
 1523TIP3    H228765   0.679   3.605  19.230 -0.0941  0.3767  0.8051
 1524TIP3   OH228766   1.992   6.605  19.609  0.1603  0.2116 -0.3511
 1524TIP3    H128767   2.040   6.641  19.684  1.7947 -1.5907 -0.4515
 1524TIP3    H228768   1.903   6.591  19.642  0.4513  0.8363  0.7690
 1525TIP3   OH228769   1.805   0.780  19.667 -0.2555  0.1890 -0.1384
 1525TIP3    H128770   1.727   0.827  19.636 -0.2070 -0.5876 -1.5526
 1525TIP3    H228771   1.871   0.848  19.678 -1.0073  0.8081  0.6689
 1526TIP3   OH228772   0.529   1.936  19.106  0.3893 -0.2112 -0.1939
 1526TIP3    H128773   0.525   2.028  19.132 -0.0766 -0.1167 -0.5978
 1526TIP3    H228774   0.536   1.938  19.011  1.1037 -0.5831 -0.1566
 1527TIP3   OH228775   2.170   0.967  19.327  0.0178  0.5693 -0.0965
 1527TIP3    H128776   2.167   1.007  19.414  1.1171  4.0024 -1.4790
 1527TIP3    H228777   2.247   0.910  19.330 -0.9297 -0.7380  1.6081
 1528TIP3   OH228778   4.407   3.710  18.297  0.0202  0.2981 -0.5335
 1528TIP3    H128779   4.403   3.746  18.208 -0.9101  1.0152 -0.2091
 1528TIP3    H228780   4.343   3.761  18.347  0.9446  0.2974  0.6946
 1529TIP3   OH228781   3.129   4.445  19.461  0.2532  0.5436 -0.3094
 1529TIP3    H128782   3.068   4.410  19.396 -0.0604  0.2302  0.1488
 1529TIP3    H228783   3.127   4.382  19.533  0.1070  1.2159  0.2860
 1530TIP3   OH228784   6.298   4.157  18.489 -0.9152  0.0176  0.2638
 1530TIP3    H128785   6.324   4.079  18.538 -0.4638  1.0817  1.8000
 1530TIP3    H228786   6.210   4.137  18.457 -0.3991 -1.5212 -0.2887
 1531TIP3   OH228787   3.146   4.938  18.922  0.1729  0.2342  0.2803
 1531TIP3    H128788   3.192   5.005  18.973 -1.6337  2.5722 -0.9963
 1531TIP3    H228789   3.076   4.907  18.980  0.3772  0.1802  0.5006
 1532TIP3   OH228790   3.933   5.920  18.647  0.2326  0.1607 -0.3858
 1532TIP3    H128791   3.890   5.989  18.598  1.7211  0.2643 -1.6177
 1532TIP3    H228792   3.937   5.953  18.737 -0.8460  0.7921 -0.5573
 1533TIP3   OH228793   4.733   0.174  16.795 -0.3146  0.0483 -0.6525
 1533TIP3    H128794   4.640   0.153  16.792 -0.3022 -0.1716  0.3008
 1533TIP3    H228795   4.770   0.111  16.856  0.5151 -0.0336 -1.2293
 1534TIP3   OH228796   5.470   3.863  17.163 -0.2266 -0.8129  0.1983
 1534TIP3    H128797   5.378   3.845  17.182 -0.2990 -0.8676 -0.1963
 1534TIP3    H228798   5.518   3.796  17.212 -0.2020  1.1357  3.0375
 1535TIP3   OH228799   3.403   2.600  16.587  0.0476 -0.0003 -0.0301
 1535TIP3    H128800   3.344   2.530  16.558 -1.5506  0.5895  1.5636
 1535TIP3    H228801   3.388   2.671  16.524 -1.1783  0.2201  0.4692
 1536TIP3   OH228802   5.730   1.253  20.662  0.4139  0.4729 -0.0569
 1536TIP3    H128803   5.708   1.205  20.582 -0.9876  0.2632  0.4357
 1536TIP3    H228804   5.667   1.324  20.666  0.1734  0.2119  1.0882
 1537TIP3   OH228805   6.167   3.920  18.224  0.0154 -0.2748 -0.0267
 1537TIP3    H128806   6.113   3.841  18.227 -1.7656  0.7947 -1.5407
 1537TIP3    H228807   6.126   3.980  18.286  0.0084  0.2367 -0.5185
 1538TIP3   OH228808   3.636   6.649  18.831 -0.1647  0.2398 -0.6697
 1538TIP3    H128809   3.558   6.595  18.825 -1.3349  1.8179 -0.3741
 1538TIP3    H228810   3.603   6.736  18.854  1.5668  1.2417 -1.7387
 1539TIP3   OH228811   3.038   0.814  18.156  0.6134 -0.1125 -0.4275
 1539TIP3    H128812   3.019   0.785  18.067 -0.9127  0.3985 -0.2898
 1539TIP3    H228813   2.998   0.900  18.163 -1.0207 -0.9444  1.3411
 1540TIP3   OH228814   4.960   5.132  19.221 -0.6378 -0.1086 -0.5104
 1540TIP3    H128815   4.903   5.079  19.166 -0.8621  0.1978 -0.5726
 1540TIP3    H228816   5.047   5.095  19.208 -0.7011 -0.0836 -1.0157
 1541TIP3   OH228817   0.155   2.632  17.623 -0.1611  0.2350 -0.2534
 1541TIP3    H128818   0.135   2.697  17.556  1.5258  0.3590 -0.6661
 1541TIP3    H228819   0.199   2.561  17.575 -0.7328 -0.6005  0.4145
 1542TIP3   OH228820   3.549   1.088  18.313 -0.0430 -0.2572  0.1973
 1542TIP3    H128821   3.488   1.075  18.241  0.4366 -1.9014  0.0458
 1542TIP3    H228822   3.534   1.178  18.341 -0.6605  0.2285 -1.5558
 1543TIP3   OH228823   0.025   4.890  19.730 -0.7454 -0.0171  0.5885
 1543TIP3    H128824   0.050   4.864  19.641 -0.4021 -1.1332  0.9935
 1543TIP3    H228825   0.073   4.971  19.746  1.4804 -1.2777  0.7700
 1544TIP3   OH228826   4.212   5.377  17.257  0.1235  0.1689  0.0590
 1544TIP3    H128827   4.194   5.374  17.163 -2.6053  0.1329  0.5129
 1544TIP3    H228828   4.132   5.411  17.296 -0.2692 -3.2071  2.6839
 1545TIP3   OH228829   0.211   5.170  17.866  0.1051 -0.0335  0.1380
 1545TIP3    H128830   0.298   5.181  17.827  0.3855 -1.6775  0.2608
 1545TIP3    H228831   0.204   5.077  17.884 -1.4930  0.1555  0.6213
 1546TIP3   OH228832   5.880   0.178  19.496 -0.3323 -0.5452  0.3808
 1546TIP3    H128833   5.948   0.129  19.541 -0.4439 -0.0283  1.1360
 1546TIP3    H228834   5.843   0.116  19.433  0.4212 -1.0085  0.3877
 1547TIP3   OH228835   2.096   5.294  17.111  0.1988  1.0771  0.1588
 1547TIP3    H128836   2.189   5.273  17.115  0.1772  0.7386 -1.0512
 1547TIP3    H228837   2.051   5.210  17.115 -0.0754  1.2443  0.8414
 1548TIP3   OH228838   2.464   4.341  18.842  0.5594 -0.1088 -0.8571
 1548TIP3    H128839   2.405   4.411  18.814 -1.7324 -1.2947  0.6859
 1548TIP3    H228840   2.470   4.351  18.937  1.1210 -1.2853 -0.7508
 1549TIP3   OH228841   1.408   0.956  19.350 -0.1544  0.5967 -0.3185
 1549TIP3    H128842   1.419   0.970  19.256  0.3892  2.1803 -0.0481
 1549TIP3    H228843   1.313   0.953  19.362 -0.2285 -0.1134 -0.9608
 1550TIP3   OH228844   5.333   6.327  17.759 -0.2387  0.6120 -0.5204
 1550TIP3    H128845   5.374   6.244  17.780  1.9481  1.1667 -2.1955
 1550TIP3    H228846   5.345   6.381  17.837 -0.9656 -0.3506  0.2750
 1551TIP3   OH228847   5.929   6.517  19.492 -0.4001  0.4532 -0.0860
 1551TIP3    H128848   5.992   6.447  19.477 -0.2099  0.4612  0.6525
 1551TIP3    H228849   5.846   6.483  19.457 -0.7369 -0.8840  1.8561
 1552TIP3   OH228850   5.133   1.237  18.620 -0.2973  0.4091 -0.0348
 1552TIP3    H128851   5.122   1.148  18.654 -0.1319  0.3502 -0.1334
 1552TIP3    H228852   5.052   1.282  18.644 -0.3676  0.2417  0.0454
 1553TIP3   OH228853   4.235   5.402  16.975  0.1726  0.1671 -0.2628
 1553TIP3    H128854   4.304   5.383  16.912 -1.1053  0.4845 -1.8139
 1553TIP3    H228855   4.173   5.457  16.928  0.8388  3.4312  2.3248
 1554TIP3   OH228856   1.036   5.324  18.381 -0.3406  0.0394  0.4214
 1554TIP3    H128857   1.056   5.233  18.359  2.4627  0.7371 -0.3693
 1554TIP3    H228858   1.053   5.330  18.475  2.2713  0.2734  0.0190
 1555TIP3   OH228859   4.172   1.687  18.788 -0.1218 -0.9292  0.4189
 1555TIP3    H128860   4.193   1.695  18.881 -0.0006 -1.0021  0.3965
 1555TIP3    H228861   4.222   1.611  18.758 -1.3650 -1.8767  0.6571
 1556TIP3   OH228862   3.190   3.886  17.137  0.1087  0.2711 -0.3293
 1556TIP3    H128863   3.157   3.975  17.126  0.5140  0.2858 -1.6315
 1556TIP3    H228864   3.203   3.854  17.047  1.3630 -0.5604  0.1183
 1557TIP3   OH228865   4.147   3.119  18.827 -0.8227 -0.5641 -0.4845
 1557TIP3    H128866   4.063   3.162  18.837 -1.4881 -2.1165  1.3096
 1557TIP3    H228867   4.199   3.178  18.772 -2.4818  1.2550 -0.1797
 1558TIP3   OH228868   5.240   5.240  19.456 -0.0231  0.3140  0.0747
 1558TIP3    H128869   5.230   5.268  19.547  1.1083 -0.4020  0.4371
 1558TIP3    H228870   5.168   5.179  19.441 -0.3611  0.6285  0.4065
 1559TIP3   OH228871   5.191   5.511  19.368 -0.4061  0.2427 -0.2269
 1559TIP3    H128872   5.107   5.483  19.331 -2.6173  1.5266  3.3913
 1559TIP3    H228873   5.221   5.436  19.420 -0.9280  0.8352  0.9563
 1560TIP3   OH228874   0.052   5.991  19.889  0.7011 -0.2137  0.0654
 1560TIP3    H128875  -0.030   5.998  19.937  0.1684 -0.1075 -0.8378
 1560TIP3    H228876   0.073   6.081  19.863  1.8459 -0.0355  1.4649
 1561TIP3   OH228877   6.234   1.484  20.659  0.0085  0.5429 -0.0100
 1561TIP3    H128878   6.295   1.455  20.726 -0.4570  0.6675  0.4753
 1561TIP3    H228879   6.169   1.414  20.653  0.7586 -0.0812 -1.2725
 1562TIP3   OH228880   1.633   1.916  19.942  0.4179 -0.6508  0.5990
 1562TIP3    H128881   1.637   1.848  20.008 -0.1652 -1.0195  0.2635
 1562TIP3    H228882   1.724   1.926  19.912  0.4499 -1.6015  0.3344
 1563TIP3   OH228883   5.341   3.562  17.936  0.3534 -0.3524 -0.3814
 1563TIP3    H128884   5.323   3.561  18.030  0.2799  1.3291 -0.3464
 1563TIP3    H228885   5.282   3.629  17.902 -1.3928 -2.5738 -2.0424
 1564TIP3   OH228886   5.791   4.591  19.012 -0.0387 -0.2078 -0.1807
 1564TIP3    H128887   5.807   4.551  19.097 -2.0327  4.4590  2.7851
 1564TIP3    H228888   5.861   4.657  19.003 -1.1782  0.9480 -0.9403
 1565TIP3   OH228889   1.019   4.045  19.737  0.2455  0.1812 -0.3451
 1565TIP3    H128890   1.070   3.989  19.796 -2.2133 -1.5452  0.2706
 1565TIP3    H228891   0.992   3.987  19.666  1.6259  1.8158 -2.3491
 1566TIP3   OH228892   5.314   0.355  17.835  0.0381  0.1752  0.4312
 1566TIP3    H128893   5.368   0.381  17.760 -1.4306 -0.5458 -0.9584
 1566TIP3    H228894   5.243   0.419  17.837 -0.7521 -0.6742  0.2475
 1567TIP3   OH228895   5.040   3.103  18.817  0.0679 -0.6290  0.0591
 1567TIP3    H128896   5.030   3.064  18.730  1.5488  0.8096 -0.8076
 1567TIP3    H228897   4.992   3.186  18.812  0.5306 -0.3277  0.4424
 1568TIP3   OH228898   1.184   0.074  18.408 -0.2652  0.2435  0.4308
 1568TIP3    H128899   1.122   0.062  18.481  0.5414 -0.1730  1.0592
 1568TIP3    H228900   1.215  -0.014  18.389  0.6564  0.5318  0.5808
 1569TIP3   OH228901   6.162   4.373  18.121 -0.4930  0.9875 -0.1418
 1569TIP3    H128902   6.104   4.448  18.111  0.8265  2.1937  0.7616
 1569TIP3    H228903   6.225   4.400  18.188  0.2713 -0.7866 -0.0731
 1570TIP3   OH228904   4.799   2.779  19.304  0.2473  0.1005  0.3916
 1570TIP3    H128905   4.811   2.758  19.212 -1.3110  0.3968  0.0863
 1570TIP3    H228906   4.870   2.839  19.326 -0.7357  1.9608 -1.2744
 1571TIP3   OH228907   4.846   4.320  19.403  0.2795  0.2924  0.7214
 1571TIP3    H128908   4.897   4.323  19.485  1.8088 -1.4453 -0.0682
 1571TIP3    H228909   4.871   4.399  19.356  0.0461  0.8797  1.5676
 1572TIP3   OH228910   3.412   2.997  20.132 -0.2946 -0.1614  0.1481
 1572TIP3    H128911   3.414   2.921  20.073 -1.5407  0.2043 -0.3979
 1572TIP3    H228912   3.345   2.975  20.196 -0.3544  0.3030  0.2442
 1573TIP3   OH228913   3.597   3.017  19.643  0.3279 -0.2897 -0.3207
 1573TIP3    H128914   3.637   2.936  19.613  1.3336  0.1272 -0.1482
 1573TIP3    H228915   3.670   3.069  19.678 -0.6680 -0.4943  2.2918
 1574TIP3   OH228916   5.659   2.176  19.228  0.6417  0.4708  0.3975
 1574TIP3    H128917   5.592   2.111  19.208  0.7533  0.7302 -0.8747
 1574TIP3    H228918   5.616   2.237  19.288 -0.2045  0.5173 -0.2384
 1575TIP3   OH228919   2.114   1.851  17.498  0.6054 -0.3787 -0.2289
 1575TIP3    H128920   2.115   1.921  17.433 -1.4006 -2.1011 -2.3055
 1575TIP3    H228921   2.205   1.822  17.504  1.1550  1.1497 -0.7172
 1576TIP3   OH228922   1.506   5.606  18.444  0.6268 -0.7380  0.3369
 1576TIP3    H128923   1.547   5.676  18.394  0.4591 -0.0864  1.0815
 1576TIP3    H228924   1.425   5.586  18.397  0.9478 -0.8196 -0.1803
 1577TIP3   OH228925   6.398   1.764  18.264  0.1119  0.0371 -0.4271
 1577TIP3    H128926   6.326   1.811  18.222 -0.2458 -0.1212 -0.0071
 1577TIP3    H228927   6.366   1.674  18.272  0.9728 -0.3969 -1.6426
 1578TIP3   OH228928   1.664   4.838  19.460  0.4338  0.3272 -0.5849
 1578TIP3    H128929   1.596   4.886  19.508 -0.3296 -0.5001 -0.8152
 1578TIP3    H228930   1.674   4.757  19.510  2.0906  0.9268  0.1046
 1579TIP3   OH228931   2.751   2.676  18.932  0.0056 -0.0854 -0.0623
 1579TIP3    H128932   2.673   2.636  18.971 -0.4223  0.3811 -0.4291
 1579TIP3    H228933   2.788   2.729  19.002  0.1688 -0.5473  0.2065
 1580TIP3   OH228934   2.341   3.452  19.130  0.2306 -0.1027  0.3958
 1580TIP3    H128935   2.323   3.359  19.147 -0.4946 -0.3641 -1.4834
 1580TIP3    H228936   2.257   3.487  19.102  0.3781  1.2843  1.6112
 1581TIP3   OH228937   4.886   6.081  19.252  0.0710  0.2546  0.4133
 1581TIP3    H128938   4.880   6.024  19.329  3.0150 -0.6433  0.1108
 1581TIP3    H228939   4.826   6.041  19.189 -0.4103 -0.5570  1.3361
 1582TIP3   OH228940   3.306   2.063  18.910 -0.0057  0.4518  0.4288
 1582TIP3    H128941   3.263   2.018  18.983 -0.7992  0.7234  0.1386
 1582TIP3    H228942   3.308   1.998  18.839  0.7379  0.1977  0.6718
 1583TIP3   OH228943   0.296   2.195  18.393  0.6932 -0.4626 -0.0257
 1583TIP3    H128944   0.310   2.105  18.421  1.0643 -0.1021  1.0042
 1583TIP3    H228945   0.236   2.231  18.459 -1.3977 -0.6195 -1.7326
 1584TIP3   OH228946   4.578   6.454  18.406 -0.2139 -1.0479 -0.0133
 1584TIP3    H128947   4.585   6.410  18.491 -0.3288 -0.8510  0.0998
 1584TIP3    H228948   4.493   6.497  18.409  0.5212  0.4282  0.4780
 1585TIP3   OH228949   2.879   2.477  17.919  0.5350  0.1175  0.8499
 1585TIP3    H128950   2.895   2.563  17.880  0.2773 -0.5586 -0.8578
 1585TIP3    H228951   2.794   2.485  17.962 -0.1739  0.3388 -0.5437
 1586TIP3   OH228952   0.833   5.773  19.860 -0.2335 -0.0178  0.1037
 1586TIP3    H128953   0.745   5.773  19.898 -0.4899  2.0708 -0.3435
 1586TIP3    H228954   0.887   5.729  19.925 -1.3859 -0.2131  0.9659
 1587TIP3   OH228955   0.498   6.041  20.320  0.0037 -0.0303 -0.0379
 1587TIP3    H128956   0.447   6.074  20.246 -1.8408 -1.5627  0.4817
 1587TIP3    H228957   0.498   6.113  20.382 -0.4538  0.4400 -0.5691
 1588TIP3   OH228958   0.033   1.979  17.713 -0.3844  0.0786 -0.6022
 1588TIP3    H128959   0.014   1.917  17.642 -1.5418  0.1366 -0.3585
 1588TIP3    H228960  -0.007   1.939  17.790  0.0052  0.5025 -0.1797
 1589TIP3   OH228961   0.183   1.293  16.831  0.1003  0.5232 -0.2859
 1589TIP3    H128962   0.137   1.375  16.812 -0.1948  0.5195  0.3894
 1589TIP3    H228963   0.275   1.318  16.843  0.0878  0.6876 -0.5404
 1590TIP3   OH228964   6.164   3.579  17.624  0.1253  0.2680  0.0328
 1590TIP3    H128965   6.133   3.660  17.665 -1.1407 -0.3104  0.2407
 1590TIP3    H228966   6.133   3.509  17.680  1.7154 -0.3776  0.1758
 1591TIP3   OH228967   5.729   4.034  16.838  0.1174  0.0396  0.1821
 1591TIP3    H128968   5.683   4.089  16.775  0.9025  0.2923 -0.1868
 1591TIP3    H228969   5.674   4.037  16.916 -0.0629  1.0400  0.0401
 1592TIP3   OH228970   0.351   0.577  18.429 -0.1138 -0.0737  0.6350
 1592TIP3    H128971   0.281   0.594  18.493 -0.7334  2.2898 -0.5347
 1592TIP3    H228972   0.413   0.649  18.442 -0.5853  0.8712 -1.7453
 1593TIP3   OH228973   5.290   6.681  18.379 -0.5091 -0.8111  0.1105
 1593TIP3    H128974   5.376   6.650  18.408 -1.3291 -2.2872  1.0963
 1593TIP3    H228975   5.298   6.686  18.284  0.4662 -1.5983  0.1236
 1594TIP3   OH228976   1.714   2.502  18.588 -0.5353 -0.0706  0.1452
 1594TIP3    H128977   1.619   2.508  18.600 -0.6727 -1.8887  0.3401
 1594TIP3    H228978   1.747   2.472  18.673  0.0738 -0.4405 -0.2081
 1595TIP3   OH228979   0.296   4.711  19.354  0.1895 -0.5927 -0.4797
 1595TIP3    H128980   0.379   4.670  19.380  0.3323 -0.4836 -0.7544
 1595TIP3    H228981   0.322   4.798  19.322 -0.0870 -0.3665 -0.0937
 1596TIP3   OH228982   3.998   3.378  18.127  0.2909  0.3084 -0.1605
 1596TIP3    H128983   4.002   3.439  18.052  1.0684  0.9352  0.3658
 1596TIP3    H228984   3.963   3.297  18.090  1.6640  0.2602 -1.4660
 1597TIP3   OH228985   4.707   2.314  19.619  0.5383 -0.3649 -0.6211
 1597TIP3    H128986   4.755   2.363  19.686 -0.3150 -0.6952  0.2503
 1597TIP3    H228987   4.700   2.375  19.546 -0.6416  0.8947  0.5010
 1598TIP3   OH228988   3.033   3.507  18.617 -0.1028  0.7323 -0.1800
 1598TIP3    H128989   3.028   3.417  18.587  0.2251 -0.0368  1.9063
 1598TIP3    H228990   3.054   3.501  18.710 -0.0357  2.9663  0.0227
 1599TIP3   OH228991   3.108   5.651  17.833 -0.5060  0.2453  0.3130
 1599TIP3    H128992   3.067   5.584  17.779  0.5360 -0.8484  0.8223
 1599TIP3    H228993   3.108   5.614  17.921 -0.5937  1.2484  0.7518
 1600TIP3   OH228994   6.232   1.526  18.347 -0.0130  0.1060  0.0124
 1600TIP3    H128995   6.160   1.589  18.345  0.9106  1.1827 -0.7637
 1600TIP3    H228996   6.202   1.454  18.292 -0.4797  0.5576 -0.3343
 1601TIP3   OH228997   3.713   1.281  18.208 -0.3131  0.3923  0.8860
 1601TIP3    H128998   3.656   1.216  18.248  1.1813 -1.4655  0.1989
 1601TIP3    H228999   3.797   1.271  18.253  0.4367  0.5998 -0.3888
 1602TIP3   OH229000   5.280   4.250  18.256  0.0480 -0.6704  0.6804
 1602TIP3    H129001   5.338   4.185  18.296  0.9432 -1.0802 -1.1946
 1602TIP3    H229002   5.324   4.334  18.273  1.1361 -0.9576 -0.5350
 1603TIP3   OH229003   2.505   6.184  18.293 -0.0023  0.0004  0.0305
 1603TIP3    H129004   2.509   6.253  18.359  0.7590  0.7584 -0.7768
 1603TIP3    H229005   2.597   6.165  18.274 -0.1964 -1.4563  0.4396
 1604TIP3   OH229006   1.892   5.578  20.031 -0.3198 -0.5041 -0.0743
 1604TIP3    H129007   1.940   5.512  20.080 -1.7323  0.0367  2.1888
 1604TIP3    H229008   1.949   5.600  19.957  1.3131 -2.3430  0.5671
 1605TIP3   OH229009   0.121   0.011  18.986 -0.2411 -0.8753 -0.1479
 1605TIP3    H129010   0.087  -0.011  19.073  0.9934 -0.8816  0.3548
 1605TIP3    H229011   0.079  -0.051  18.927  1.0445 -2.7812  0.8442
 1606TIP3   OH229012   5.088   2.383  18.501  0.0829 -0.3196  0.0047
 1606TIP3    H129013   5.034   2.367  18.423  0.1817  0.0548 -0.1435
 1606TIP3    H229014   5.150   2.310  18.502  2.4377  1.4850 -2.3187
 1607TIP3   OH229015   5.028   6.167  17.410 -0.7291 -0.7199  0.5985
 1607TIP3    H129016   4.977   6.147  17.489  0.3071 -0.7074  1.2891
 1607TIP3    H229017   5.064   6.082  17.383 -0.6711 -0.6441  0.4407
 1608TIP3   OH229018   0.627   3.198  19.799 -0.1518 -0.1438 -0.2086
 1608TIP3    H129019   0.677   3.255  19.858 -0.9933 -0.8248  1.2257
 1608TIP3    H229020   0.611   3.251  19.721  2.1542  0.3360 -0.4202
 1609TIP3   OH229021   0.101   5.764  19.725 -0.8347 -0.6206 -0.7311
 1609TIP3    H129022   0.044   5.765  19.648  0.2699  2.8083 -1.6747
 1609TIP3    H229023   0.068   5.834  19.780  1.4941  0.4481 -0.5933
 1610TIP3   OH229024   5.336   4.607  17.834 -0.1112 -0.1710 -0.1218
 1610TIP3    H129025   5.382   4.684  17.801 -1.7013  0.6375 -0.5690
 1610TIP3    H229026   5.288   4.639  17.911  0.0001 -0.9574  0.2848
 1611TIP3   OH229027   6.164   2.194  16.605  0.4433  0.6113  0.2301
 1611TIP3    H129028   6.082   2.183  16.652  0.8790  0.0637  0.8881
 1611TIP3    H229029   6.143   2.178  16.513  0.0865 -0.9321  0.5613
 1612TIP3   OH229030   6.341   0.750  18.730 -0.3247  0.7884 -0.1747
 1612TIP3    H129031   6.337   0.686  18.801  2.7115 -0.1174 -0.6627
 1612TIP3    H229032   6.418   0.803  18.751 -1.3695  2.7531 -1.0624
 1613TIP3   OH229033   6.234   5.774  19.227  0.1154  0.3270  0.1700
 1613TIP3    H129034   6.167   5.833  19.193  0.9001  0.8590 -0.4916
 1613TIP3    H229035   6.272   5.822  19.301  0.6823  0.6352 -0.3042
 1614TIP3   OH229036   0.049   4.324  18.963 -0.3021  0.1787  0.1337
 1614TIP3    H129037   0.004   4.241  18.973  0.4001 -0.1150  0.9068
 1614TIP3    H229038   0.007   4.365  18.887 -1.8151 -0.1049  0.7877
 1615TIP3   OH229039   3.506   5.114  19.470  0.2347  0.0310 -0.7420
 1615TIP3    H129040   3.489   5.190  19.414 -0.6599 -1.2669 -2.3647
 1615TIP3    H229041   3.521   5.042  19.408 -0.3504 -1.4033  0.6958
 1616TIP3   OH229042   3.569   2.808  18.673  0.1487  0.0682 -0.2375
 1616TIP3    H129043   3.481   2.821  18.637  0.1812  1.1367  0.0273
 1616TIP3    H229044   3.604   2.733  18.625 -0.7465 -0.0978 -0.6457
 1617TIP3   OH229045   0.409   0.742  18.828  0.7158 -0.2527  0.2671
 1617TIP3    H129046   0.396   0.775  18.917  0.4854  0.0859  0.1057
 1617TIP3    H229047   0.489   0.785  18.798 -0.3275  1.2656 -0.4590
 1618TIP3   OH229048   1.265   1.893  20.287 -0.0456  0.1168  0.4639
 1618TIP3    H129049   1.282   1.799  20.294 -3.5492 -0.6366  0.6935
 1618TIP3    H229050   1.260   1.922  20.378 -0.6254  0.1399  0.4281
 1619TIP3   OH229051   5.350   2.834  20.026  0.6443 -0.2601  0.4587
 1619TIP3    H129052   5.430   2.817  20.076 -0.1753 -0.6139  1.7114
 1619TIP3    H229053   5.349   2.928  20.012  2.0000 -0.4186 -0.8533
 1620TIP3   OH229054   5.094   1.496  17.789  0.3376  0.3306  0.0575
 1620TIP3    H129055   5.040   1.540  17.855  1.9420 -0.0174  1.6764
 1620TIP3    H229056   5.101   1.559  17.717 -2.3381  0.2999 -0.3218
 1621TIP3   OH229057   6.494   4.750  18.497 -0.2127  0.1231  0.2445
 1621TIP3    H129058   6.432   4.815  18.531  0.1589 -0.0074  1.1990
 1621TIP3    H229059   6.568   4.753  18.558 -0.0109 -0.9092  0.0670
 1622TIP3   OH229060   0.601   1.808  18.574 -0.0118  0.0541  0.4095
 1622TIP3    H129061   0.606   1.719  18.609 -1.0455  0.1735  0.8961
 1622TIP3    H229062   0.568   1.797  18.485  1.1567 -0.1361 -0.0186
 1623TIP3   OH229063   1.771   0.642  19.910 -0.0674  0.0430  0.4929
 1623TIP3    H129064   1.760   0.671  19.819  1.9720 -1.4877 -0.3296
 1623TIP3    H229065   1.716   0.564  19.917  0.8207 -0.6235  0.1360
 1624TIP3   OH229066   4.251   1.762  19.757 -0.1599  0.3548  0.0919
 1624TIP3    H129067   4.175   1.818  19.742  0.0486  0.5142 -0.3595
 1624TIP3    H229068   4.214   1.683  19.797 -0.4997  0.6495  0.3710
 1625TIP3   OH229069   2.986   0.477  17.797 -0.5722 -0.2372 -0.1004
 1625TIP3    H129070   2.938   0.399  17.766 -0.5640 -0.4852  0.5083
 1625TIP3    H229071   3.059   0.485  17.736 -0.3451 -0.9455  0.0694
 1626TIP3   OH229072   3.349   3.264  20.293  0.6178  0.3772 -0.1561
 1626TIP3    H129073   3.395   3.197  20.243  1.7665  2.0463 -1.4481
 1626TIP3    H229074   3.416   3.305  20.347  0.1353  1.1552 -0.1310
 1627TIP3   OH229075   5.757   2.692  19.475 -0.3947  0.2439  0.3230
 1627TIP3    H129076   5.817   2.766  19.491  2.2507 -1.4813 -0.8259
 1627TIP3    H229077   5.727   2.705  19.384 -0.9724  0.5614  0.5539
 1628TIP3   OH229078   4.758   3.360  17.238  0.0223 -0.2582 -0.1780
 1628TIP3    H129079   4.725   3.276  17.272  1.7303 -0.9923 -0.2239
 1628TIP3    H229080   4.763   3.347  17.144 -1.2916  0.5166 -0.3782
 1629TIP3   OH229081   5.756   5.970  19.158 -0.5375  0.1693 -0.4800
 1629TIP3    H129082   5.690   5.927  19.213  0.5828 -0.8294  0.1355
 1629TIP3    H229083   5.749   5.926  19.073 -0.1144 -0.5112 -0.1684
 1630TIP3   OH229084   4.614   2.836  17.221 -0.6297  1.3101  0.1687
 1630TIP3    H129085   4.556   2.821  17.147  1.3239 -0.5367 -1.1023
 1630TIP3    H229086   4.635   2.748  17.254 -0.3651  2.0279  2.0777
 1631TIP3   OH229087   5.998   0.502  17.710  0.0817  0.5930 -0.5881
 1631TIP3    H129088   5.989   0.597  17.721 -0.3801  0.3043  2.2088
 1631TIP3    H229089   6.090   0.485  17.727 -0.0378  0.4447 -0.0774
 1632TIP3   OH229090   3.803   3.987  17.901 -0.0528  0.2158 -0.5857
 1632TIP3    H129091   3.898   3.987  17.886  0.0563 -1.1521 -0.0165
 1632TIP3    H229092   3.787   4.067  17.952  0.8795  0.1930 -0.2387
 1633TIP3   OH229093   4.247   1.118  20.125  0.0324  0.4887 -0.2583
 1633TIP3    H129094   4.167   1.139  20.173  0.4682  0.6277  0.4145
 1633TIP3    H229095   4.216   1.085  20.041 -0.7322  0.5709 -0.0175
 1634TIP3   OH229096   1.250   1.575  16.727 -0.4229 -0.0116 -0.3919
 1634TIP3    H129097   1.295   1.537  16.651 -0.9622 -1.2612 -0.1062
 1634TIP3    H229098   1.267   1.513  16.798 -2.1576 -0.2577 -0.1623
 1635TIP3   OH229099   4.966   0.488  20.529 -0.1381  0.5114  0.0980
 1635TIP3    H129100   4.958   0.467  20.622 -0.3662  2.0768  0.4594
 1635TIP3    H229101   4.900   0.434  20.487 -0.0900 -0.1535  0.8572
 1636TIP3   OH229102   0.279   2.497  19.223  0.0149 -0.1699  0.3512
 1636TIP3    H129103   0.323   2.568  19.270  0.0656 -0.1696  0.3024
 1636TIP3    H229104   0.190   2.498  19.258  0.6432 -1.6711  2.1678
 1637TIP3   OH229105   1.176   0.989  16.812 -0.2440 -0.6178 -0.0591
 1637TIP3    H129106   1.117   0.947  16.874  0.8280 -2.7222 -0.3427
 1637TIP3    H229107   1.193   0.922  16.745  1.2038  0.4339 -0.8282
 1638TIP3   OH229108   2.700   0.620  19.886  0.4726  0.1212  0.2605
 1638TIP3    H129109   2.747   0.683  19.830 -0.9253  0.7349 -0.2763
 1638TIP3    H229110   2.630   0.672  19.926 -0.5289 -1.0186  0.0375
 1639TIP3   OH229111   4.014   6.079  18.886  0.3962  0.0166 -0.6898
 1639TIP3    H129112   4.083   6.069  18.951 -0.3436 -1.1269 -0.0514
 1639TIP3    H229113   3.981   6.168  18.900  0.7680  0.0585 -0.0390
 1640TIP3   OH229114   2.625   3.355  20.136  0.3648  0.2641  0.3733
 1640TIP3    H129115   2.579   3.395  20.062 -0.5994 -0.0699  0.7844
 1640TIP3    H229116   2.717   3.358  20.110  0.0225 -0.1043 -0.9783
 1641TIP3   OH229117   5.980   1.118  20.462 -0.9287 -0.4235  0.1967
 1641TIP3    H129118   5.969   1.179  20.388 -1.0182 -0.5715  0.0893
 1641TIP3    H229119   6.026   1.170  20.528  1.6049 -1.0316 -0.9446
 1642TIP3   OH229120   1.921   2.408  16.874  0.9659 -0.0326  0.2787
 1642TIP3    H129121   1.839   2.388  16.828  2.0202 -1.9521 -0.8903
 1642TIP3    H229122   1.963   2.475  16.819  0.9463 -0.2675 -0.0250
 1643TIP3   OH229123   0.160   2.551  18.424  0.3721 -0.0112  0.0141
 1643TIP3    H129124   0.114   2.471  18.449  0.3342  0.3334  1.1000
 1643TIP3    H229125   0.091   2.617  18.417  0.3177 -0.2007 -1.5304
 1644TIP3   OH229126   4.785   5.072  17.331  0.0913 -0.2232  0.2517
 1644TIP3    H129127   4.707   5.090  17.383  1.2483 -0.1178  2.0710
 1644TIP3    H229128   4.785   5.139  17.263 -1.7961 -0.7177 -0.2894
 1645TIP3   OH229129   3.323   5.227  18.210 -0.1075  0.4180  0.4088
 1645TIP3    H129130   3.416   5.228  18.232 -0.6729  0.2943  3.2377
 1645TIP3    H229131   3.287   5.157  18.265 -1.4530 -1.7001 -2.8967
 1646TIP3   OH229132   5.189   3.253  19.174  0.3950  0.2751 -0.3961
 1646TIP3    H129133   5.149   3.246  19.088 -0.3920  1.2450 -0.1319
 1646TIP3    H229134   5.273   3.296  19.159  1.1873 -1.3691 -0.8986
 1647TIP3   OH229135   2.480   1.264  19.132 -0.6301  0.1256  0.4216
 1647TIP3    H129136   2.520   1.250  19.046 -0.6130  1.7088  0.1316
 1647TIP3    H229137   2.460   1.176  19.164  0.3428 -0.5485 -0.7258
 1648TIP3   OH229138   0.811   4.713  19.991  0.3528  0.0672  0.4068
 1648TIP3    H129139   0.741   4.650  19.973  0.4341  0.6918 -2.6326
 1648TIP3    H229140   0.890   4.660  19.995  0.0014 -0.3957  1.5837
 1649TIP3   OH229141   2.425   5.310  18.183  0.2937 -0.3869 -0.4690
 1649TIP3    H129142   2.366   5.256  18.235 -2.1461  2.1657 -0.3818
 1649TIP3    H229143   2.497   5.331  18.243 -0.2843 -0.9902  0.4654
 1650TIP3   OH229144   3.226   3.695  19.019  0.0854  0.0917  0.0200
 1650TIP3    H129145   3.321   3.678  19.021  0.0277 -0.5910 -1.4334
 1650TIP3    H229146   3.187   3.610  18.998 -0.7845  0.5624 -0.3111
 1651TIP3   OH229147   0.140   1.071  18.838 -0.1093 -0.3366  0.2822
 1651TIP3    H129148   0.224   1.117  18.833 -0.4766  0.4002  0.6193
 1651TIP3    H229149   0.159   0.989  18.883  0.2837  0.2158  1.1503
 1652TIP3   OH229150   6.229   6.677  18.869 -0.0068  0.0644  0.0925
 1652TIP3    H129151   6.252   6.678  18.962  0.2799  1.2091  0.0287
 1652TIP3    H229152   6.298   6.729  18.827 -0.3204 -0.1579 -0.7102
 1653TIP3   OH229153   1.523   5.730  17.299  0.0970 -0.6002  0.1350
 1653TIP3    H129154   1.436   5.762  17.274 -1.1277 -1.5623  2.8315
 1653TIP3    H229155   1.566   5.711  17.215 -1.6794  1.3180 -1.3334
 1654TIP3   OH229156   1.172   5.909  19.964  0.2702 -0.2199 -0.4598
 1654TIP3    H129157   1.116   5.986  19.953  1.1155  0.6272  0.8384
 1654TIP3    H229158   1.128   5.857  20.032 -0.0709 -0.6879 -1.0233
 1655TIP3   OH229159   2.680   2.191  17.869  1.0196  0.1930  0.5087
 1655TIP3    H129160   2.633   2.257  17.818 -1.1156 -1.3185  0.3893
 1655TIP3    H229161   2.746   2.157  17.809  0.3294  0.3326 -0.3457
 1656TIP3   OH229162   5.644   2.878  17.711  0.0981 -0.1140 -0.2342
 1656TIP3    H129163   5.601   2.951  17.665 -1.0745 -0.6584 -0.0502
 1656TIP3    H229164   5.699   2.837  17.645 -1.7074 -1.0008 -1.2633
 1657TIP3   OH229165   3.667   4.373  19.363  0.2282  0.3089  0.2635
 1657TIP3    H129166   3.582   4.379  19.319 -0.1522 -0.9552  0.7775
 1657TIP3    H229167   3.649   4.324  19.442  1.4192  0.1992  0.4797
 1658TIP3   OH229168   3.717   1.643  18.572 -0.1291  0.0283 -0.0824
 1658TIP3    H129169   3.778   1.684  18.633  0.4975 -0.4090 -0.4078
 1658TIP3    H229170   3.764   1.642  18.488  0.2816 -2.2208  0.1049
 1659TIP3   OH229171   0.354   6.491  18.293  0.1711  0.5702 -0.4547
 1659TIP3    H129172   0.439   6.493  18.337 -0.5157  0.8027  0.8939
 1659TIP3    H229173   0.373   6.521  18.204  1.2700  2.0547  0.2321
 1660TIP3   OH229174   0.767   4.546  17.896  0.2432 -0.4660 -0.0026
 1660TIP3    H129175   0.813   4.465  17.917  0.5562 -0.4902 -0.7551
 1660TIP3    H229176   0.713   4.563  17.973 -2.4004 -3.1984 -1.0036
 1661TIP3   OH229177   3.411   1.586  18.510 -0.3954 -0.0337  0.4686
 1661TIP3    H129178   3.361   1.590  18.592  1.0748  2.0775  1.3375
 1661TIP3    H229179   3.495   1.625  18.531  0.0536  0.5242 -2.0466
 1662TIP3   OH229180   2.476   5.759  18.483 -0.1302  0.1885 -0.0413
 1662TIP3    H129181   2.568   5.734  18.488  0.3580  1.8480 -0.2812
 1662TIP3    H229182   2.442   5.712  18.407  0.3673 -0.8285  0.3463
 1663TIP3   OH229183   0.692   1.446  17.908  0.6597  0.0308  0.1788
 1663TIP3    H129184   0.729   1.523  17.866  1.1972 -0.9018 -1.1154
 1663TIP3    H229185   0.710   1.459  18.001  4.1220 -0.2298 -0.3206
 1664TIP3   OH229186   4.629   4.184  18.202 -0.2700 -0.1656 -0.2823
 1664TIP3    H129187   4.672   4.205  18.119 -0.0449  0.2446 -0.0648
 1664TIP3    H229188   4.551   4.135  18.177 -1.3737  1.8010 -0.8601
 1665TIP3   OH229189   0.365   1.178  20.193 -0.0173 -0.0208  0.5016
 1665TIP3    H129190   0.422   1.116  20.239 -2.0575 -1.9482  0.6333
 1665TIP3    H229191   0.377   1.156  20.101 -1.5517 -1.4776  0.6001
 1666TIP3   OH229192   0.534   2.252  18.325  0.1716  0.0284 -0.0504
 1666TIP3    H129193   0.517   2.342  18.300 -1.2017  0.2766  1.6040
 1666TIP3    H229194   0.455   2.225  18.372  0.7942 -1.8460 -0.0023
 1667TIP3   OH229195   3.589   1.280  19.952 -0.1071 -0.1733 -0.2779
 1667TIP3    H129196   3.514   1.247  19.903 -1.1587  1.3123  0.2538
 1667TIP3    H229197   3.641   1.202  19.972 -1.8004 -1.3357 -0.1689
 1668TIP3   OH229198   4.124   1.527  18.354 -0.1904  0.1329  0.0543
 1668TIP3    H129199   4.147   1.573  18.274 -0.7843  0.7926  0.2590
 1668TIP3    H229200   4.191   1.555  18.417  1.2243 -1.5810 -0.5859
 1669TIP3   OH229201   0.201   3.309  19.832  0.0886  0.1545  0.3856
 1669TIP3    H129202   0.184   3.217  19.815 -2.9587  0.5648  0.6808
 1669TIP3    H229203   0.200   3.350  19.746  0.1899  0.1041  0.3600
 1670TIP3   OH229204   4.218   3.837  19.147 -1.2467 -0.2798  0.2387
 1670TIP3    H129205   4.243   3.856  19.237 -0.5668 -1.4537  0.3149
 1670TIP3    H229206   4.224   3.742  19.139 -0.8677 -0.1707 -1.1589
 1671TIP3   OH229207   4.951   1.720  19.335  0.1133 -0.0789  0.3643
 1671TIP3    H129208   4.959   1.636  19.381 -0.0189  0.7965  2.0364
 1671TIP3    H229209   4.874   1.761  19.374 -1.5122 -0.2860 -2.3317
 1672TIP3   OH229210   5.078   6.260  19.638  0.5172  0.1059  0.5010
 1672TIP3    H129211   4.983   6.249  19.635  0.7182 -1.9817 -1.4879
 1672TIP3    H229212   5.110   6.187  19.691  1.0719 -0.0493 -0.0281
 1673TIP3   OH229213   2.469   4.605  17.822 -0.1644  0.3227  0.3029
 1673TIP3    H129214   2.474   4.697  17.848 -2.3375  0.4368  0.5452
 1673TIP3    H229215   2.449   4.559  17.904  1.8277 -0.5365  0.3651
 1674TIP3   OH229216   4.447   3.683  19.068  0.0514 -0.3489 -0.4506
 1674TIP3    H129217   4.521   3.625  19.051 -1.1445 -2.1732  0.3125
 1674TIP3    H229218   4.452   3.703  19.161  0.7746  1.3067 -0.8026
 1675TIP3   OH229219   6.551   4.986  19.515  0.3110 -0.1441 -0.0658
 1675TIP3    H129220   6.638   4.981  19.556  0.5166  2.9339  0.1378
 1675TIP3    H229221   6.570   5.001  19.422 -0.0264 -0.2980 -0.1611
 1676TIP3   OH229222   3.035   2.218  19.317  0.1276  0.7476 -0.0924
 1676TIP3    H129223   2.980   2.161  19.263 -0.8244 -0.7722  2.2782
 1676TIP3    H229224   3.125   2.195  19.294 -0.2574 -0.3737 -0.5306
 1677TIP3   OH229225   4.027   0.830  19.477 -0.2624  0.3008 -1.2635
 1677TIP3    H129226   3.968   0.756  19.493 -0.5198  0.3421 -1.9923
 1677TIP3    H229227   4.114   0.796  19.497 -0.6609  0.7769  1.6889
 1678TIP3   OH229228   0.663   5.439  19.824  0.2800  0.1198  0.2184
 1678TIP3    H129229   0.698   5.458  19.737 -0.5146  1.2971  0.1305
 1678TIP3    H229230   0.571   5.419  19.810  0.1907  0.1227  0.7649
 1679TIP3   OH229231   5.902   4.253  18.932 -0.0367  0.0970  0.1492
 1679TIP3    H129232   5.873   4.284  18.846 -0.5204 -0.8266 -0.0351
 1679TIP3    H229233   5.945   4.170  18.914  1.1986  0.6125  0.6385
 1680TIP3   OH229234   2.713   0.390  17.187  0.4082 -0.7325 -0.3088
 1680TIP3    H129235   2.674   0.465  17.231  2.3495 -0.7933  1.7237
 1680TIP3    H229236   2.693   0.316  17.243  0.7394 -1.2803 -0.9011
 1681TIP3   OH229237   5.946   5.923  17.096  0.1889 -0.1625  0.5858
 1681TIP3    H129238   5.954   5.828  17.104  0.0515 -0.4013 -1.4468
 1681TIP3    H229239   6.020   5.948  17.040 -0.5573  0.7141 -0.0378
 1682TIP3   OH229240   0.117   2.589  17.160  0.4033 -0.7059 -0.1029
 1682TIP3    H129241   0.089   2.680  17.169 -0.1485 -0.8310 -0.4808
 1682TIP3    H229242   0.087   2.563  17.073  1.0508 -1.0804 -0.2222
 1683TIP3   OH229243   0.731   2.633  20.009  0.3010  0.0204 -0.5630
 1683TIP3    H129244   0.762   2.561  20.064  1.1280  1.2681  0.6481
 1683TIP3    H229245   0.635   2.625  20.011  0.3038  0.1529  1.2337
 1684TIP3   OH229246   2.096   3.724  17.680  0.4013  0.3097  0.3052
 1684TIP3    H129247   2.126   3.802  17.634  0.6394 -0.1307 -0.2946
 1684TIP3    H229248   2.134   3.731  17.767  0.2860  0.9450  0.3064
 1685TIP3   OH229249   3.647   3.165  18.860  0.5909 -0.7592  0.2425
 1685TIP3    H129250   3.613   3.143  18.773  1.0420  0.4432 -0.2645
 1685TIP3    H229251   3.690   3.085  18.890 -3.1515 -2.6561  1.2341
 1686TIP3   OH229252   2.735   5.585  17.383 -0.4758 -0.0800  0.1934
 1686TIP3    H129253   2.780   5.596  17.299  2.2599 -2.7654  1.1415
 1686TIP3    H229254   2.680   5.508  17.371 -1.1732  0.3699  0.4668
 1687TIP3   OH229255   5.384   0.590  18.727  0.0045  0.0991  0.0157
 1687TIP3    H129256   5.461   0.645  18.741 -1.0144  1.4029  0.6857
 1687TIP3    H229257   5.418   0.512  18.683  1.8118  0.3017  0.9587
 1688TIP3   OH229258   3.094   3.084  18.124 -0.3075 -0.4180 -0.5622
 1688TIP3    H129259   3.076   3.078  18.031  2.8104 -0.7036 -1.2513
 1688TIP3    H229260   3.109   3.177  18.140  0.3511 -0.5043 -0.6380
 1689TIP3   OH229261   3.107   3.498  17.019 -0.3580  0.3045  0.3266
 1689TIP3    H129262   3.135   3.410  16.994 -1.3163  0.0977 -0.0889
 1689TIP3    H229263   3.024   3.510  16.972  0.0773  1.6776 -0.1439
 1690TIP3   OH229264   4.567   4.155  19.331 -0.1046  0.3295 -0.2406
 1690TIP3    H129265   4.526   4.116  19.254 -3.1432  0.8612  0.9747
 1690TIP3    H229266   4.599   4.240  19.300 -1.9705  0.8760 -0.8316
 1691TIP3   OH229267   3.329   6.175  17.332  0.6189 -0.0837 -0.1932
 1691TIP3    H129268   3.238   6.146  17.328  0.3246  0.5271  1.4646
 1691TIP3    H229269   3.329   6.248  17.394  1.9294  1.2088 -1.6063
 1692TIP3   OH229270   4.415   6.146  19.756  0.1633  0.2245  0.4243
 1692TIP3    H129271   4.374   6.086  19.818  2.4257 -0.4514  1.3700
 1692TIP3    H229272   4.358   6.144  19.679  0.4610 -3.7151  0.1155
 1693TIP3   OH229273   3.443   3.326  19.983 -0.3027  0.5320 -0.8734
 1693TIP3    H129274   3.501   3.250  19.989  2.0237  2.2680 -0.4126
 1693TIP3    H229275   3.400   3.329  20.069 -0.0879  0.0172 -0.7417
 1694TIP3   OH229276   5.013   1.740  18.748 -0.2644 -0.0302  0.4385
 1694TIP3    H129277   5.031   1.754  18.841 -1.5767 -1.2207  0.9047
 1694TIP3    H229278   4.952   1.811  18.725  1.0654  1.0575  0.1072
 1695TIP3   OH229279   6.090   3.958  18.520  0.3530 -0.8983 -0.6610
 1695TIP3    H129280   6.128   3.870  18.526 -1.6056 -1.7458  0.0247
 1695TIP3    H229281   6.043   3.969  18.603  1.3155  1.1910 -0.3376
 1696TIP3   OH229282   4.700   1.688  18.932  0.2463 -0.0808  0.0093
 1696TIP3    H129283   4.634   1.684  19.001 -0.3750  1.5036 -0.4412
 1696TIP3    H229284   4.740   1.774  18.942 -1.0679  0.9587 -2.6153
 1697TIP3   OH229285   2.396   5.392  19.078 -0.5880 -0.2585 -0.1610
 1697TIP3    H129286   2.449   5.336  19.135 -0.7798  0.3991  0.6776
 1697TIP3    H229287   2.394   5.345  18.994  1.9797  0.0700 -0.4920
 1698TIP3   OH229288   5.952   6.719  18.726 -0.1211 -0.5486 -0.2170
 1698TIP3    H129289   5.949   6.814  18.718  1.1691 -0.5548 -1.1252
 1698TIP3    H229290   5.924   6.701  18.816  0.7054  0.7708  0.3313
 1699TIP3   OH229291   2.367   2.887  16.858 -0.0206  0.0578  0.4977
 1699TIP3    H129292   2.348   2.794  16.868 -1.0224  0.1851 -0.1023
 1699TIP3    H229293   2.305   2.931  16.915  0.9288  0.3382  1.3272
 1700TIP3   OH229294   5.286   1.029  17.793 -0.2012  0.3232  0.2183
 1700TIP3    H129295   5.302   1.035  17.887  0.4093 -0.8939  0.2011
 1700TIP3    H229296   5.228   1.103  17.774 -1.1301  0.0178  1.7233
 1701TIP3   OH229297   0.949   1.534  17.494  0.1600 -0.3700 -0.7392
 1701TIP3    H129298   0.898   1.518  17.415 -0.0795 -2.6666 -0.1818
 1701TIP3    H229299   1.040   1.517  17.468  0.6302  2.5693 -1.4208
 1702TIP3   OH229300   0.669   6.398  17.411 -0.3764  0.2071  0.3487
 1702TIP3    H129301   0.727   6.465  17.445 -0.2515  0.8838 -1.1023
 1702TIP3    H229302   0.715   6.315  17.428 -0.5048  0.4592  2.0858
 1703TIP3   OH229303   6.028   5.602  18.408  0.0312  0.0539  0.0172
 1703TIP3    H129304   6.079   5.623  18.330  1.2264 -1.4045  0.3646
 1703TIP3    H229305   5.969   5.532  18.380 -0.7413  0.6780  0.0230
 1704TIP3   OH229306   1.585   3.212  18.218 -0.1193 -0.4139 -0.9094
 1704TIP3    H129307   1.602   3.305  18.210 -0.5168 -0.0927  1.4583
 1704TIP3    H229308   1.490   3.203  18.208 -0.1623 -0.4770 -0.4558
 1705TIP3   OH229309   4.277   2.964  16.561  0.0773  0.1027  0.2319
 1705TIP3    H129310   4.365   2.991  16.536  0.1034 -0.7173 -0.6103
 1705TIP3    H229311   4.220   3.033  16.527  0.0759 -1.1432 -2.5528
 1706TIP3   OH229312   6.376   1.328  20.270 -0.5191 -0.1591  0.0398
 1706TIP3    H129313   6.340   1.410  20.234 -3.1119 -0.2968  2.0032
 1706TIP3    H229314   6.459   1.354  20.311 -0.4695  1.1360 -0.8250
 1707TIP3   OH229315   6.653   1.084  18.965 -0.0795  0.7338 -0.6055
 1707TIP3    H129316   6.633   1.170  19.001 -0.6235  0.5041 -0.3490
 1707TIP3    H229317   6.739   1.094  18.923  0.9248  0.8371  1.3672
 1708TIP3   OH229318   1.209   6.555  17.452 -0.2958 -0.2400 -0.4846
 1708TIP3    H129319   1.167   6.605  17.523  0.2593  1.0688 -1.0519
 1708TIP3    H229320   1.156   6.574  17.375 -0.3424 -0.9049 -0.6206
 1709TIP3   OH229321   0.530   4.147  17.494 -0.5595 -0.0908 -0.0055
 1709TIP3    H129322   0.546   4.112  17.582 -1.0206 -2.5728 -0.8275
 1709TIP3    H229323   0.526   4.069  17.438 -0.4582  1.4119 -2.2122
 1710TIP3   OH229324   2.446   5.096  19.649  0.0040 -0.1645  0.0621
 1710TIP3    H129325   2.435   5.179  19.603 -1.1093 -0.9850 -1.2583
 1710TIP3    H229326   2.434   5.117  19.741  0.3267  1.2149 -0.1856
 1711TIP3   OH229327   3.564   4.853  18.464  0.4614  0.9347 -0.0125
 1711TIP3    H129328   3.544   4.895  18.548  0.8282 -1.2997  1.3001
 1711TIP3    H229329   3.482   4.812  18.438  0.8690 -0.2418  0.4584
 1712TIP3   OH229330   6.089   5.206  20.105 -0.1499 -0.6874  0.5135
 1712TIP3    H129331   6.166   5.225  20.159 -1.0071 -2.6745  2.6193
 1712TIP3    H229332   6.101   5.115  20.078 -0.8477 -0.4080 -0.7967
 1713TIP3   OH229333   2.990   3.826  17.820  0.0024 -0.4255 -0.5365
 1713TIP3    H129334   3.068   3.882  17.827  0.2341 -0.8889  1.2367
 1713TIP3    H229335   2.992   3.792  17.731  0.0514  2.0874 -1.5604
 1714TIP3   OH229336   5.271   0.284  20.139  0.3109  0.3208  0.3582
 1714TIP3    H129337   5.200   0.280  20.203 -0.0827  0.9524 -0.0303
 1714TIP3    H229338   5.265   0.201  20.091 -0.0975  0.3248  0.3988
 1715TIP3   OH229339   5.890   4.930  17.946 -0.4533  0.2965 -0.4427
 1715TIP3    H129340   5.976   4.887  17.945 -0.6021 -0.0274 -2.0113
 1715TIP3    H229341   5.895   4.996  17.877 -2.3106 -1.6103 -2.5973
 1716TIP3   OH229342   0.286   3.656  17.483  0.1966  0.0256 -0.1124
 1716TIP3    H129343   0.211   3.605  17.514  0.9615 -0.2370  1.4027
 1716TIP3    H229344   0.359   3.593  17.485  0.6270  0.5019 -0.7317
 1717TIP3   OH229345   4.650   4.537  18.974  0.4186 -0.0948  0.2863
 1717TIP3    H129346   4.665   4.572  18.886  0.0267  0.1662  0.3165
 1717TIP3    H229347   4.735   4.503  19.002  0.9337  1.3163  0.4715
 1718TIP3   OH229348   0.144   3.507  16.948  0.5114 -0.1010 -0.2087
 1718TIP3    H129349   0.068   3.559  16.920 -0.8710 -0.9758  1.6533
 1718TIP3    H229350   0.161   3.537  17.038  1.2255 -1.1570  0.0161
 1719TIP3   OH229351   3.531   5.632  19.866 -0.6377 -0.3532 -0.2720
 1719TIP3    H129352   3.564   5.721  19.874 -0.5624 -0.0541 -3.0784
 1719TIP3    H229353   3.595   5.578  19.912 -0.6535  0.9722  1.4168
 1720TIP3   OH229354   3.883   4.620  18.105 -0.2899 -0.4535 -0.3690
 1720TIP3    H129355   3.962   4.672  18.120 -0.4987  0.6285 -2.6172
 1720TIP3    H229356   3.906   4.561  18.033 -0.7248 -2.0541  0.7448
 1721TIP3   OH229357   4.799   1.145  18.990 -0.2196  0.2239 -0.7536
 1721TIP3    H129358   4.704   1.138  18.997 -0.1273 -1.2551 -0.6732
 1721TIP3    H229359   4.814   1.235  18.959 -1.6547  0.3309 -1.2360
 1722TIP3   OH229360   6.185   6.254  18.087 -0.1963  0.9995 -0.6784
 1722TIP3    H129361   6.161   6.327  18.145  1.3857 -0.3102  1.7808
 1722TIP3    H229362   6.225   6.189  18.145  0.6650 -0.8257 -3.1446
 1723TIP3   OH229363   4.462   4.318  16.706 -0.2657 -0.1925  0.6719
 1723TIP3    H129364   4.490   4.388  16.647  2.1516 -1.0156  0.7525
 1723TIP3    H229365   4.457   4.361  16.792  0.8752 -0.0193  0.6665
 1724TIP3   OH229366   4.851   6.062  18.758 -0.4084 -0.2714 -0.2167
 1724TIP3    H129367   4.814   6.016  18.683 -1.6400  0.5909 -0.1671
 1724TIP3    H229368   4.795   6.036  18.832  0.4916 -0.7294  0.3273
 1725TIP3   OH229369   1.211   0.304  18.280  0.2839 -0.0264 -0.1719
 1725TIP3    H129370   1.266   0.345  18.347  2.5251  0.5822 -2.2263
 1725TIP3    H229371   1.213   0.211  18.301  1.6406  0.0540  0.1449
 1726TIP3   OH229372   6.141   6.470  18.718  0.4667 -0.6293  0.3838
 1726TIP3    H129373   6.169   6.540  18.778 -0.9034 -2.8117  3.8821
 1726TIP3    H229374   6.096   6.516  18.647  2.5535  2.1682  0.7044
 1727TIP3   OH229375   4.362   3.097  18.653  0.2611  0.1116 -0.1441
 1727TIP3    H129376   4.370   3.024  18.592  0.2929 -0.7457  0.8590
 1727TIP3    H229377   4.423   3.163  18.620  0.9154 -0.6820 -0.5504
 1728TIP3   OH229378   1.817   1.457  19.922 -0.2250  0.3347 -0.1392
 1728TIP3    H129379   1.909   1.476  19.907 -0.4501  0.9484 -0.7820
 1728TIP3    H229380   1.785   1.421  19.840 -0.5367  0.0259  0.1116
 1729TIP3   OH229381   3.824   2.437  19.229  0.1005  0.1551  0.2471
 1729TIP3    H129382   3.824   2.342  19.213  1.6938  0.2717 -0.6616
 1729TIP3    H229383   3.733   2.463  19.216 -0.1767 -1.0989 -0.4987
 1730TIP3   OH229384   3.038   3.902  19.109  0.7441 -0.0083  0.3955
 1730TIP3    H129385   3.044   3.929  19.018  1.0185  0.9987  0.6998
 1730TIP3    H229386   3.067   3.810  19.109  1.1960  0.1253 -0.4482
 1731TIP3   OH229387   4.325   4.318  20.026  0.1205  0.4170  0.1204
 1731TIP3    H129388   4.391   4.250  20.036 -1.2253 -0.7113  1.9794
 1731TIP3    H229389   4.254   4.275  19.979 -0.8484  0.3781  1.5415
 1732TIP3   OH229390   1.505   2.503  20.290 -0.1741 -0.4204 -0.1087
 1732TIP3    H129391   1.432   2.546  20.335  1.0400  1.7672 -0.0601
 1732TIP3    H229392   1.581   2.559  20.308  1.2292 -1.8013 -1.3720
 1733TIP3   OH229393   5.862   1.281  17.440  0.0505  0.3510  0.1074
 1733TIP3    H129394   5.864   1.364  17.392  3.7351  0.1072 -0.4305
 1733TIP3    H229395   5.893   1.216  17.377 -1.6789 -1.3239  0.8668
 1734TIP3   OH229396   0.717   4.015  19.771 -0.5126 -0.6043  0.1881
 1734TIP3    H129397   0.663   4.039  19.846 -2.7093 -1.9664 -0.8380
 1734TIP3    H229398   0.655   3.982  19.706  1.4938 -1.4169 -1.4527
 1735TIP3   OH229399   0.402   1.482  17.642  0.0445 -0.8043  0.3221
 1735TIP3    H129400   0.450   1.403  17.666  0.9863 -0.3778 -0.0680
 1735TIP3    H229401   0.334   1.491  17.708 -1.2259 -2.8872 -0.5826
 1736TIP3   OH229402   4.921   5.205  19.903  0.2079 -0.2547 -0.1175
 1736TIP3    H129403   4.856   5.167  19.962  0.4158 -0.1572  0.1768
 1736TIP3    H229404   4.871   5.235  19.828 -0.2062  0.6469  0.5094
 1737TIP3   OH229405   4.500   4.774  19.473 -0.7035 -0.1436 -0.6265
 1737TIP3    H129406   4.523   4.739  19.387 -0.7316  0.4163 -0.8667
 1737TIP3    H229407   4.409   4.801  19.465 -1.2796 -1.7405  0.1279
 1738TIP3   OH229408   6.508   4.478  20.085  0.3660  0.2695 -0.4979
 1738TIP3    H129409   6.486   4.457  20.176  0.3395  2.2275 -0.0270
 1738TIP3    H229410   6.424   4.482  20.040  0.3380 -0.0578 -0.4803
 1739TIP3   OH229411   1.180   4.671  18.315 -0.2512  0.2832 -0.0084
 1739TIP3    H129412   1.233   4.593  18.302  0.4689  0.6670  0.5146
 1739TIP3    H229413   1.103   4.641  18.363 -0.1357 -0.1568 -0.0964
 1740TIP3   OH229414   5.161   3.893  17.745  0.2938 -0.4225 -0.0019
 1740TIP3    H129415   5.066   3.886  17.745  0.1093  1.1556  1.5949
 1740TIP3    H229416   5.184   3.898  17.838  1.7204  1.3352 -0.4022
 1741TIP3   OH229417   1.130   2.722  17.876  0.9344 -0.3438  1.1661
 1741TIP3    H129418   1.187   2.799  17.874 -2.2055  2.2328  1.6457
 1741TIP3    H229419   1.060   2.747  17.937 -1.0736 -2.9569  0.0973
 1742TIP3   OH229420   1.311   4.003  17.188 -0.0374 -0.2163  0.0359
 1742TIP3    H129421   1.382   4.068  17.184  0.7303 -1.0845 -1.3286
 1742TIP3    H229422   1.283   3.993  17.097 -1.2260 -0.6588  0.4355
 1743TIP3   OH229423   2.223   0.899  18.264  0.3942 -0.2138 -0.1476
 1743TIP3    H129424   2.163   0.907  18.339  1.9416  1.1589  0.9977
 1743TIP3    H229425   2.227   0.987  18.227  3.3517  0.3196  1.1815
 1744TIP3   OH229426   3.506   2.132  17.156  0.5158  0.2498 -0.2191
 1744TIP3    H129427   3.455   2.144  17.076  0.1038 -2.0798 -0.3859
 1744TIP3    H229428   3.594   2.108  17.125  0.0350 -1.9292 -0.0837
 1745TIP3   OH229429   0.923   3.734  16.598 -0.0530 -0.7522 -0.8614
 1745TIP3    H129430   0.877   3.793  16.658 -0.1120 -1.5270 -0.1199
 1745TIP3    H229431   0.890   3.757  16.511  0.7493  1.0473 -0.7347
 1746TIP3   OH229432   0.644   4.873  17.176 -0.0014 -0.2034 -0.6771
 1746TIP3    H129433   0.736   4.853  17.193  0.4826  0.4355 -2.2849
 1746TIP3    H229434   0.595   4.810  17.228  1.2333  1.2207  2.5009
 1747TIP3   OH229435   2.030   4.306  17.777  0.2104  0.0999 -0.0308
 1747TIP3    H129436   1.977   4.240  17.731  0.8910 -0.4281 -0.0794
 1747TIP3    H229437   1.997   4.390  17.746  1.1044 -0.2427 -2.0199
 1748TIP3   OH229438   0.461   3.845  17.366 -0.0116 -0.3094 -0.3515
 1748TIP3    H129439   0.398   3.785  17.406 -0.7598 -0.0227 -1.0972
 1748TIP3    H229440   0.545   3.798  17.373 -0.2057 -0.4909  1.0598
 1749TIP3   OH229441   4.219   4.166  19.133 -0.2845  0.4377 -0.0103
 1749TIP3    H129442   4.293   4.119  19.094  0.6380  1.3357  0.6082
 1749TIP3    H229443   4.143   4.112  19.111  0.5655 -0.6278 -0.4720
 1750TIP3   OH229444   0.869   2.809  18.521  0.0688  0.7117  0.0146
 1750TIP3    H129445   0.843   2.881  18.578  1.5793  1.3506 -0.0369
 1750TIP3    H229446   0.823   2.826  18.439  1.0711  2.1698 -0.2911
 1751TIP3   OH229447   5.703   3.337  19.129  0.4987  0.4463  0.4004
 1751TIP3    H129448   5.788   3.296  19.118  1.2143  1.5507  1.5401
 1751TIP3    H229449   5.654   3.313  19.050  1.8355 -0.2562 -0.2399
 1752TIP3   OH229450   3.500   2.654  18.389  0.4496 -0.4172  0.2974
 1752TIP3    H129451   3.452   2.684  18.312  0.2093  1.4904  1.1374
 1752TIP3    H229452   3.444   2.587  18.428 -1.0352  0.9653  0.6363
 1753TIP3   OH229453   5.978   0.781  18.362  0.8846  0.0685 -0.2363
 1753TIP3    H129454   5.990   0.799  18.455 -2.4507  0.7292  0.1815
 1753TIP3    H229455   6.009   0.861  18.319  1.8550  0.0153  0.3366
 1754TIP3   OH229456   0.790   2.391  18.983 -0.7058  0.2019  0.4582
 1754TIP3    H129457   0.757   2.340  19.057  2.1483  0.8912  2.4110
 1754TIP3    H229458   0.795   2.329  18.911 -2.4955 -0.8170  1.1459
 1755TIP3   OH229459   5.105   3.249  18.418 -0.6542  0.4269  0.3310
 1755TIP3    H129460   5.157   3.199  18.356 -1.0663  0.6997 -0.2478
 1755TIP3    H229461   5.164   3.316  18.451  0.6819 -1.8527  2.9935
 1756TIP3   OH229462   0.806   0.795  20.123 -0.4207  0.7221  0.1784
 1756TIP3    H129463   0.752   0.864  20.085 -1.0763  0.1490  0.0492
 1756TIP3    H229464   0.807   0.814  20.217  0.2034  1.4486  0.0374
 1757TIP3   OH229465   4.126   6.311  19.267 -0.4429 -0.3475  0.0483
 1757TIP3    H129466   4.039   6.274  19.284  0.0374 -1.4019  0.3257
 1757TIP3    H229467   4.124   6.397  19.308 -1.7678  0.1754 -1.0399
 1758TIP3   OH229468   3.304   3.434  19.771 -0.0946 -0.5029 -0.4328
 1758TIP3    H129469   3.345   3.364  19.823 -1.2324 -1.2302 -0.4853
 1758TIP3    H229470   3.296   3.507  19.832 -2.3172 -1.6575  0.7791
 1759TIP3   OH229471   2.644   3.178  17.952 -0.0156  0.0405  0.2128
 1759TIP3    H129472   2.714   3.228  17.909 -2.1444  3.0172 -0.0342
 1759TIP3    H229473   2.654   3.198  18.045  0.2405 -0.6233  0.3352
 1760TIP3   OH229474   4.808   6.694  17.923 -0.1062  0.3940 -0.1599
 1760TIP3    H129475   4.752   6.764  17.890 -1.6302 -1.2374 -1.1968
 1760TIP3    H229476   4.873   6.681  17.853  0.1239  0.6850 -0.0055
 1761TIP3   OH229477   0.958   1.325  17.692  0.0242  0.2600  0.5764
 1761TIP3    H129478   0.893   1.361  17.631  1.4012  1.1100 -0.4296
 1761TIP3    H229479   0.906   1.292  17.766 -1.6140  0.0629 -0.6180
 1762TIP3   OH229480   5.840   5.833  17.831 -0.4485 -0.2714  0.1362
 1762TIP3    H129481   5.818   5.745  17.864 -0.0652 -0.3933  0.0648
 1762TIP3    H229482   5.893   5.817  17.753 -1.8694  0.0044 -0.9332
 1763TIP3   OH229483   6.293   0.366  17.151  0.1228 -0.0361  0.1394
 1763TIP3    H129484   6.357   0.411  17.206  0.1127 -1.5653  1.4586
 1763TIP3    H229485   6.336   0.356  17.066  0.7347  0.9776  0.3164
 1764TIP3   OH229486   4.973   6.732  20.041 -0.1849 -0.6242 -0.1962
 1764TIP3    H129487   5.018   6.813  20.019 -1.0720 -0.3120 -0.9239
 1764TIP3    H229488   4.992   6.673  19.968 -0.5845 -0.6301 -0.3019
 1765TIP3   OH229489   6.641   1.002  19.887 -0.5229 -0.0927 -0.0835
 1765TIP3    H129490   6.586   1.061  19.937  0.7223  0.2001  0.9847
 1765TIP3    H229491   6.716   1.055  19.861  0.8400 -1.2646  1.2750
 1766TIP3   OH229492   1.299   1.531  18.169  0.1505  0.2793 -0.3214
 1766TIP3    H129493   1.213   1.501  18.138 -0.6426  2.9262 -0.9858
 1766TIP3    H229494   1.361   1.470  18.129 -1.1955  0.5376 -3.0428
 1767TIP3   OH229495   5.645   6.378  19.703 -0.1960 -0.3013 -0.2119
 1767TIP3    H129496   5.648   6.414  19.614 -1.7732  1.2674  0.3300
 1767TIP3    H229497   5.695   6.439  19.756 -0.1669 -0.6623  0.1863
 1768TIP3   OH229498   0.999   0.713  19.747  0.4661  0.2835 -0.2857
 1768TIP3    H129499   1.005   0.683  19.656 -0.8708 -1.4998  0.1664
 1768TIP3    H229500   1.056   0.653  19.795 -1.5201 -1.0880  0.5027
 1769TIP3   OH229501   6.362   1.563  18.048  0.2807 -0.1693 -0.2546
 1769TIP3    H129502   6.355   1.627  17.978  0.3858 -0.5841 -0.6513
 1769TIP3    H229503   6.457   1.553  18.062  0.2542  1.0754  1.0435
 1770TIP3   OH229504   3.081   6.727  17.888 -0.1147 -0.2469 -0.1376
 1770TIP3    H129505   3.021   6.699  17.957 -0.1707  0.8292  0.2717
 1770TIP3    H229506   3.102   6.818  17.910  2.8122 -0.9659  0.5903
 1771TIP3   OH229507   5.587   3.728  18.996  0.3483 -0.3554 -0.4354
 1771TIP3    H129508   5.575   3.698  18.906  1.9311 -0.2514 -0.7072
 1771TIP3    H229509   5.498   3.730  19.033 -0.0786 -2.8146 -1.1872
 1772TIP3   OH229510   3.389   6.333  17.658 -0.2177  0.2525 -0.0322
 1772TIP3    H129511   3.324   6.386  17.614 -1.1254 -0.4488  0.4377
 1772TIP3    H229512   3.468   6.387  17.659 -0.5934  0.8379 -1.2134
 1773TIP3   OH229513   0.154   0.221  20.284 -0.2697  0.4965  0.4033
 1773TIP3    H129514   0.070   0.188  20.253  0.2484  0.1261 -0.6489
 1773TIP3    H229515   0.133   0.306  20.324 -1.4771 -0.6279  2.3291
 1774TIP3   OH229516   2.528   3.139  19.410 -0.3221 -0.3689 -0.4315
 1774TIP3    H129517   2.531   3.121  19.316  2.8290 -0.9245 -0.3214
 1774TIP3    H229518   2.591   3.078  19.448  0.3071  1.5178  1.7453
 1775TIP3   OH229519   4.506   0.466  17.854 -0.1206 -0.2114  0.6070
 1775TIP3    H129520   4.420   0.444  17.889 -0.3752 -1.2402 -0.5967
 1775TIP3    H229521   4.546   0.382  17.834  0.6963  0.2893  0.0564
 1776TIP3   OH229522   6.538   4.076  18.331 -0.5414 -0.2665 -0.4649
 1776TIP3    H129523   6.581   4.161  18.324 -2.8738  0.8540 -3.5427
 1776TIP3    H229524   6.459   4.093  18.382 -1.0256 -0.5540 -1.1064
 1777TIP3   OH229525   0.325   2.890  17.935 -0.2779 -0.4411  0.0410
 1777TIP3    H129526   0.243   2.881  17.887 -0.5482  0.8645  0.2424
 1777TIP3    H229527   0.389   2.841  17.882 -0.4268  1.4436 -2.0359
 1778TIP3   OH229528   3.695   1.354  19.025  0.2874 -0.3760 -0.1124
 1778TIP3    H129529   3.654   1.401  18.953  1.9845  0.1991 -0.7499
 1778TIP3    H229530   3.714   1.422  19.090  0.0727 -0.6674  0.2582
 1779TIP3   OH229531   2.043   1.870  16.913  0.2368  0.2362  0.1706
 1779TIP3    H129532   2.004   1.796  16.961  0.3143  0.7326  1.0334
 1779TIP3    H229533   2.091   1.829  16.841 -1.2699 -0.4291 -0.4821
 1780TIP3   OH229534   0.600   2.544  16.398 -0.0689 -0.4849 -0.9000
 1780TIP3    H129535   0.654   2.529  16.320 -0.4713 -2.8032 -0.7933
 1780TIP3    H229536   0.537   2.473  16.398 -1.2789  0.5251  0.5660
 1781TIP3   OH229537   5.926   4.479  19.543  0.2644 -0.2075 -0.6814
 1781TIP3    H129538   5.861   4.511  19.606 -0.0842 -1.6297 -0.2596
 1781TIP3    H229539   5.984   4.423  19.596  1.3475  0.3923 -1.2089
 1782TIP3   OH229540   1.381   3.648  18.901  0.2957  0.3890 -0.4047
 1782TIP3    H129541   1.329   3.718  18.940  0.8073  0.1607  0.7214
 1782TIP3    H229542   1.344   3.568  18.937  1.2308  0.2091  0.1735
 1783TIP3   OH229543   5.339   3.952  19.628  0.0358  0.1625  0.2096
 1783TIP3    H129544   5.326   3.878  19.568  1.3119  0.0735  0.0200
 1783TIP3    H229545   5.307   3.920  19.712  1.2036 -0.8736  0.2901
 1784TIP3   OH229546   4.017   1.012  18.432 -0.0489  0.3095  0.3995
 1784TIP3    H129547   3.930   0.990  18.401 -0.2932  0.2967  1.0709
 1784TIP3    H229548   4.074   0.945  18.393 -0.4813 -0.2664  0.7294
 1785TIP3   OH229549   1.099   5.865  17.832 -0.3168 -0.0790 -0.2467
 1785TIP3    H129550   1.045   5.788  17.815  0.5503 -1.3421  2.2654
 1785TIP3    H229551   1.182   5.830  17.863  0.6239  1.8632 -0.4296
 1786TIP3   OH229552   6.228   5.786  17.566  0.2513 -0.4468  0.1259
 1786TIP3    H129553   6.241   5.796  17.472 -1.1956  0.8908  0.0342
 1786TIP3    H229554   6.280   5.857  17.605  0.7996 -0.9603  0.3613
 1787TIP3   OH229555   6.367   5.373  17.902  0.0628 -0.5635  0.1591
 1787TIP3    H129556   6.359   5.387  17.808  1.5631 -0.8260 -0.0377
 1787TIP3    H229557   6.409   5.453  17.934 -0.9286 -0.2455  0.7092
 1788TIP3   OH229558   3.950   5.051  18.314 -0.6199  0.4145 -0.3251
 1788TIP3    H129559   4.037   5.085  18.293 -1.0059  0.5858 -1.7155
 1788TIP3    H229560   3.963   5.003  18.396  0.6794  0.8424 -0.2522
 1789TIP3   OH229561   5.534   2.159  19.564 -0.0776 -0.0042 -0.1444
 1789TIP3    H129562   5.614   2.170  19.513 -0.4532  1.3330 -0.4784
 1789TIP3    H229563   5.565   2.154  19.655  0.3080  2.3941 -0.0800
 1790TIP3   OH229564   2.751   2.906  19.752 -0.0068  0.7724  0.4302
 1790TIP3    H129565   2.822   2.843  19.766 -0.7015 -0.5478 -1.5853
 1790TIP3    H229566   2.761   2.970  19.823  0.9338 -1.4073  2.3866
 1791TIP3   OH229567   0.839   0.851  19.060 -0.1140  0.3134 -0.2445
 1791TIP3    H129568   0.826   0.906  19.137 -0.0467 -0.2482  0.1726
 1791TIP3    H229569   0.786   0.773  19.076  0.2799 -0.0243 -0.5430
 1792TIP3   OH229570   1.449   0.549  19.250  1.0114  0.4391  0.0870
 1792TIP3    H129571   1.511   0.581  19.184  1.5538 -2.0042 -0.6748
 1792TIP3    H229572   1.504   0.513  19.319  0.5807 -2.0349 -0.7339
 1793TIP3   OH229573   1.077   5.921  17.356 -0.2175  0.1017  0.2095
 1793TIP3    H129574   0.993   5.882  17.378 -0.6875  0.1938 -1.3052
 1793TIP3    H229575   1.055   6.004  17.314  0.5455 -0.4598 -1.3969
 1794TIP3   OH229576   6.731   1.552  17.978 -0.2126 -0.4515  0.2723
 1794TIP3    H129577   6.726   1.466  18.019  2.3808 -0.7177  0.1669
 1794TIP3    H229578   6.776   1.536  17.895 -2.3102  0.6093 -1.1847
 1795TIP3   OH229579   0.629   1.816  17.174  0.1827  0.1202 -0.3993
 1795TIP3    H129580   0.579   1.792  17.096  0.2512  1.5609 -0.9144
 1795TIP3    H229581   0.712   1.849  17.140  1.6859 -2.4978  0.4498
 1796TIP3   OH229582   5.316   6.019  18.918  0.4349 -0.2374 -0.3114
 1796TIP3    H129583   5.255   6.056  18.854  1.4371 -1.5313 -2.0787
 1796TIP3    H229584   5.372   6.093  18.943  0.0120  0.2952 -0.9143
 1797TIP3   OH229585   3.368   0.998  18.503 -0.1701  0.0655  0.3863
 1797TIP3    H129586   3.435   1.021  18.438  1.7237 -0.0798  2.1766
 1797TIP3    H229587   3.376   1.066  18.570 -1.1164 -0.5468  1.1424
 1798TIP3   OH229588   0.050   2.146  17.243 -0.4904  0.2325  0.0892
 1798TIP3    H129589   0.059   2.051  17.243 -0.5325  0.1646  2.5130
 1798TIP3    H229590   0.039   2.169  17.151  0.3083 -2.0154 -0.6432
 1799TIP3   OH229591   6.409   5.393  16.804  0.2265 -0.4887 -0.1348
 1799TIP3    H129592   6.391   5.484  16.829 -0.2490  0.0091 -2.1219
 1799TIP3    H229593   6.387   5.389  16.712  0.3620 -2.6265 -0.1149
 1800TIP3   OH229594   1.623   1.298  20.069 -0.4278  0.8903  0.4467
 1800TIP3    H129595   1.705   1.340  20.044 -0.5413  0.9045  0.1015
 1800TIP3    H229596   1.584   1.270  19.987 -0.2144 -0.1583  0.6883
 1801TIP3   OH229597   1.287   3.204  16.828 -0.3543  0.1549  0.0824
 1801TIP3    H129598   1.192   3.190  16.829 -0.0644 -2.5445 -1.3668
 1801TIP3    H229599   1.313   3.199  16.920 -1.5017 -0.0869  0.4099
 1802TIP3   OH229600   2.494   6.015  17.849 -0.1754  0.0740 -0.0862
 1802TIP3    H129601   2.478   6.037  17.941 -1.5730  0.3742 -0.3670
 1802TIP3    H229602   2.459   5.927  17.839 -1.0505  0.4567 -0.5549
 1803TIP3   OH229603   5.678   2.847  19.762 -0.5963 -0.9354  0.4174
 1803TIP3    H129604   5.710   2.887  19.681 -1.3029  1.4135  1.2023
 1803TIP3    H229605   5.583   2.863  19.760 -0.6861 -1.2580  1.5066
 1804TIP3   OH229606   6.051   5.170  16.600  0.5416 -0.1038  0.2189
 1804TIP3    H129607   5.971   5.217  16.620 -0.1288 -1.0551 -0.1142
 1804TIP3    H229608   6.025   5.107  16.532  1.7151  0.0055 -0.3708
 1805TIP3   OH229609   1.443   4.975  17.340 -0.0625  0.4350 -0.6323
 1805TIP3    H129610   1.516   4.923  17.305 -1.5791 -0.5604 -2.4593
 1805TIP3    H229611   1.476   5.065  17.339  1.1763  0.0022 -1.3315
 1806TIP3   OH229612   5.184   5.383  18.987  0.1418  0.3523  0.2847
 1806TIP3    H129613   5.204   5.476  18.982  0.5537  0.2417 -0.3303
 1806TIP3    H229614   5.270   5.340  18.989  0.2328 -0.2584 -4.4584
 1807TIP3   OH229615   2.837   0.731  19.665  0.1792 -0.3587 -0.1799
 1807TIP3    H129616   2.923   0.773  19.663  0.1782 -0.3551 -0.1363
 1807TIP3    H229617   2.835   0.677  19.586  0.7563 -1.4250  0.5089
 1808TIP3   OH229618   0.959   0.199  19.637 -0.4806  0.4087 -0.8810
 1808TIP3    H129619   0.903   0.159  19.703 -0.2279 -0.2969 -1.0943
 1808TIP3    H229620   0.901   0.217  19.564 -0.4906 -0.0257 -0.9781
 1809TIP3   OH229621   4.110   0.378  17.673 -0.4013  0.3352 -0.3086
 1809TIP3    H129622   4.136   0.381  17.582  1.2976 -2.4815 -0.0151
 1809TIP3    H229623   4.014   0.376  17.671 -0.3807  0.1440 -2.0121
 1810TIP3   OH229624   6.077   5.537  19.143 -0.1789 -0.0528  0.1973
 1810TIP3    H129625   6.024   5.576  19.074  3.2802 -0.0156 -2.7489
 1810TIP3    H229626   6.118   5.611  19.187  0.0512 -0.1499  0.1492
 1811TIP3   OH229627   2.923   6.487  19.639 -0.1536 -0.2885  1.2731
 1811TIP3    H129628   2.973   6.420  19.592  0.5637 -0.3911  2.1460
 1811TIP3    H229629   2.953   6.570  19.601 -0.7733 -0.4384  0.4436
 1812TIP3   OH229630   5.565   4.748  17.720  0.2419  0.3968  0.0890
 1812TIP3    H129631   5.505   4.746  17.646 -0.2656 -0.9732  0.4998
 1812TIP3    H229632   5.652   4.753  17.681 -0.0402  0.0631 -0.5976
 1813TIP3   OH229633   0.513   1.375  19.750 -0.4017  0.0629  0.1069
 1813TIP3    H129634   0.543   1.399  19.838  0.3672 -0.7865  0.1019
 1813TIP3    H229635   0.504   1.458  19.704  0.9697  0.4253  0.4426
 1814TIP3   OH229636   0.094   3.505  19.676  0.1455  0.0950  0.8450
 1814TIP3    H129637   0.112   3.539  19.588  0.2214  0.7920  1.1212
 1814TIP3    H229638   0.150   3.559  19.733 -0.8897  0.5407  1.4534
 1815TIP3   OH229639   0.590   2.003  17.725  0.2176  0.1234 -0.0783
 1815TIP3    H129640   0.633   2.039  17.648  0.4830  1.1680  0.5335
 1815TIP3    H229641   0.661   1.962  17.775  0.5565  1.7918  0.9006
 1816TIP3   OH229642   1.495   3.420  16.893  0.0112  0.3498 -0.1707
 1816TIP3    H129643   1.416   3.403  16.842 -0.7867  0.0243  1.1279
 1816TIP3    H229644   1.537   3.494  16.849 -0.9823  0.4809 -0.9251
 1817TIP3   OH229645   1.047   3.101  16.755  0.1250 -0.1438 -0.0187
 1817TIP3    H129646   1.088   3.121  16.671  0.3146 -2.0345 -0.4311
 1817TIP3    H229647   0.996   3.021  16.738 -1.3482  0.4811  1.2112
 1818TIP3   OH229648   0.605   0.748  17.226  0.1165 -0.5063  0.6351
 1818TIP3    H129649   0.642   0.830  17.193 -0.9760 -0.3821 -0.3827
 1818TIP3    H229650   0.667   0.718  17.292  2.1210 -0.4546 -1.1284
 1819TIP3   OH229651   5.776   1.242  17.167  0.2585 -0.6409  0.4538
 1819TIP3    H129652   5.855   1.295  17.182  0.6381 -1.1892  0.4147
 1819TIP3    H229653   5.716   1.301  17.123  0.9103 -0.4164 -0.1519
 1820TIP3   OH229654   6.472   6.109  18.073 -0.0718  0.7741 -0.8457
 1820TIP3    H129655   6.417   6.063  18.138  2.5157 -2.4590 -0.6773
 1820TIP3    H229656   6.482   6.045  18.002  1.2389  2.3314 -2.1183
 1821TIP3   OH229657   3.633   3.334  17.844 -0.3863 -0.1503  0.6089
 1821TIP3    H129658   3.657   3.382  17.923  0.6634 -0.8900  0.7774
 1821TIP3    H229659   3.714   3.288  17.819 -0.4833  0.6225 -1.3083
 1822TIP3   OH229660   1.645   4.629  19.272  0.0438  0.3632  0.2877
 1822TIP3    H129661   1.629   4.707  19.326 -0.4918 -1.2422  2.5750
 1822TIP3    H229662   1.726   4.591  19.307 -1.4648 -1.9050  1.5188
 1823TIP3   OH229663   3.725   2.813  18.263  0.3949 -0.4177 -0.3458
 1823TIP3    H129664   3.676   2.878  18.213  1.0576  0.4348  0.0794
 1823TIP3    H229665   3.658   2.766  18.313  0.0724  2.0763  1.7997
 1824TIP3   OH229666   5.564   1.059  19.573  0.2156  0.4576 -0.1322
 1824TIP3    H129667   5.575   1.127  19.507  0.4710  0.2405 -0.3163
 1824TIP3    H229668   5.638   1.000  19.559  2.2919  2.1842  2.5671
 1825TIP3   OH229669   2.833   4.743  20.144  0.5985 -0.1225 -0.3475
 1825TIP3    H129670   2.866   4.655  20.162  1.1823  0.0508 -0.5717
 1825TIP3    H229671   2.753   4.729  20.092  0.5133 -0.5268 -0.1072
 1826TIP3   OH229672   6.126   3.336  18.068 -0.4478  0.5275 -0.1346
 1826TIP3    H129673   6.179   3.414  18.048  0.3705  0.0159 -0.0215
 1826TIP3    H229674   6.191   3.266  18.079 -1.0958  0.0834  0.9388
 1827TIP3   OH229675   2.215   0.640  17.910  0.2486 -0.0066  0.1931
 1827TIP3    H129676   2.212   0.617  18.003 -0.5098  2.1446  0.7725
 1827TIP3    H229677   2.123   0.644  17.884  0.3958  0.8243 -0.2318
 1828TIP3   OH229678   1.747   2.807  19.977  0.2854 -0.1101 -0.4488
 1828TIP3    H129679   1.763   2.740  19.910 -0.4809  1.1423 -1.9613
 1828TIP3    H229680   1.737   2.888  19.928  3.7598  1.7073  1.4728
 1829TIP3   OH229681   5.705   4.169  19.803  0.3036 -0.3652  0.3920
 1829TIP3    H129682   5.778   4.146  19.860  1.5047  0.4747 -0.7376
 1829TIP3    H229683   5.740   4.159  19.714 -1.2398 -0.8161 -0.2046
 1830TIP3   OH229684   2.608   2.896  17.223 -0.1122 -0.0101 -0.5104
 1830TIP3    H129685   2.546   2.959  17.260  0.9682 -0.5361  2.4068
 1830TIP3    H229686   2.574   2.811  17.250  0.5702 -0.4600 -1.0454
 1831TIP3   OH229687   0.002   1.373  20.116 -0.3490  0.4376  0.5017
 1831TIP3    H129688   0.093   1.393  20.094 -0.5237  1.1466  0.4007
 1831TIP3    H229689  -0.007   1.279  20.098  0.7508  0.0459  1.8762
 1832TIP3   OH229690   3.756   4.827  16.444 -0.5685  0.4261 -0.6580
 1832TIP3    H129691   3.705   4.906  16.461 -0.6843  0.5395 -1.4624
 1832TIP3    H229692   3.763   4.783  16.529  0.5998  1.9395  0.0714
 1833TIP3   OH229693   0.731   2.686  16.575 -0.5597 -0.1921 -0.0590
 1833TIP3    H129694   0.689   2.628  16.512  0.0174 -0.2386 -0.4048
 1833TIP3    H229695   0.770   2.628  16.640  0.3115 -0.2154 -0.5900
 1834TIP3   OH229696   1.223   5.576  18.378  0.1495 -0.2200  0.0275
 1834TIP3    H129697   1.207   5.667  18.402 -1.5388 -0.2017 -1.0144
 1834TIP3    H229698   1.137   5.535  18.377  0.7494 -1.5467 -0.6283
 1835TIP3   OH229699   5.467   6.470  17.957  0.2421  0.7339  0.1846
 1835TIP3    H129700   5.522   6.392  17.959  1.7995  1.7836 -0.1271
 1835TIP3    H229701   5.497   6.522  18.032  1.3480  2.3934 -1.3410
 1836TIP3   OH229702   0.328   3.465  18.615 -0.1289  0.1908 -0.3238
 1836TIP3    H129703   0.367   3.392  18.663 -0.4763  1.0488  1.3696
 1836TIP3    H229704   0.328   3.437  18.524  0.9559 -1.3637  0.1064
 1837TIP3   OH229705   4.725   5.838  17.782  0.4221  0.1737  0.1932
 1837TIP3    H129706   4.726   5.749  17.747 -0.0117  0.5034 -0.6747
 1837TIP3    H229707   4.695   5.827  17.872 -1.3881 -0.3940 -0.4290
 1838TIP3   OH229708   2.490   3.934  19.562  0.4679  0.2120  0.0421
 1838TIP3    H129709   2.561   3.991  19.533 -0.8312  1.0706 -1.5808
 1838TIP3    H229710   2.411   3.972  19.525 -0.4221 -2.9078 -1.6117
 1839TIP3   OH229711   2.727   1.026  17.578  0.0025  0.6874 -0.1324
 1839TIP3    H129712   2.749   1.043  17.670  0.4019 -1.3145  0.1874
 1839TIP3    H229713   2.640   0.985  17.581  0.8635 -1.2940 -0.3939
 1840TIP3   OH229714   2.852   4.046  17.571 -0.1578 -0.5257 -0.2396
 1840TIP3    H129715   2.803   4.063  17.490  0.8530 -0.2415 -0.8179
 1840TIP3    H229716   2.832   4.122  17.626  0.4011  0.0955 -0.8628
 1841TIP3   OH229717   3.880   2.924  16.788  0.1974 -0.4422 -0.5485
 1841TIP3    H129718   3.963   2.876  16.781 -0.6961 -2.1837  0.1055
 1841TIP3    H229719   3.858   2.948  16.698  0.4043 -1.7719 -0.9716
 1842TIP3   OH229720   3.001   5.394  17.237  0.2756 -0.3743 -0.1754
 1842TIP3    H129721   2.973   5.480  17.206  0.7299 -0.1815 -0.0571
 1842TIP3    H229722   3.061   5.362  17.170  0.8748 -0.1681  0.2476
 1843TIP3   OH229723   1.174   4.668  16.796  0.3107 -0.1391 -0.0670
 1843TIP3    H129724   1.243   4.695  16.857  3.0074 -1.3777 -2.3151
 1843TIP3    H229725   1.179   4.732  16.725 -1.6234  0.3218  0.1662
 1844TIP3   OH229726   2.921   0.228  17.732 -0.2774 -0.2554  0.7733
 1844TIP3    H129727   2.887   0.173  17.662 -1.8865 -1.6952  2.5533
 1844TIP3    H229728   2.885   0.190  17.812  1.0292  1.6166  2.3619
 1845TIP3   OH229729   4.789   2.171  19.878  0.0106  0.0904  0.0101
 1845TIP3    H129730   4.701   2.188  19.912 -0.5910 -1.9812 -0.4155
 1845TIP3    H229731   4.793   2.219  19.796 -1.5724 -1.5427 -1.0809
 1846TIP3   OH229732   3.515   6.146  18.312  0.7699 -0.0784 -0.2448
 1846TIP3    H129733   3.563   6.203  18.252  1.6072  0.6312  1.0558
 1846TIP3    H229734   3.423   6.165  18.294  0.9867 -0.0163 -1.4098
 1847TIP3   OH229735   4.064   3.959  16.623 -0.5859 -0.2739 -0.2963
 1847TIP3    H129736   4.119   3.886  16.594  0.6761 -0.9897  3.4385
 1847TIP3    H229737   3.993   3.962  16.558  2.2199 -1.1450 -3.7241
 1848TIP3   OH229738   0.477   4.828  18.165 -1.0669 -0.6323  0.1903
 1848TIP3    H129739   0.396   4.864  18.201 -1.0260  2.3482 -2.2974
 1848TIP3    H229740   0.545   4.858  18.224 -1.4439  0.1031  0.2628
 1849TIP3   OH229741   2.412   0.622  17.692  0.4907 -0.2118 -0.3901
 1849TIP3    H129742   2.343   0.608  17.757 -0.0426  1.1769 -0.6286
 1849TIP3    H229743   2.435   0.534  17.663 -0.2038 -0.7826  0.6939
 1850TIP3   OH229744   3.422   2.760  19.976 -0.2820  0.3015 -0.4759
 1850TIP3    H129745   3.363   2.685  19.981  1.3629 -0.9884  2.0059
 1850TIP3    H229746   3.509   2.722  19.968  0.6255  1.8737  0.9883
 1851TIP3   OH229747   4.556   0.984  18.621 -0.0633  0.3041 -0.1810
 1851TIP3    H129748   4.590   0.907  18.575  0.7678  1.0432 -0.8439
 1851TIP3    H229749   4.593   1.058  18.574 -1.5246  1.1422 -0.0717
 1852TIP3   OH229750   1.430   0.258  19.803 -0.1843 -0.0719  0.3459
 1852TIP3    H129751   1.448   0.176  19.848  0.0685 -0.2650 -0.1043
 1852TIP3    H229752   1.397   0.232  19.717  0.5528  0.2979 -0.0582
 1853TIP3   OH229753   0.294   0.979  19.211  0.0378  0.2158 -0.3368
 1853TIP3    H129754   0.357   0.917  19.174 -0.8858 -2.0637  1.6177
 1853TIP3    H229755   0.210   0.936  19.200 -0.6947  1.3279  0.7204
 1854TIP3   OH229756   5.697   5.455  17.786 -0.8434  0.4527  0.6978
 1854TIP3    H129757   5.641   5.420  17.854 -0.5090 -0.5287  0.4808
 1854TIP3    H229758   5.704   5.385  17.722  0.6985  0.5112  0.7677
 1855TIP3   OH229759   1.393   5.784  17.630  0.4918  0.1580 -0.2592
 1855TIP3    H129760   1.324   5.748  17.575  0.3120  0.5148 -0.2717
 1855TIP3    H229761   1.372   5.754  17.718  1.0742 -0.8542 -0.4564
 1856TIP3   OH229762   2.129   6.638  18.107 -0.0840  0.0087  0.4692
 1856TIP3    H129763   2.192   6.662  18.175  1.1721 -0.9412 -0.3253
 1856TIP3    H229764   2.176   6.578  18.050 -1.2165  0.4950 -1.0558
 1857TIP3   OH229765   1.475   4.954  18.116 -0.2106 -0.3193  0.1054
 1857TIP3    H129766   1.410   4.946  18.186 -0.5654 -0.8031 -0.2733
 1857TIP3    H229767   1.557   4.923  18.156 -0.5957 -1.4381  0.0609
 1858TIP3   OH229768   1.098   4.045  19.078  0.0241  0.2003 -0.0367
 1858TIP3    H129769   1.015   4.046  19.029  0.2211  1.3194 -0.3779
 1858TIP3    H229770   1.111   4.136  19.104  1.2310  0.0640 -0.1170
 1859TIP3   OH229771   6.265   6.636  20.045 -0.3924 -0.0689 -0.4098
 1859TIP3    H129772   6.182   6.590  20.036  0.8906 -2.6687  0.2651
 1859TIP3    H229773   6.332   6.571  20.024  1.6512  0.6790  3.0116
 1860TIP3   OH229774   5.545   2.389  19.370  0.0147  0.2679 -0.3583
 1860TIP3    H129775   5.599   2.422  19.443  1.6305  0.9325 -1.7829
 1860TIP3    H229776   5.466   2.357  19.412  0.2357  1.9863  1.5706
 1861TIP3   OH229777   0.865   5.911  17.563  0.9137 -0.9399 -0.0681
 1861TIP3    H129778   0.840   5.830  17.606  0.3905 -0.4746  0.5161
 1861TIP3    H229779   0.937   5.945  17.616 -1.5338  1.0822  2.2311
 1862TIP3   OH229780   5.259   2.064  20.165 -0.1378 -0.6818 -0.4253
 1862TIP3    H129781   5.350   2.039  20.181 -0.3646 -1.2007  0.0810
 1862TIP3    H229782   5.217   1.984  20.134 -0.5203 -0.5484 -0.2607
 1863TIP3   OH229783   1.153   5.692  18.729 -0.0535  0.1974 -0.0138
 1863TIP3    H129784   1.202   5.774  18.719 -0.2359  0.2231 -0.7407
 1863TIP3    H229785   1.215   5.625  18.702  0.2409  0.0452  0.9942
 1864TIP3   OH229786   0.765   0.655  19.871 -0.2476  0.0074 -0.0982
 1864TIP3    H129787   0.770   0.723  19.937 -1.7532  0.9682 -0.9243
 1864TIP3    H229788   0.854   0.649  19.836  0.2485  0.4388  1.0494
 1865TIP3   OH229789   0.576   5.869  17.806 -0.9856 -0.0958 -0.2405
 1865TIP3    H129790   0.565   5.964  17.793 -0.9743 -0.2736 -1.6791
 1865TIP3    H229791   0.494   5.831  17.773 -0.7855 -0.6264 -0.1309
 1866TIP3   OH229792   5.016   0.771  17.388 -0.7357  0.0068  0.0925
 1866TIP3    H129793   5.024   0.740  17.478  0.6770  1.2194  0.4212
 1866TIP3    H229794   4.922   0.786  17.376 -0.9650 -0.3695  1.2819
 1867TIP3   OH229795   4.602   2.575  18.649 -0.1693  0.3744  0.1245
 1867TIP3    H129796   4.586   2.482  18.666  2.7088  0.0023  1.3486
 1867TIP3    H229797   4.548   2.620  18.714 -0.0734 -0.5191  0.8536
 1868TIP3   OH229798   1.127   5.645  19.036  0.1564  0.4275  0.1974
 1868TIP3    H129799   1.162   5.684  18.955  0.4122 -0.5831 -0.1944
 1868TIP3    H229800   1.183   5.569  19.052 -1.7631 -1.1836 -0.3874
 1869TIP3   OH229801   1.348   5.931  19.581 -0.0613  0.0946  0.0700
 1869TIP3    H129802   1.437   5.945  19.550  0.6011 -1.4492  1.1452
 1869TIP3    H229803   1.315   6.019  19.599  1.0703  0.7200 -0.7545
 1870TIP3   OH229804   6.190   4.074  18.836 -0.2564  0.3113  0.3517
 1870TIP3    H129805   6.115   4.018  18.814 -0.2237  0.6030 -0.5339
 1870TIP3    H229806   6.256   4.051  18.771  1.2218 -1.4542  2.3573
 1871TIP3   OH229807   6.229   4.676  19.141 -0.0856  0.2234  0.0364
 1871TIP3    H129808   6.267   4.610  19.198  0.8889 -0.9478 -1.8643
 1871TIP3    H229809   6.275   4.757  19.163  1.0843 -0.4462  0.1154
 1872TIP3   OH229810   4.809   6.193  19.680  0.0919  0.8082  0.4431
 1872TIP3    H129811   4.743   6.253  19.644  0.7383  0.8803 -0.6814
 1872TIP3    H229812   4.777   6.172  19.767 -1.3007  1.0275  0.0122
 1873TIP3   OH229813   3.433   2.262  19.114 -0.5018 -0.0280  0.0705
 1873TIP3    H129814   3.445   2.203  19.039  1.0907 -1.0785  1.1087
 1873TIP3    H229815   3.372   2.216  19.171 -1.3414  0.5641 -0.3154
 1874TIP3   OH229816   1.302   1.564  18.448  0.4629 -0.3970  0.5478
 1874TIP3    H129817   1.339   1.480  18.475 -3.7645 -2.9376 -0.6368
 1874TIP3    H229818   1.290   1.556  18.353 -0.7221  1.2535  0.5100
 1875TIP3   OH229819   0.076   6.335  17.820 -0.2086 -0.1566 -0.3913
 1875TIP3    H129820   0.103   6.247  17.793  0.8380  0.1410 -0.3463
 1875TIP3    H229821   0.095   6.338  17.914 -1.4058 -0.2898 -0.1209
 1876TIP3   OH229822   2.048   3.957  17.281  0.0983 -0.5740 -0.2635
 1876TIP3    H129823   1.998   3.913  17.351  0.1683 -0.6233 -0.2441
 1876TIP3    H229824   2.048   3.894  17.209  0.7462 -0.8719 -0.0114
 1877TIP3   OH229825   0.998   4.396  18.936 -0.7472 -0.0584  0.1954
 1877TIP3    H129826   1.027   4.422  18.848  0.0475  1.1407  0.7832
 1877TIP3    H229827   1.077   4.359  18.976 -1.6050 -2.5903 -0.2675
 1878TIP3   OH229828   3.385   1.961  17.324 -0.1397  0.3589 -0.4342
 1878TIP3    H129829   3.412   2.032  17.266 -0.7352  0.5460 -0.4889
 1878TIP3    H229830   3.467   1.916  17.347  0.1559  0.5970 -1.0049
 1879TIP3   OH229831   4.458   1.597  18.328 -0.0555 -0.2096  0.3250
 1879TIP3    H129832   4.437   1.643  18.247 -0.0373  1.3193  1.1686
 1879TIP3    H229833   4.386   1.618  18.388  0.5414 -0.3154  1.1013
 1880TIP3   OH229834   6.342   4.101  19.450 -0.2086  0.1952 -0.2036
 1880TIP3    H129835   6.373   4.011  19.439 -0.0380  0.2947 -0.5364
 1880TIP3    H229836   6.286   4.116  19.375 -0.1614  0.3997 -0.1967
 1881TIP3   OH229837   0.073   5.235  17.127 -0.1543 -0.4812  0.7551
 1881TIP3    H129838   0.037   5.320  17.104  0.5678 -0.5511 -0.7241
 1881TIP3    H229839   0.148   5.255  17.184 -0.4768 -0.1831  1.0779
 1882TIP3   OH229840   0.729   2.353  18.580 -0.1285 -0.1015  0.5063
 1882TIP3    H129841   0.699   2.318  18.496 -0.7019 -0.2564  0.7708
 1882TIP3    H229842   0.805   2.407  18.558  0.5813 -1.2665  0.0702
 1883TIP3   OH229843   1.250   1.837  16.461  0.5067  0.1310  0.2276
 1883TIP3    H129844   1.269   1.889  16.383  0.0214 -0.4614 -0.2996
 1883TIP3    H229845   1.159   1.857  16.481  0.4241 -0.2516  0.2296
 1884TIP3   OH229846   3.538   3.700  17.823 -0.4435 -0.1010 -0.3133
 1884TIP3    H129847   3.538   3.781  17.873 -1.3191 -0.9092  1.0496
 1884TIP3    H229848   3.545   3.630  17.889  2.5194 -1.1470 -1.5325
 1885TIP3   OH229849   1.630   3.719  17.534  0.4543 -0.2385 -0.0573
 1885TIP3    H129850   1.605   3.741  17.624 -0.4222 -4.0458  0.8008
 1885TIP3    H229851   1.571   3.771  17.480  1.4019  2.6204  1.4039
 1886TIP3   OH229852   2.307   5.534  17.200  0.5261  0.0374  0.0346
 1886TIP3    H129853   2.283   5.500  17.113  0.6186 -1.9368  0.7267
 1886TIP3    H229854   2.307   5.629  17.189  0.3620 -0.1490 -2.0783
 1887TIP3   OH229855   5.708   5.767  18.334  0.2103  0.2655 -0.4628
 1887TIP3    H129856   5.672   5.701  18.275  0.4099  0.1359 -0.4426
 1887TIP3    H229857   5.745   5.716  18.407  1.8552  0.2832 -1.2413
 1888TIP3   OH229858   3.250   5.480  20.070 -0.1337  0.2357  0.1938
 1888TIP3    H129859   3.254   5.542  19.997 -1.8186  0.5745  0.3399
 1888TIP3    H229860   3.256   5.394  20.029  1.8150  0.4564 -0.0475
 1889TIP3   OH229861   0.015   1.306  18.081 -0.1355  0.3983  0.0860
 1889TIP3    H129862  -0.034   1.301  18.164  0.2514 -4.8820  0.3118
 1889TIP3    H229863   0.106   1.321  18.108 -0.3009  0.9014  0.3891
 1890TIP3   OH229864   5.852   1.630  19.124 -0.0893  0.6522  0.3868
 1890TIP3    H129865   5.767   1.590  19.107  0.1846  0.2088  0.0570
 1890TIP3    H229866   5.852   1.710  19.072 -0.8060  1.3179  1.3732
 1891TIP3   OH229867   3.484   0.390  17.736  0.0143 -0.1684  0.0775
 1891TIP3    H129868   3.552   0.455  17.720 -0.2443 -0.0069 -0.4158
 1891TIP3    H229869   3.403   0.433  17.707 -0.2709 -0.4155  0.5036
 1892TIP3   OH229870   0.536   5.879  19.080  0.4503  0.6985  0.4627
 1892TIP3    H129871   0.509   5.953  19.135  1.8279  1.8399 -0.3340
 1892TIP3    H229872   0.614   5.844  19.123  0.1951  0.1244  0.4649
 1893TIP3   OH229873   0.371   4.452  17.314 -0.3317 -0.4114  0.2001
 1893TIP3    H129874   0.283   4.474  17.283 -0.6244 -1.6202  0.0922
 1893TIP3    H229875   0.394   4.373  17.265  0.6123 -0.3970  0.5969
 1894TIP3   OH229876   0.291   2.186  17.382  0.3650 -0.1042  0.4753
 1894TIP3    H129877   0.202   2.157  17.361  0.5279 -0.1249 -0.1831
 1894TIP3    H229878   0.301   2.165  17.475  0.2502 -1.5746  0.1742
 1895TIP3   OH229879   6.630   6.565  16.910 -0.0037 -0.1923  0.3153
 1895TIP3    H129880   6.559   6.619  16.874 -0.6387 -0.1365  1.5748
 1895TIP3    H229881   6.703   6.578  16.850 -0.7156  0.6573 -0.3952
 1896TIP3   OH229882   3.844   0.525  18.020  0.6807  0.5118 -0.1903
 1896TIP3    H129883   3.881   0.549  17.935  0.1315  0.5426 -0.4208
 1896TIP3    H229884   3.756   0.562  18.020  1.0583  1.4577  0.8288
 1897TIP3   OH229885   2.394   5.740  18.745 -0.2514 -0.1473 -0.3716
 1897TIP3    H129886   2.409   5.745  18.651  0.4040 -2.7114 -0.4921
 1897TIP3    H229887   2.300   5.729  18.754 -0.0984 -2.4155 -0.9732
 1898TIP3   OH229888   4.571   2.973  16.877 -0.4666 -0.1939 -0.2826
 1898TIP3    H129889   4.509   2.924  16.932  0.4053 -0.6111  0.3646
 1898TIP3    H229890   4.541   3.064  16.882 -1.4414 -0.4924 -0.5671
 1899TIP3   OH229891   0.032   0.252  17.582  0.0628 -0.0183 -0.1200
 1899TIP3    H129892   0.108   0.195  17.569  0.6316  0.4114  1.1821
 1899TIP3    H229893   0.049   0.328  17.526  0.9668  0.3955  0.6707
 1900TIP3   OH229894   4.944   4.725  20.049  0.1070 -0.1855  0.0717
 1900TIP3    H129895   4.933   4.655  20.114  0.4413 -0.2417  0.0746
 1900TIP3    H229896   4.937   4.806  20.100 -0.1289 -0.2198  0.0944
 1901TIP3   OH229897   5.069   4.144  18.880 -0.3503  0.1177  0.5909
 1901TIP3    H129898   5.156   4.113  18.905 -0.9690 -0.7748  1.7714
 1901TIP3    H229899   5.059   4.118  18.789  0.8887  0.8969  0.2016
 1902TIP3   OH229900   5.539   3.354  18.487  0.4919 -0.6527  0.2208
 1902TIP3    H129901   5.632   3.370  18.505  0.7482  0.0613 -1.4854
 1902TIP3    H229902   5.539   3.272  18.437  0.1714 -0.8488  0.5476
 1903TIP3   OH229903   6.037   4.637  17.355  0.2849 -0.4660 -0.7747
 1903TIP3    H129904   6.017   4.615  17.446 -2.7412 -0.6911 -1.4123
 1903TIP3    H229905   5.958   4.678  17.322  1.6242  0.4279 -3.0973
 1904TIP3   OH229906   3.970   1.858  18.496  0.2332  0.0456  0.5842
 1904TIP3    H129907   3.954   1.764  18.485  0.0980  0.1613 -0.3195
 1904TIP3    H229908   3.895   1.900  18.453 -1.1328  0.5925  3.2768
 1905TIP3   OH229909   2.981   2.610  18.258  0.3869 -0.0568 -0.1296
 1905TIP3    H129910   3.040   2.579  18.190  0.2231 -1.0482  0.1639
 1905TIP3    H229911   3.001   2.556  18.335 -1.7907 -1.4192 -0.4050
 1906TIP3   OH229912   4.487   1.706  18.748  0.1273 -0.0101 -0.2512
 1906TIP3    H129913   4.558   1.697  18.812  0.0225  1.3644  0.0876
 1906TIP3    H229914   4.433   1.777  18.782 -1.8509 -1.4848 -0.1173
 1907TIP3   OH229915   4.701   2.979  18.315  0.2639 -0.0271 -0.3962
 1907TIP3    H129916   4.613   3.010  18.293  0.1385 -0.1363 -0.0610
 1907TIP3    H229917   4.687   2.888  18.342  0.4623 -0.0004 -0.2076
 1908TIP3   OH229918   2.543   4.324  17.243 -0.2990  0.1443 -0.1045
 1908TIP3    H129919   2.451   4.342  17.228 -1.0513 -1.6992  1.8047
 1908TIP3    H229920   2.554   4.332  17.338  1.7148  1.1089 -0.3618
 1909TIP3   OH229921   5.961   0.412  19.912 -0.6860 -0.0493  0.1924
 1909TIP3    H129922   5.876   0.430  19.953 -0.2028  0.5306  0.9692
 1909TIP3    H229923   6.025   0.430  19.981  0.0925 -0.1253 -0.4961
 1910TIP3   OH229924   1.082   3.805  18.008 -0.4809  0.1311  0.4404
 1910TIP3    H129925   1.047   3.719  17.984  0.9361 -0.5494  0.6983
 1910TIP3    H229926   1.091   3.802  18.103  0.6728  0.1159  0.3386
 1911TIP3   OH229927   5.509   5.746  19.979 -0.5039 -0.0175 -0.0329
 1911TIP3    H129928   5.482   5.711  19.894 -1.0936 -0.3048  0.2680
 1911TIP3    H229929   5.602   5.721  19.986 -0.3877  0.1956 -0.6810
 1912TIP3   OH229930   4.424   3.322  17.465 -0.0596 -0.3452 -0.1503
 1912TIP3    H129931   4.397   3.413  17.479  1.3420 -0.2639  3.0595
 1912TIP3    H229932   4.355   3.271  17.507  0.8537 -0.5116  1.2187
 1913TIP3   OH229933   2.200   2.782  17.999  0.3564 -0.3004  0.0218
 1913TIP3    H129934   2.158   2.847  18.055  1.2925  0.0000  0.3862
 1913TIP3    H229935   2.291   2.811  17.992  0.4538 -0.8068 -0.9569
 1914TIP3   OH229936   1.553   1.346  19.104  0.1691 -0.1485  0.0494
 1914TIP3    H129937   1.505   1.420  19.066 -0.4840  0.6590  2.2717
 1914TIP3    H229938   1.645   1.372  19.101  0.0337  0.3220 -0.1029
 1915TIP3   OH229939   5.491   5.600  18.676  0.1838 -0.4727 -0.2808
 1915TIP3    H129940   5.464   5.692  18.676 -0.4796 -0.6459 -1.1852
 1915TIP3    H229941   5.580   5.600  18.711 -0.7588  0.1959  2.3320
 1916TIP3   OH229942   1.489   4.033  18.288  0.2744 -0.8444 -0.2703
 1916TIP3    H129943   1.395   4.029  18.308 -0.0411  0.3510 -1.3268
 1916TIP3    H229944   1.529   4.065  18.368 -0.1343 -1.8905  0.3735
 1917TIP3   OH229945   0.866   4.608  18.220 -0.0591 -0.0900 -0.0615
 1917TIP3    H129946   0.773   4.628  18.230 -0.0399 -0.1848  0.3272
 1917TIP3    H229947   0.885   4.544  18.289  0.9378  2.0545  1.8110
 1918TIP3   OH229948   1.527   1.956  18.448 -0.0550 -0.0608 -0.2408
 1918TIP3    H129949   1.490   1.973  18.361 -2.1931 -0.0137  0.6173
 1918TIP3    H229950   1.592   2.025  18.460  1.1422 -0.7467 -2.2346
 1919TIP3   OH229951   2.701   4.080  19.495 -0.0241 -0.4459  0.3116
 1919TIP3    H129952   2.721   4.162  19.541  0.5277 -1.8957  2.8551
 1919TIP3    H229953   2.759   4.081  19.418 -0.0608  1.5379  0.2589
 1920TIP3   OH229954   0.216   5.769  18.366 -0.4487  0.0884 -0.4614
 1920TIP3    H129955   0.253   5.747  18.281  0.5055  0.9862 -0.2924
 1920TIP3    H229956   0.288   5.758  18.428 -1.2597 -1.0653  0.3370
 1921TIP3   OH229957   4.896   1.820  17.353 -0.0677  0.6714 -0.6754
 1921TIP3    H129958   4.866   1.736  17.388  0.6355 -0.0293 -1.7045
 1921TIP3    H229959   4.822   1.879  17.368 -0.3836  0.0153  0.5333
 1922TIP3   OH229960   2.192   3.765  19.555 -0.1692  0.0567  0.2453
 1922TIP3    H129961   2.111   3.810  19.577  0.1595  0.5207  0.5343
 1922TIP3    H229962   2.203   3.778  19.461 -0.2283  0.3260  0.2765
 1923TIP3   OH229963   5.902   5.291  17.250  0.0536  0.3537 -0.4845
 1923TIP3    H129964   5.939   5.353  17.187 -0.1181  0.4217 -0.5215
 1923TIP3    H229965   5.824   5.336  17.284 -0.3713 -0.0614 -0.9004
 1924TIP3   OH229966   3.796   6.624  17.829  0.4275  0.8087  0.1300
 1924TIP3    H129967   3.759   6.655  17.912  0.6391 -2.6986  1.7469
 1924TIP3    H229968   3.881   6.588  17.853  1.5115  1.7293 -2.1043
 1925TIP3   OH229969   1.529   6.045  18.480 -0.1413 -0.4884  0.1126
 1925TIP3    H129970   1.467   6.018  18.413  0.0600  2.7855 -1.6251
 1925TIP3    H229971   1.496   6.129  18.512  3.0312  1.1759 -0.5479
 1926TIP3   OH229972   4.986   2.945  16.853  0.5462 -0.6632  0.2612
 1926TIP3    H129973   4.996   2.994  16.771  1.1588 -0.4854  0.4410
 1926TIP3    H229974   4.965   3.011  16.919 -1.5790 -0.9676 -0.0245
 1927TIP3   OH229975   6.005   3.693  19.287 -0.3698 -0.1191 -0.1756
 1927TIP3    H129976   6.051   3.758  19.234 -0.3744 -0.4880 -0.6394
 1927TIP3    H229977   5.940   3.655  19.227 -0.5126 -0.3962  0.1534
 1928TIP3   OH229978   5.103   4.616  19.831 -0.2019 -0.3200  0.0629
 1928TIP3    H129979   5.127   4.537  19.879  1.1646  0.3958  0.6034
 1928TIP3    H229980   5.063   4.673  19.897  1.1300  0.4307  0.2416
 1929TIP3   OH229981   1.415   5.572  19.633  0.4967 -0.2793 -0.2129
 1929TIP3    H129982   1.330   5.595  19.668  0.5472 -0.4458  0.0185
 1929TIP3    H229983   1.476   5.631  19.677  0.5526 -0.4455 -0.0684
 1930TIP3   OH229984   5.928   1.851  18.003 -0.4432  0.1634 -0.0192
 1930TIP3    H129985   5.995   1.857  17.935  0.9032 -0.3098  1.2019
 1930TIP3    H229986   5.898   1.761  18.000 -0.8574  0.3148 -0.4146
 1931TIP3   OH229987   2.772   3.443  19.175  0.2077 -0.3808  0.5270
 1931TIP3    H129988   2.706   3.502  19.137  0.3637 -0.9045 -0.5817
 1931TIP3    H229989   2.797   3.385  19.103  1.3138 -0.6989  1.1452
 1932TIP3   OH229990   5.281   3.725  17.572  0.2229 -0.8909  0.3252
 1932TIP3    H129991   5.272   3.783  17.647  0.1018 -0.3276 -0.1145
 1932TIP3    H229992   5.258   3.780  17.497  0.2059 -1.4831 -0.1060
 1933TIP3   OH229993   1.925   2.017  17.109 -0.2303  0.1306  0.1393
 1933TIP3    H129994   1.905   1.970  17.190  1.0767  1.8486  1.5500
 1933TIP3    H229995   1.988   1.961  17.063  0.4455 -0.0379  1.2367
 1934TIP3   OH229996   4.284   0.207  20.013  0.4323  1.2402 -0.2675
 1934TIP3    H129997   4.275   0.112  20.003  1.8719  1.0980 -0.3935
 1934TIP3    H229998   4.297   0.239  19.924  0.8093  1.4601 -0.1317
 1935TIP3   OH229999   0.775   4.413  16.274 -0.6142  0.1507 -0.2290
 1935TIP3    H130000   0.682   4.416  16.296 -0.8591  1.6492 -1.2572
 1935TIP3    H230001   0.784   4.336  16.218 -0.3665 -2.4807  3.1086
 1936TIP3   OH230002   2.455   4.347  19.334  0.2757 -0.5249 -0.1257
 1936TIP3    H130003   2.501   4.323  19.253 -0.2435  1.6061 -1.1399
 1936TIP3    H230004   2.499   4.427  19.363 -1.0210  0.0092  0.4148
 1937TIP3   OH230005   2.712   3.342  19.739 -0.0707  0.3358 -0.5685
 1937TIP3    H130006   2.723   3.289  19.661  0.4920  0.2792 -0.4551
 1937TIP3    H230007   2.767   3.300  19.805  1.1654  1.5873 -0.7513
 1938TIP3   OH230008   4.042   5.111  17.471  0.3681 -0.3031 -0.0650
 1938TIP3    H130009   3.971   5.172  17.451 -0.2107 -0.8390  0.3264
 1938TIP3    H230010   4.000   5.039  17.517  1.2718 -0.3121  0.7921
 1939TIP3   OH230011   6.645   2.231  17.789 -0.2578 -0.6541 -0.2733
 1939TIP3    H130012   6.715   2.170  17.767  0.5770 -0.0623  0.6955
 1939TIP3    H230013   6.669   2.266  17.874 -0.1266  1.8596 -1.2655
 1940TIP3   OH230014   4.905   2.902  17.209 -0.8624 -0.0041 -0.0917
 1940TIP3    H130015   4.884   2.981  17.159 -0.9263 -1.2987 -2.2584
 1940TIP3    H230016   4.839   2.839  17.180 -0.2630 -1.1093  0.9024
 1941TIP3   OH230017   1.358   5.320  18.360  0.3055  0.4663 -0.1958
 1941TIP3    H130018   1.303   5.397  18.374  0.7270  0.9255 -1.0193
 1941TIP3    H230019   1.338   5.291  18.272  0.6976  0.0767 -0.1627
 1942TIP3   OH230020   1.995   2.067  18.482 -0.1135  0.6046  0.2686
 1942TIP3    H130021   2.019   1.975  18.467  0.8947  1.0453 -0.9521
 1942TIP3    H230022   1.937   2.088  18.408 -0.5467  0.8868  0.6879
 1943TIP3   OH230023   4.378   2.312  18.339  0.1128  0.5805 -0.2655
 1943TIP3    H130024   4.416   2.314  18.427 -2.1477  0.8647  0.7680
 1943TIP3    H230025   4.421   2.383  18.292  0.6399  1.0808  0.9338
 1944TIP3   OH230026   6.430   6.033  18.541 -0.2072  0.0241  0.0969
 1944TIP3    H130027   6.377   6.113  18.546  0.6298  0.8983 -2.7979
 1944TIP3    H230028   6.366   5.962  18.548 -1.2261  0.9789  0.7949
 1945TIP3   OH230029   0.303   2.081  18.970 -0.0253  0.0630  0.6400
 1945TIP3    H130030   0.289   2.138  18.895  2.0812  0.9336  0.8308
 1945TIP3    H230031   0.379   2.028  18.945 -0.6995 -1.2687  1.2810
 1946TIP3   OH230032   6.316   2.309  20.278 -0.2149  0.0594  0.4309
 1946TIP3    H130033   6.350   2.324  20.190  0.6652 -0.2365  0.7127
 1946TIP3    H230034   6.371   2.362  20.335  1.0520 -1.8466  1.1041
 1947TIP3   OH230035   1.435   5.661  16.787 -0.3680  0.2146 -0.1613
 1947TIP3    H130036   1.424   5.613  16.706  0.7841 -0.9235  0.3264
 1947TIP3    H230037   1.380   5.614  16.850 -1.5676  1.3228 -0.3350
 1948TIP3   OH230038   5.271   5.644  17.878  0.2052  0.3363 -0.1771
 1948TIP3    H130039   5.277   5.591  17.799 -0.0663 -0.4876  0.3437
 1948TIP3    H230040   5.193   5.698  17.865  0.1502  0.1860 -0.4603
 1949TIP3   OH230041   4.374   2.597  17.398 -0.2277  0.3393  0.5315
 1949TIP3    H130042   4.297   2.652  17.385 -0.8266 -0.6038 -0.0241
 1949TIP3    H230043   4.374   2.537  17.323  2.0681  1.4792 -0.4767
 1950TIP3   OH230044   0.990   3.579  18.543  0.1166 -0.4916 -0.0787
 1950TIP3    H130045   1.083   3.602  18.554  0.0260 -0.4056  0.5957
 1950TIP3    H230046   0.991   3.488  18.513  0.4230 -0.4613 -0.1661
 1951TIP3   OH230047   0.491   2.253  18.761 -0.2629 -0.1488 -0.6287
 1951TIP3    H130048   0.578   2.273  18.726 -0.9621 -0.0942 -2.4405
 1951TIP3    H230049   0.435   2.324  18.728 -1.2691 -0.9443 -0.6698
 1952TIP3   OH230050   5.890   0.666  18.002  0.4801 -0.4781  0.5613
 1952TIP3    H130051   5.971   0.615  17.996 -0.9725 -2.8111 -1.9276
 1952TIP3    H230052   5.830   0.611  18.052 -0.5596 -0.4320 -0.5693
 1953TIP3   OH230053   5.780   1.553  17.060 -0.3645  0.1193 -0.2159
 1953TIP3    H130054   5.784   1.628  17.000  0.1322  1.4692  1.4391
 1953TIP3    H230055   5.838   1.487  17.019  0.5656  1.2829 -0.8494
 1954TIP3   OH230056   6.113   0.168  20.257 -0.6870 -0.3973  0.0301
 1954TIP3    H130057   6.032   0.213  20.234  0.8301  3.1206  0.8990
 1954TIP3    H230058   6.101   0.142  20.349 -1.1146 -0.6799 -0.1017
 1955TIP3   OH230059   3.726   2.395  16.982 -0.2791 -0.3172 -0.4604
 1955TIP3    H130060   3.689   2.456  16.918 -0.9841 -0.3047 -0.0493
 1955TIP3    H230061   3.714   2.438  17.066  0.9611 -0.1818 -0.3372
 1956TIP3   OH230062   2.396   2.861  19.922 -0.1060  0.1561 -0.5992
 1956TIP3    H130063   2.449   2.934  19.956  0.2425  1.6903 -4.0174
 1956TIP3    H230064   2.459   2.791  19.905 -0.1918 -0.3765  1.0826
 1957TIP3   OH230065   1.229   1.130  20.169 -0.1873 -0.0327  0.7377
 1957TIP3    H130066   1.291   1.133  20.242  1.0453  0.1574 -0.2950
 1957TIP3    H230067   1.197   1.220  20.161  0.1858  0.0920  0.6228
 1958TIP3   OH230068   3.251   1.184  17.388  0.6491 -0.3995  0.4362
 1958TIP3    H130069   3.275   1.164  17.298 -0.6909  0.3769 -0.1179
 1958TIP3    H230070   3.286   1.111  17.439  2.0298 -0.5013 -0.6090
 1959TIP3   OH230071   4.354   6.649  17.848  0.4804  0.2838  0.2230
 1959TIP3    H130072   4.261   6.648  17.826  0.9826 -0.5905 -2.1611
 1959TIP3    H230073   4.386   6.733  17.815  0.9471 -0.3875 -1.1042
 1960TIP3   OH230074   6.013   2.795  18.044  0.4163 -0.0847 -0.2870
 1960TIP3    H130075   5.929   2.810  18.000 -0.0305 -1.2103  0.1312
 1960TIP3    H230076   6.049   2.882  18.058 -0.5070  0.3960 -0.8201
 1961TIP3   OH230077   1.297   5.457  17.443  0.1716 -0.0766 -0.2000
 1961TIP3    H130078   1.216   5.411  17.421  0.9595 -2.1213  0.9012
 1961TIP3    H230079   1.270   5.547  17.459 -1.7004 -0.4624 -0.9354
 1962TIP3   OH230080   0.937   1.215  19.185  0.3023  0.1597  0.3915
 1962TIP3    H130081   0.980   1.294  19.216  0.3175 -0.4985  2.1383
 1962TIP3    H230082   0.881   1.188  19.258  0.0950 -1.2963 -0.2770
 1963TIP3   OH230083   4.003   3.751  18.180  0.0109  0.7655  0.0461
 1963TIP3    H130084   4.065   3.757  18.252  0.7530  3.8689 -0.7401
 1963TIP3    H230085   4.057   3.759  18.101 -0.8270 -2.1301 -0.9751
 1964TIP3   OH230086   4.167   0.051  29.539  0.1633 -0.2311 -0.7096
 1964TIP3    H130087   4.161   0.145  29.558  0.5808 -0.7173  2.3486
 1964TIP3    H230088   4.076   0.022  29.532 -0.0208  0.1028  0.1738
 1965TIP3   OH230089   4.396   4.466  18.997 -0.2212 -0.0442 -0.5339
 1965TIP3    H130090   4.486   4.490  18.977 -0.0168 -1.3758 -1.3092
 1965TIP3    H230091   4.381   4.502  19.084  0.9092  0.5619 -0.5648
 1966TIP3   OH230092   6.464   1.434  16.931  0.0945 -0.4043 -0.0682
 1966TIP3    H130093   6.407   1.357  16.939 -0.4569 -0.1613 -1.3683
 1966TIP3    H230094   6.412   1.497  16.882 -0.6041  2.0135  3.4254
 1967TIP3   OH230095   3.334   3.822  18.801  0.3666 -0.5111  0.2792
 1967TIP3    H130096   3.386   3.750  18.768 -1.1489 -1.1978 -0.7102
 1967TIP3    H230097   3.295   3.789  18.882  1.6151  0.0926  1.1623
 1968TIP3   OH230098   4.275   4.612  19.761  0.1258 -0.6372  0.0477
 1968TIP3    H130099   4.200   4.657  19.720  1.0236  1.0232  0.1600
 1968TIP3    H230100   4.253   4.609  19.854 -0.2832 -1.1473 -0.0601
 1969TIP3   OH230101   2.790   4.116  19.936 -0.3478  0.4354  0.0687
 1969TIP3    H130102   2.793   4.021  19.927 -0.1589  0.2262  1.9651
 1969TIP3    H230103   2.705   4.141  19.900 -0.2173 -0.3869 -0.8518
 1970TIP3   OH230104   2.490   1.938  16.656 -0.5002  0.1055 -0.0859
 1970TIP3    H130105   2.525   2.015  16.701  1.7103 -1.4247  1.0130
 1970TIP3    H230106   2.506   1.955  16.563 -1.4529  1.5854 -0.0130
 1971TIP3   OH230107   2.927   3.180  19.852  0.5610 -0.1451 -0.1719
 1971TIP3    H130108   2.999   3.140  19.901  0.5790 -1.8489 -1.5230
 1971TIP3    H230109   2.953   3.174  19.760 -1.4678 -1.2357 -0.7354
 1972TIP3   OH230110   3.944   1.293  19.233  0.4058 -0.1411 -0.4770
 1972TIP3    H130111   4.002   1.235  19.284 -0.5625 -0.2710  0.5066
 1972TIP3    H230112   3.898   1.234  19.173 -0.5991 -0.4317  0.5412
 1973TIP3   OH230113   2.429   4.469  19.989 -0.3060  0.1492 -0.5589
 1973TIP3    H130114   2.356   4.409  20.004 -1.6437  1.4866 -1.3594
 1973TIP3    H230115   2.448   4.507  20.075 -0.1269 -0.6638 -0.2371
 1974TIP3   OH230116   0.959   2.720  18.130 -0.1185 -0.6015 -0.1769
 1974TIP3    H130117   1.023   2.652  18.154 -1.6315 -1.6202  1.1302
 1974TIP3    H230118   0.876   2.673  18.123 -0.6605  0.5964 -2.4409
 1975TIP3   OH230119   5.957   6.475  16.886 -0.2394 -0.6115 -0.0985
 1975TIP3    H130120   5.887   6.498  16.947  0.1524 -0.0085  0.1406
 1975TIP3    H230121   5.960   6.549  16.824  1.8263  0.6627  1.3789
 1976TIP3   OH230122   0.266   6.109  17.088  0.0326 -0.0415 -0.4272
 1976TIP3    H130123   0.298   6.199  17.082 -1.1903  0.4262 -0.2749
 1976TIP3    H230124   0.198   6.112  17.156 -1.0939 -0.7416 -1.4742
 1977TIP3   OH230125   2.456   2.375  17.782  0.1379 -0.9407  0.0341
 1977TIP3    H130126   2.419   2.307  17.725 -0.3968 -0.2297 -0.4821
 1977TIP3    H230127   2.410   2.364  17.865  0.1836 -1.3239  0.0118
 1978TIP3   OH230128   0.880   3.081  16.459  0.0162 -0.1638  0.1161
 1978TIP3    H130129   0.968   3.118  16.465 -0.1697  0.0622  2.0840
 1978TIP3    H230130   0.890   2.990  16.486 -0.2536 -0.3337 -0.3493
 1979TIP3   OH230131   4.898   3.130  17.046  0.5767  0.1828  0.2520
 1979TIP3    H130132   4.826   3.193  17.039  2.5743  2.4646 -1.8689
 1979TIP3    H230133   4.974   3.182  17.070  2.2804 -1.4219 -1.2799
 1980TIP3   OH230134   2.578   2.627  17.760  0.1584  0.1120 -0.3455
 1980TIP3    H130135   2.673   2.628  17.771  0.2473  0.5530 -1.1274
 1980TIP3    H230136   2.552   2.539  17.787  0.6631  0.3046  0.8643
 1981TIP3   OH230137   4.653   6.129  19.896 -0.0831 -0.0496  0.2455
 1981TIP3    H130138   4.560   6.140  19.876 -0.1573 -0.7764  0.1397
 1981TIP3    H230139   4.668   6.035  19.885  0.6079  0.0270  0.5081
 1982TIP3   OH230140   0.086   6.573  16.705 -0.1516 -0.0751  0.2372
 1982TIP3    H130141   0.136   6.595  16.626 -0.5869  0.7156  0.1672
 1982TIP3    H230142   0.140   6.605  16.777 -1.1037  2.0567  0.1107
 1983TIP3   OH230143   4.416   2.702  18.819  0.1140  0.0496 -0.1095
 1983TIP3    H130144   4.369   2.622  18.797  0.0112  0.5301 -1.7762
 1983TIP3    H230145   4.350   2.771  18.818  0.2008  0.1772  1.3129
 1984TIP3   OH230146   1.175   3.422  18.368  0.2997  0.6527  0.0155
 1984TIP3    H130147   1.131   3.341  18.392  0.9836 -0.1138 -1.2446
 1984TIP3    H230148   1.110   3.471  18.317  0.3230  0.3168 -0.3349
 1985TIP3   OH230149   2.882   4.215  20.171 -0.8199  0.2786 -0.1358
 1985TIP3    H130150   2.801   4.211  20.221 -1.0496  0.4375 -0.4884
 1985TIP3    H230151   2.857   4.188  20.083 -0.1921 -1.1782  0.0928
 1986TIP3   OH230152   1.823   1.799  19.144 -0.5207 -0.3160  0.4077
 1986TIP3    H130153   1.736   1.765  19.166 -0.7572  0.8944  1.5563
 1986TIP3    H230154   1.806   1.881  19.098 -0.0221  0.3207  1.3075
 1987TIP3   OH230155   5.021   1.263  20.166 -0.0303 -0.9809  0.1424
 1987TIP3    H130156   4.997   1.353  20.147  3.3531 -0.0359 -0.3430
 1987TIP3    H230157   4.960   1.235  20.234  0.0621  2.4124  1.8257
 1988TIP3   OH230158   3.582   5.138  18.324 -0.1913  0.3099 -0.5319
 1988TIP3    H130159   3.656   5.191  18.353  0.9154 -0.9686 -0.8730
 1988TIP3    H230160   3.579   5.150  18.229  0.2188 -0.3781 -0.6439
 1989TIP3   OH230161   0.805   3.178  19.252 -0.0183 -0.2428 -0.7625
 1989TIP3    H130162   0.822   3.228  19.332  0.3680  1.4700 -1.8533
 1989TIP3    H230163   0.754   3.102  19.281 -1.5805  1.3170  0.8562
 1990TIP3   OH230164   5.097   0.673  18.238 -0.1637 -0.0403  0.4251
 1990TIP3    H130165   5.019   0.647  18.287  0.1422 -1.1878  0.3347
 1990TIP3    H230166   5.147   0.728  18.298 -0.6925  0.1087  0.7327
 1991TIP3   OH230167   3.932   3.238  18.632  0.2377 -0.4014 -0.5235
 1991TIP3    H130168   3.971   3.318  18.599  0.9078  0.1081  1.3401
 1991TIP3    H230169   3.959   3.170  18.570  4.0008 -0.0362  0.4929
 1992TIP3   OH230170   2.397   1.821  17.524 -0.5600  0.2075  0.5131
 1992TIP3    H130171   2.433   1.891  17.469 -0.4174 -0.1373  0.1623
 1992TIP3    H230172   2.361   1.866  17.600 -1.3644  0.7608 -0.1852
 1993TIP3   OH230173   6.095   0.199  18.961  0.3428 -0.5965 -0.1608
 1993TIP3    H130174   6.048   0.205  19.044  0.1564  1.0612 -0.3481
 1993TIP3    H230175   6.091   0.106  18.938 -2.4782 -0.6272  0.0519
 1994TIP3   OH230176   4.595   2.392  17.895 -0.1433 -0.4411  0.1915
 1994TIP3    H130177   4.589   2.297  17.900  3.4696 -1.0494 -2.5281
 1994TIP3    H230178   4.535   2.417  17.825 -0.3009 -0.8714  0.1693
 1995TIP3   OH230179   6.455   1.777  19.755 -0.2775  0.4494 -0.2005
 1995TIP3    H130180   6.455   1.866  19.720 -0.8346  0.1361 -1.0578
 1995TIP3    H230181   6.457   1.787  19.850 -0.4288  1.3774 -0.2900
 1996TIP3   OH230182   6.547   4.201  16.583 -0.2528  0.0386 -0.1075
 1996TIP3    H130183   6.548   4.135  16.513 -2.2719  0.3220 -0.4672
 1996TIP3    H230184   6.515   4.280  16.539 -0.4503  0.5244  0.9009
 1997TIP3   OH230185   1.807   3.840  19.304 -0.3266 -0.1994 -0.3323
 1997TIP3    H130186   1.850   3.755  19.310 -1.5341 -0.8552 -0.6064
 1997TIP3    H230187   1.851   3.894  19.370 -0.2268 -1.3525  0.5771
 1998TIP3   OH230188   6.083   3.353  19.716 -0.2143 -0.0049  0.5453
 1998TIP3    H130189   5.997   3.354  19.673 -1.5180 -1.3450  2.8883
 1998TIP3    H230190   6.082   3.272  19.768  2.9747 -0.6596 -0.2242
 1999TIP3   OH230191   1.788   6.552  19.142  0.5813 -0.1593  0.1952
 1999TIP3    H130192   1.717   6.526  19.083  0.4763 -0.3351  0.3959
 1999TIP3    H230193   1.770   6.504  19.223  0.3737  0.5656  0.5851
 2000TIP3   OH230194   2.839   2.761  17.271  0.0655 -0.3508 -0.5146
 2000TIP3    H130195   2.894   2.832  17.304 -2.3125  1.1244  0.5900
 2000TIP3    H230196   2.757   2.804  17.246 -0.9074 -2.5203 -1.3105
 2001TIP3   OH230197   0.909   0.166  16.952  0.0455  0.6882  0.3671
 2001TIP3    H130198   0.917   0.087  16.899  2.2176  1.1864 -0.1940
 2001TIP3    H230199   0.925   0.238  16.890 -1.2990  1.5396  0.9679
 2002TIP3   OH230200   4.258   4.829  19.356  0.0113 -0.4665 -0.0484
 2002TIP3    H130201   4.251   4.840  19.261 -0.5516 -1.3476 -0.1190
 2002TIP3    H230202   4.191   4.887  19.391  0.3298 -0.0144 -0.1729
 2003TIP3   OH230203   1.820   0.688  19.037  0.2826 -0.0835 -0.1549
 2003TIP3    H130204   1.909   0.713  19.063 -0.3396  1.2121  0.8553
 2003TIP3    H230205   1.821   0.593  19.039  1.6095 -0.0916 -0.0092
 2004TIP3   OH230206   5.908   2.449  19.370  0.2138 -0.7215  0.0872
 2004TIP3    H130207   5.841   2.382  19.369 -0.0882 -0.4329 -1.4490
 2004TIP3    H230208   5.875   2.515  19.431 -1.2598 -0.2678 -1.1375
 2005TIP3   OH230209   0.526   0.254  18.626 -0.0455  0.7646 -0.5018
 2005TIP3    H130210   0.486   0.320  18.682 -0.9962 -0.0234 -0.2173
 2005TIP3    H230211   0.493   0.272  18.538 -0.3279  0.6505 -0.4183
 2006TIP3   OH230212   2.508   0.323  18.839  0.5328 -0.2361  0.1435
 2006TIP3    H130213   2.427   0.371  18.825  0.9751  0.6507  0.5145
 2006TIP3    H230214   2.483   0.231  18.839 -0.6778  0.0701  1.6218
 2007TIP3   OH230215   5.994   1.275  20.704  0.0783  0.0460 -0.5444
 2007TIP3    H130216   5.996   1.180  20.718  0.6631 -0.1013 -1.5115
 2007TIP3    H230217   5.903   1.294  20.683  0.1883 -0.5233 -1.6393
 2008TIP3   OH230218   3.600   0.390  19.917 -0.0400  0.0323  0.2414
 2008TIP3    H130219   3.524   0.346  19.955  0.3540  0.2894  1.3544
 2008TIP3    H230220   3.581   0.392  19.823 -0.5737 -1.4977  0.2911
 2009TIP3   OH230221   4.711   3.986  18.763  0.0231  0.0235  0.1699
 2009TIP3    H130222   4.782   4.012  18.705 -0.6615 -0.3477 -0.8583
 2009TIP3    H230223   4.737   4.018  18.849  0.7526  1.1732 -0.4577
 2010TIP3   OH230224   5.986   2.694  18.458  0.3846 -0.1131 -0.1620
 2010TIP3    H130225   5.927   2.730  18.524  0.2855  3.0372 -1.7644
 2010TIP3    H230226   6.067   2.676  18.505  0.1381  1.5288  0.9785
 2011TIP3   OH230227   6.688   1.690  18.770 -0.3899  0.6340 -0.1018
 2011TIP3    H130228   6.774   1.715  18.805  0.0074 -1.1386  0.3197
 2011TIP3    H230229   6.630   1.761  18.796  0.9841  2.0110 -0.6234
 2012TIP3   OH230230   2.702   6.333  18.847 -0.2172 -0.4794 -0.5634
 2012TIP3    H130231   2.626   6.277  18.864  0.7023 -1.9995 -1.2757
 2012TIP3    H230232   2.777   6.280  18.874  0.5877  1.2065  0.6649
 2013TIP3   OH230233   5.272   4.478  17.457  0.0039 -0.3251 -0.7852
 2013TIP3    H130234   5.200   4.471  17.519  0.7881 -0.4757  0.1307
 2013TIP3    H230235   5.293   4.387  17.435 -1.1510 -0.2507 -2.3476
 2014TIP3   OH230236   3.589   3.937  18.880 -0.0228  0.2377  0.7374
 2014TIP3    H130237   3.508   3.989  18.881 -1.2621 -1.5853 -0.0731
 2014TIP3    H230238   3.624   3.946  18.969 -1.3241  0.7421  1.2263
 2015TIP3   OH230239   2.566   0.768  18.114  0.0130  0.2681 -0.0901
 2015TIP3    H130240   2.531   0.678  18.111 -0.7312  0.5731 -1.2609
 2015TIP3    H230241   2.548   0.803  18.027  2.4417  0.7812 -0.4409
 2016TIP3   OH230242   1.561   2.894  18.842  0.4404  0.2147  0.0371
 2016TIP3    H130243   1.566   2.990  18.840  0.1390  0.2332  0.1691
 2016TIP3    H230244   1.617   2.866  18.769 -0.2013  0.5220 -0.5871
 2017TIP3   OH230245   3.266   3.976  18.551 -0.0414  0.5259  0.1749
 2017TIP3    H130246   3.319   3.915  18.602  0.3651 -0.0781 -0.9196
 2017TIP3    H230247   3.176   3.952  18.571  0.1056 -0.7055 -0.4995
 2018TIP3   OH230248   1.369   0.421  18.486 -0.0871 -0.4030  0.7379
 2018TIP3    H130249   1.420   0.477  18.544  0.8271  0.0476 -0.4714
 2018TIP3    H230250   1.290   0.471  18.466  1.7291  1.5824 -2.1736
 2019TIP3   OH230251   1.864   1.838  17.324 -0.6515  0.0274  0.3374
 2019TIP3    H130252   1.796   1.783  17.287 -0.9990  0.5476  0.2034
 2019TIP3    H230253   1.855   1.827  17.419  0.7712 -1.9600  0.3165
 2020TIP3   OH230254   6.579   4.544  19.014  0.2956  0.5158 -0.1331
 2020TIP3    H130255   6.547   4.634  19.023 -0.8203  0.3242 -1.7798
 2020TIP3    H230256   6.635   4.545  18.937  0.7057 -0.1018  0.1440
 2021TIP3   OH230257   1.563   1.674  18.226  0.2970 -0.5203 -0.1933
 2021TIP3    H130258   1.490   1.618  18.199  0.0138 -0.3739  0.2436
 2021TIP3    H230259   1.525   1.730  18.295 -0.2525  2.2305 -2.5280
 2022TIP3   OH230260   4.280   5.150  17.894 -0.7213  0.2581 -0.6306
 2022TIP3    H130261   4.212   5.163  17.960 -0.5696  0.2460 -0.4700
 2022TIP3    H230262   4.360   5.186  17.934 -0.8530  1.2812 -1.2468
 2023TIP3   OH230263   6.281   6.044  18.252  0.3113  0.0120 -0.5043
 2023TIP3    H130264   6.198   5.998  18.245  0.5858 -0.3727 -1.4277
 2023TIP3    H230265   6.305   6.037  18.344 -0.5912 -0.0154 -0.2644
 2024TIP3   OH230266   2.101   4.717  18.437 -0.3708  0.2652 -0.0831
 2024TIP3    H130267   2.055   4.742  18.516  0.1459 -0.1614  0.3610
 2024TIP3    H230268   2.111   4.622  18.443  1.0206  0.3997  0.0944
 2025TIP3   OH230269   6.273   2.983  17.842 -0.1256 -0.4180 -0.0954
 2025TIP3    H130270   6.318   2.901  17.859  1.4713  0.3088 -0.5890
 2025TIP3    H230271   6.271   3.028  17.926  0.3280 -0.3457 -0.1202
 2026TIP3   OH230272   3.480   3.368  17.080 -0.0710  0.0616 -0.0870
 2026TIP3    H130273   3.425   3.439  17.115  1.6646  0.4633  2.0035
 2026TIP3    H230274   3.482   3.384  16.986 -0.2355  2.4526  0.2486
 2027TIP3   OH230275   1.955   0.849  20.019  0.5135  0.0213 -0.0442
 2027TIP3    H130276   1.903   0.769  20.029  0.1394  0.0824 -1.3257
 2027TIP3    H230277   1.956   0.865  19.924 -1.4048  2.8247  0.2828
 2028TIP3   OH230278   5.582   2.334  18.021  0.0765  0.3767 -0.1379
 2028TIP3    H130279   5.587   2.318  18.115 -2.0511  0.8895  0.1261
 2028TIP3    H230280   5.631   2.262  17.981  0.2032 -0.3799  1.3415
 2029TIP3   OH230281   0.052   6.258  18.380  0.0587  0.5306 -0.4174
 2029TIP3    H130282   0.122   6.205  18.343 -1.1580 -1.7715  0.3734
 2029TIP3    H230283   0.095   6.313  18.445  1.1521 -0.9009  0.1179
 2030TIP3   OH230284   6.252   5.513  18.678  0.3702  0.0753  0.5816
 2030TIP3    H130285   6.303   5.508  18.759 -0.1967  0.7558  0.9850
 2030TIP3    H230286   6.266   5.603  18.646 -0.0038  0.0416  0.3153
 2031TIP3   OH230287   4.893   5.005  19.595  0.4764 -0.0809 -0.2377
 2031TIP3    H130288   4.806   4.969  19.578  0.7178 -2.4841  2.7720
 2031TIP3    H230289   4.879   5.079  19.653  0.3220  1.6141 -2.3341
 2032TIP3   OH230290   2.243   5.405  19.761  0.2944  0.3473 -0.0364
 2032TIP3    H130291   2.222   5.439  19.848 -0.9349 -0.3299 -0.0459
 2032TIP3    H230292   2.186   5.329  19.751  2.1131 -0.9935 -0.4965
 2033TIP3   OH230293   0.044   6.724  17.129 -0.1914  0.8031  0.3617
 2033TIP3    H130294   0.108   6.790  17.155  0.8762 -0.9204  2.4907
 2033TIP3    H230295   0.090   6.667  17.068 -0.0660  0.2845  0.9241
 2034TIP3   OH230296   0.069   0.882  19.545 -0.2546 -0.1206  0.6061
 2034TIP3    H130297   0.019   0.958  19.517 -0.1401 -0.7515 -1.5026
 2034TIP3    H230298   0.159   0.915  19.555 -0.0611 -0.0909 -1.0072
 2035TIP3   OH230299   6.435   5.600  19.434 -0.5458 -0.4033  0.5353
 2035TIP3    H130300   6.341   5.611  19.428 -0.7496 -2.4388 -1.2275
 2035TIP3    H230301   6.448   5.536  19.504 -0.4954 -0.3721  0.5561
 2036TIP3   OH230302   5.019   2.671  17.343 -0.3508  0.2806 -0.0984
 2036TIP3    H130303   4.996   2.632  17.259  1.2678  0.2460 -0.5570
 2036TIP3    H230304   4.975   2.756  17.342 -0.1143  0.4026 -1.1088
 2037TIP3   OH230305   6.448   2.078  19.909 -0.7482  0.1938 -0.3737
 2037TIP3    H130306   6.354   2.079  19.888 -1.0318 -0.3855  0.7869
 2037TIP3    H230307   6.453   2.028  19.991  0.5670  0.3146 -0.3724
 2038TIP3   OH230308   2.288   4.370  17.178  0.2286 -0.3786  0.2234
 2038TIP3    H130309   2.280   4.456  17.136  1.4248 -0.6284 -0.5719
 2038TIP3    H230310   2.210   4.323  17.149  1.2061 -0.6802 -2.1408
 2039TIP3   OH230311   4.707   6.218  18.320 -0.6837  0.0664  0.3746
 2039TIP3    H130312   4.772   6.218  18.390  0.5487  2.5368 -0.6712
 2039TIP3    H230313   4.674   6.308  18.318  0.9787  0.8014 -3.5742
 2040TIP3   OH230314   0.511   1.205  20.522 -0.2256 -0.2271  0.0639
 2040TIP3    H130315   0.447   1.186  20.590  1.1996 -1.2135  1.1948
 2040TIP3    H230316   0.518   1.125  20.471 -0.1353 -0.0178 -0.2566
 2041TIP3   OH230317   4.306   0.904  18.733  0.4664 -0.2935  0.0342
 2041TIP3    H130318   4.310   0.903  18.828  0.2116  1.4193  0.0924
 2041TIP3    H230319   4.395   0.926  18.705  0.3475  0.0172 -0.0988
 2042TIP3   OH230320   6.090   4.592  18.485 -0.0582  0.4228  0.2134
 2042TIP3    H130321   6.107   4.617  18.576 -1.0639  0.5146  0.3878
 2042TIP3    H230322   6.115   4.669  18.434 -1.2974  1.1028  0.5844
 2043TIP3   OH230323   6.520   4.022  19.726 -0.2591 -0.3763 -0.4174
 2043TIP3    H130324   6.453   3.965  19.764  0.8314 -0.5880  1.3109
 2043TIP3    H230325   6.520   4.099  19.783  0.4858 -0.0748 -0.8152
 2044TIP3   OH230326   6.590   5.312  17.596  0.6212  0.2589 -0.6566
 2044TIP3    H130327   6.562   5.223  17.573  0.3018  0.0936  0.2924
 2044TIP3    H230328   6.677   5.321  17.557  2.3708 -1.9029  2.2672
 2045TIP3   OH230329   2.319   1.930  17.772 -0.4460  0.1861 -0.0721
 2045TIP3    H130330   2.313   1.874  17.850  0.3445  0.4973  0.2273
 2045TIP3    H230331   2.364   2.009  17.803  1.0265 -0.2122 -1.0991
 2046TIP3   OH230332   4.621   1.578  17.608 -0.2816  0.3923  0.6122
 2046TIP3    H130333   4.715   1.591  17.596 -0.0985 -0.4891  0.9877
 2046TIP3    H230334   4.581   1.622  17.533  0.4029  1.0900  0.6454
 2047TIP3   OH230335   0.556   5.902  17.280  0.3107  0.0435 -0.5583
 2047TIP3    H130336   0.527   5.870  17.195  0.0484 -1.7071  0.1452
 2047TIP3    H230337   0.627   5.843  17.305 -0.5028 -0.3186  1.0184
 2048TIP3   OH230338   6.095   0.570  19.566 -0.0189  0.1477  0.0730
 2048TIP3    H130339   6.110   0.653  19.610  0.5753  0.3679 -0.5416
 2048TIP3    H230340   6.058   0.593  19.481  0.1067 -0.2142 -0.0843
 2049TIP3   OH230341   1.333   3.056  18.195  0.3497  0.0034 -0.2225
 2049TIP3    H130342   1.322   3.145  18.163 -0.3288 -0.1579 -0.4521
 2049TIP3    H230343   1.307   3.060  18.287  1.3560  0.2581  0.0687
 2050TIP3   OH230344   5.999   2.893  17.474 -0.3132 -0.2061 -0.2767
 2050TIP3    H130345   5.904   2.894  17.470 -0.2966 -0.1559 -0.8698
 2050TIP3    H230346   6.026   2.891  17.382  0.2639  0.9124 -0.1484
 2051TIP3   OH230347   2.772   6.344  17.558 -0.1733 -0.2806  0.3104
 2051TIP3    H130348   2.770   6.268  17.616 -1.5926 -1.3115 -1.0024
 2051TIP3    H230349   2.846   6.327  17.499 -0.5370 -0.7059 -0.0332
 2052TIP3   OH230350   2.065   0.552  19.466  0.0556  0.2213 -0.2162
 2052TIP3    H130351   2.096   0.600  19.542 -0.5133  0.8283 -0.3642
 2052TIP3    H230352   2.061   0.461  19.496 -1.3496  0.6118  0.8700
 2053TIP3   OH230353   3.958   4.302  19.963  0.3508  0.2000  0.0348
 2053TIP3    H130354   3.986   4.308  19.871  1.5050  0.3143  0.3732
 2053TIP3    H230355   3.916   4.386  19.981  0.3029  0.2566 -0.3301
 2054TIP3   OH230356   6.566   6.321  19.364 -0.2820 -0.2365  0.1944
 2054TIP3    H130357   6.600   6.373  19.291 -1.0462  0.2113  0.1398
 2054TIP3    H230358   6.544   6.236  19.325 -0.9322  0.0887 -0.1633
 2055TIP3   OH230359   6.270   2.078  17.174 -0.1247 -0.1175  0.2933
 2055TIP3    H130360   6.175   2.079  17.173 -0.1468 -0.4695 -1.1480
 2055TIP3    H230361   6.294   2.043  17.088  1.3026  0.0610  0.5926
 2056TIP3   OH230362   0.730   0.522  20.225 -0.3063  0.5468 -0.0187
 2056TIP3    H130363   0.732   0.476  20.141  0.1059  0.2281  0.1604
 2056TIP3    H230364   0.758   0.611  20.204 -0.3260  0.5022 -0.2393
 2057TIP3   OH230365   4.651   5.483  18.490  0.0812  0.0172 -0.0147
 2057TIP3    H130366   4.714   5.412  18.495  0.6298  0.5484  0.7282
 2057TIP3    H230367   4.566   5.439  18.485  0.5047 -0.7030 -1.3067
 2058TIP3   OH230368   2.389   4.586  19.561  0.0647 -0.1584 -0.0905
 2058TIP3    H130369   2.443   4.546  19.629 -0.4432 -1.3445 -0.3593
 2058TIP3    H230370   2.447   4.650  19.518  0.8027 -0.3842  0.5532
 2059TIP3   OH230371   4.601   4.631  18.709 -0.4317 -0.1327 -0.3629
 2059TIP3    H130372   4.557   4.683  18.776  0.3782  2.7681 -1.9305
 2059TIP3    H230373   4.535   4.619  18.641 -0.2988 -0.2569 -0.4707
 2060TIP3   OH230374   1.120   1.337  18.647 -0.4259 -0.0722 -0.2378
 2060TIP3    H130375   1.057   1.389  18.599 -0.4857  1.8670  1.7846
 2060TIP3    H230376   1.169   1.400  18.700  3.3044 -1.4236 -1.6922
 2061TIP3   OH230377   0.678   1.334  17.486  0.1158  0.4800 -0.1281
 2061TIP3    H130378   0.640   1.353  17.400 -0.6437 -1.0139 -0.1647
 2061TIP3    H230379   0.638   1.251  17.512  2.9657 -0.9446  0.0891
 2062TIP3   OH230380   0.183   4.204  17.996 -0.3545  0.5428  0.0146
 2062TIP3    H130381   0.246   4.271  18.020  2.1877 -1.7934  0.4151
 2062TIP3    H230382   0.211   4.173  17.910  0.5902 -2.0924  1.1585
 2063TIP3   OH230383   3.207   2.597  19.950 -0.0516  0.4229  0.1367
 2063TIP3    H130384   3.266   2.534  19.909 -0.1372  0.9655 -0.8507
 2063TIP3    H230385   3.137   2.544  19.988  0.7409 -0.1805  0.7640
 2064TIP3   OH230386   4.906   0.620  20.230  0.4792  0.2985  0.4403
 2064TIP3    H130387   4.926   0.594  20.140  0.6340 -0.3873  0.6684
 2064TIP3    H230388   4.846   0.694  20.220  0.3821  0.1401 -0.2307
 2065TIP3   OH230389   5.045   6.406  19.298 -0.1747  0.2897  0.4827
 2065TIP3    H130390   5.061   6.346  19.226 -1.6457  1.3393 -0.7995
 2065TIP3    H230391   4.968   6.371  19.342 -0.3906  0.6411  0.3901
 2066TIP3   OH230392   2.504   0.317  18.091  0.8642  0.4453 -0.3589
 2066TIP3    H130393   2.454   0.356  18.163  0.5456  0.9417 -0.8354
 2066TIP3    H230394   2.518   0.226  18.117 -2.0682 -0.3214 -1.0858
 2067TIP3   OH230395   0.799   3.983  17.229 -0.0968 -0.3910 -0.7242
 2067TIP3    H130396   0.785   4.058  17.285 -0.6933  0.1106 -1.5324
 2067TIP3    H230397   0.852   3.923  17.282 -2.9630 -1.1946  1.4413
 2068TIP3   OH230398   1.932   0.368  19.248  0.0295 -0.2400  0.6752
 2068TIP3    H130399   1.972   0.330  19.326  0.5362 -0.9355  0.0963
 2068TIP3    H230400   2.005   0.391  19.191 -0.3146  0.7357  0.6112
 2069TIP3   OH230401   0.269   6.212  19.580  0.4674  0.3713  0.5030
 2069TIP3    H130402   0.280   6.123  19.546  0.9529  0.9687 -0.9803
 2069TIP3    H230403   0.195   6.248  19.530  0.2777  0.8024  1.0842
 2070TIP3   OH230404   4.478   4.275  18.826  0.0320 -0.6821  0.1255
 2070TIP3    H130405   4.392   4.251  18.792  0.2226 -1.0134 -0.1188
 2070TIP3    H230406   4.459   4.336  18.898 -0.3675  0.1375 -0.6548
 2071TIP3   OH230407   2.517   3.563  20.293  0.2141  0.4272  0.2213
 2071TIP3    H130408   2.424   3.570  20.270  0.7403  0.9809 -1.9839
 2071TIP3    H230409   2.549   3.489  20.242  1.4519  1.6747 -0.9206
 2072TIP3   OH230410   2.320   0.746  19.367 -0.1212 -0.5786 -0.3400
 2072TIP3    H130411   2.407   0.718  19.395  0.2472  0.6360 -0.1964
 2072TIP3    H230412   2.296   0.685  19.297  0.9975 -0.7274 -0.6108
 2073TIP3   OH230413   4.509   5.203  18.042 -0.7524  0.6387 -0.0696
 2073TIP3    H130414   4.503   5.146  18.118  0.1116  0.8943  0.1976
 2073TIP3    H230415   4.585   5.172  17.994 -0.8690  0.9335 -0.4538
 2074TIP3   OH230416   4.524   1.091  18.875  0.5839  0.1620  0.0937
 2074TIP3    H130417   4.532   1.056  18.786  1.5341  0.9339 -0.1472
 2074TIP3    H230418   4.462   1.033  18.918  0.8784 -0.8298 -0.7693
 2075TIP3   OH230419   0.498   5.156  19.505  0.3964  0.3881  0.5571
 2075TIP3    H130420   0.588   5.185  19.516  0.5660 -0.0270  0.2570
 2075TIP3    H230421   0.455   5.228  19.458  0.0520  1.4923  2.4560
 2076TIP3   OH230422   3.005   4.775  20.374  0.2275 -0.4295  0.2967
 2076TIP3    H130423   3.060   4.798  20.300  1.0693 -1.2796  0.6438
 2076TIP3    H230424   2.916   4.773  20.338  0.4191  0.8173 -0.2960
 2077TIP3   OH230425   5.031   2.527  17.767  0.4201  0.0224  0.1174
 2077TIP3    H130426   5.057   2.594  17.704 -0.9302  0.9223  0.4815
 2077TIP3    H230427   5.095   2.536  17.838  1.2278 -0.1977 -0.5579
 2078TIP3   OH230428   3.878   3.987  16.999  0.7111  0.6496 -0.2106
 2078TIP3    H130429   3.784   4.000  17.014  0.6941  0.9155 -0.5182
 2078TIP3    H230430   3.898   4.043  16.924  0.4399 -1.8836 -2.3235
 2079TIP3   OH230431   1.458   2.875  17.533  0.0550 -0.0771  0.2375
 2079TIP3    H130432   1.378   2.845  17.577 -0.4598 -0.0476 -0.6416
 2079TIP3    H230433   1.499   2.934  17.596 -1.7064  1.5752 -0.0421
 2080TIP3   OH230434   4.504   1.710  18.049  0.4413  0.4515  0.0786
 2080TIP3    H130435   4.561   1.781  18.079  1.6808 -0.0152 -1.0869
 2080TIP3    H230436   4.483   1.732  17.958  0.5653 -0.5000 -0.1922
 2081TIP3   OH230437   2.646   0.235  19.490 -0.1071 -0.1171 -0.5419
 2081TIP3    H130438   2.718   0.178  19.518 -0.1546  1.1709  2.5935
 2081TIP3    H230439   2.683   0.323  19.493 -1.3735  0.4274 -0.5919
 2082TIP3   OH230440   6.638   2.898  16.137 -0.0115  0.3181  0.4866
 2082TIP3    H130441   6.702   2.857  16.196  0.9320  2.2519  0.9079
 2082TIP3    H230442   6.692   2.935  16.066 -0.8799  0.3255 -0.1847
 2083TIP3   OH230443   0.837   5.395  17.252 -0.0781  0.0400  0.1513
 2083TIP3    H130444   0.924   5.367  17.282  0.2516 -0.8803 -1.4903
 2083TIP3    H230445   0.792   5.313  17.229 -1.0606  0.5594  0.1743
 2084TIP3   OH230446   2.910   1.435  18.160  0.1573  0.0475  0.5004
 2084TIP3    H130447   2.951   1.496  18.221 -0.4762 -0.2116  1.1997
 2084TIP3    H230448   2.982   1.379  18.131  0.4437  0.0756  1.1353
 2085TIP3   OH230449   6.606   4.651  19.374 -0.4562  0.8194 -0.3228
 2085TIP3    H130450   6.677   4.707  19.406  0.0454  1.0261 -1.7158
 2085TIP3    H230451   6.526   4.698  19.397 -0.1008  1.2391  0.0868
 2086TIP3   OH230452   6.310   3.478  20.309 -0.2426  0.4975 -0.2524
 2086TIP3    H130453   6.259   3.418  20.363  0.2587  1.2846  1.1314
 2086TIP3    H230454   6.382   3.424  20.274 -1.5377 -0.4380 -1.6266
 2087TIP3   OH230455   2.969   4.519  19.786 -0.5922 -0.1461  0.9452
 2087TIP3    H130456   3.060   4.549  19.774 -0.5017 -0.9169 -0.3912
 2087TIP3    H230457   2.968   4.484  19.875 -0.1516  1.7886  1.7799
 2088TIP3   OH230458   6.715   5.369  18.669  0.1825 -0.2968  0.2396
 2088TIP3    H130459   6.774   5.385  18.594 -0.3585 -1.0244 -0.3580
 2088TIP3    H230460   6.660   5.296  18.640 -1.5305  0.8495  0.4781
 2089TIP3   OH230461   5.195   3.083  17.572  0.3655 -0.2917 -0.1508
 2089TIP3    H130462   5.106   3.062  17.544 -0.0978 -0.1873  1.1633
 2089TIP3    H230463   5.196   3.064  17.666  1.4272  0.7139  0.0671
 2090TIP3   OH230464   4.623   3.523  17.950  0.2071  1.0068  0.3968
 2090TIP3    H130465   4.646   3.432  17.931 -0.4419  0.6842  1.0629
 2090TIP3    H230466   4.706   3.564  17.974  0.3065  0.1701  1.6268
 2091TIP3   OH230467   0.041   3.611  17.628 -0.2650 -0.1444 -0.1962
 2091TIP3    H130468  -0.036   3.556  17.641 -1.1070  1.1115  0.3362
 2091TIP3    H230469   0.097   3.592  17.703 -0.2103 -0.8002 -0.3986
 2092TIP3   OH230470   0.567   2.655  17.508 -0.2127  0.6214  0.1134
 2092TIP3    H130471   0.612   2.726  17.464 -0.1037  0.1517 -0.5480
 2092TIP3    H230472   0.523   2.607  17.438  0.2645 -0.3459  0.4508
 2093TIP3   OH230473   5.536   0.386  18.612  0.3427  0.6424  0.1598
 2093TIP3    H130474   5.464   0.325  18.627  0.1946  0.4731 -1.0966
 2093TIP3    H230475   5.574   0.357  18.529  0.2510  2.2849 -0.4865
 2094TIP3   OH230476   4.659   3.895  19.409  0.8056  0.4748  0.4375
 2094TIP3    H130477   4.738   3.904  19.355  0.4951 -0.2278 -0.1622
 2094TIP3    H230478   4.609   3.976  19.392  1.1509  0.6799  0.3998
 2095TIP3   OH230479   1.886   3.968  18.477  0.3557 -0.1313  0.0441
 2095TIP3    H130480   1.944   3.916  18.531  0.6785 -0.4782 -0.6227
 2095TIP3    H230481   1.798   3.942  18.504  0.5022  0.1984  0.8671
 2096TIP3   OH230482   0.410   5.121  19.834  0.1309 -0.0927  0.2073
 2096TIP3    H130483   0.423   5.216  19.837  0.9482 -0.1969  0.3282
 2096TIP3    H230484   0.330   5.105  19.884 -1.6283  0.7887 -2.1329
 2097TIP3   OH230485   2.517   6.332  17.926  0.0446 -0.2107 -0.8672
 2097TIP3    H130486   2.555   6.309  18.011 -0.0686 -0.9593 -1.0136
 2097TIP3    H230487   2.582   6.302  17.862  0.9848  1.9436 -1.0290
 2098TIP3   OH230488   0.161   3.967  19.705  0.2296  0.0733  0.9753
 2098TIP3    H130489   0.238   3.984  19.650  0.9559  0.7678  2.1561
 2098TIP3    H230490   0.091   4.018  19.664  0.5041 -0.1664  0.1724
 2099TIP3   OH230491   6.092   4.522  20.253 -0.0701  0.2846 -0.1698
 2099TIP3    H130492   6.056   4.610  20.263  0.0737  0.3295 -0.0341
 2099TIP3    H230493   6.016   4.464  20.257 -0.0782  0.3367  0.6872
 2100TIP3   OH230494   1.422   2.518  19.134 -0.2064 -0.0221  0.3369
 2100TIP3    H130495   1.331   2.490  19.137  0.5771 -2.7376  1.8916
 2100TIP3    H230496   1.460   2.467  19.062  0.3742  0.1091  0.5467
 2101TIP3   OH230497   0.109   2.671  16.732 -0.7169  1.0396 -0.1669
 2101TIP3    H130498   0.111   2.575  16.732 -1.7337  1.0022 -0.9574
 2101TIP3    H230499   0.166   2.697  16.660 -1.0828  0.9984 -0.4745
 2102TIP3   OH230500   1.334   1.176  17.394 -0.1590 -0.3078 -0.1561
 2102TIP3    H130501   1.420   1.214  17.377  0.9392 -2.6163 -0.1888
 2102TIP3    H230502   1.302   1.223  17.471  0.7662  1.1205 -0.6020
 2103TIP3   OH230503   4.988   0.732  18.635 -0.1567  0.1431  0.9326
 2103TIP3    H130504   5.068   0.695  18.673 -0.5992 -0.4972  1.2727
 2103TIP3    H230505   4.918   0.694  18.688 -0.7972 -0.7063 -0.4668
 2104TIP3   OH230506   0.763   2.876  16.999  0.1394  0.1553 -0.4810
 2104TIP3    H130507   0.687   2.859  17.055  0.9409 -1.1190  0.2969
 2104TIP3    H230508   0.789   2.789  16.968  2.4121  0.2775  0.8435
 2105TIP3   OH230509   3.953   4.148  16.778 -0.2254  0.4375 -0.5502
 2105TIP3    H130510   3.899   4.173  16.703  1.7984 -1.5284 -2.8171
 2105TIP3    H230511   4.010   4.079  16.745  2.5910  1.2690  2.0983
 2106TIP3   OH230512   4.677   4.037  19.697  0.0032 -0.1864  0.1176
 2106TIP3    H130513   4.666   4.035  19.602  1.6678  0.0805 -0.1129
 2106TIP3    H230514   4.750   4.097  19.711 -1.6120  1.5492  1.7404
 2107TIP3   OH230515   3.050   0.878  19.214  0.2756  0.5637 -0.0356
 2107TIP3    H130516   3.043   0.785  19.233  1.2194  0.1339 -1.6111
 2107TIP3    H230517   3.032   0.885  19.120  1.7518  1.7438 -0.2685
 2108TIP3   OH230518   4.346   2.563  19.609  0.3259 -0.1452  0.0017
 2108TIP3    H130519   4.402   2.565  19.531  1.4903  1.7355  0.8095
 2108TIP3    H230520   4.322   2.654  19.624 -0.0645 -0.4862  1.7052
 2109TIP3   OH230521   3.961   1.584  17.055  0.1814  0.3102 -0.6003
 2109TIP3    H130522   3.928   1.646  17.120  1.4747 -0.9859  1.4339
 2109TIP3    H230523   3.886   1.564  17.000 -1.6514 -0.2309  1.9207
 2110TIP3   OH230524   1.824   2.365  17.885  0.4542  0.0031 -0.2221
 2110TIP3    H130525   1.911   2.351  17.847  0.8946 -1.1186  1.0978
 2110TIP3    H230526   1.839   2.429  17.955  0.2206 -0.1311 -0.0464
 2111TIP3   OH230527   5.005   4.409  18.623 -0.3485  1.4311  0.7425
 2111TIP3    H130528   4.937   4.391  18.688 -1.2509  2.6083  0.1730
 2111TIP3    H230529   5.064   4.334  18.628  0.0383  1.8309  3.4126
 2112TIP3   OH230530   2.642   3.729  19.723  0.3879  0.0782 -0.2774
 2112TIP3    H130531   2.616   3.782  19.647 -2.4623  1.3084  1.4348
 2112TIP3    H230532   2.581   3.655  19.723  1.4248 -0.8091 -0.0368
 2113TIP3   OH230533   5.003   5.423  16.817  0.1336  0.3172  0.5223
 2113TIP3    H130534   5.026   5.349  16.874  0.1787 -0.7183 -0.7858
 2113TIP3    H230535   4.983   5.494  16.877  2.3343 -0.0572  1.8077
 2114TIP3   OH230536   0.831   1.472  17.234 -0.3328  0.2299 -0.4765
 2114TIP3    H130537   0.896   1.402  17.233 -0.7962 -0.2076 -0.2324
 2114TIP3    H230538   0.747   1.427  17.233 -0.6476  0.7979 -1.3730
 2115TIP3   OH230539   4.772   6.249  17.082 -0.3805  0.1295  0.7311
 2115TIP3    H130540   4.701   6.290  17.032  0.1459  1.4858  1.0338
 2115TIP3    H230541   4.728   6.200  17.151 -1.1583 -2.3588 -1.3758
 2116TIP3   OH230542   2.670   6.030  18.128  0.1621 -0.3751 -0.3234
 2116TIP3    H130543   2.605   5.968  18.161  0.2871 -0.0529  0.5724
 2116TIP3    H230544   2.727   5.977  18.072 -1.1515 -0.5621 -1.5545
 2117TIP3   OH230545   4.665   0.016  19.956 -0.0091 -0.1170 -0.0748
 2117TIP3    H130546   4.720  -0.049  19.999 -0.8554 -0.9534 -0.2195
 2117TIP3    H230547   4.577  -0.000  19.990 -0.0844  1.6335  0.6661
 2118TIP3   OH230548   5.522   0.611  19.840  0.3398  0.1226 -0.0935
 2118TIP3    H130549   5.496   0.703  19.848  0.9249  0.4150 -1.2687
 2118TIP3    H230550   5.557   0.604  19.751  2.2576 -0.7310  0.6636
 2119TIP3   OH230551   1.558   3.938  19.942  0.4843 -0.0834  0.4032
 2119TIP3    H130552   1.623   3.868  19.932  0.9059  0.2634  0.7100
 2119TIP3    H230553   1.609   4.015  19.965 -0.0986  0.0429  1.3281
 2120TIP3   OH230554   3.168   6.422  18.973  0.0188  0.5743 -0.3992
 2120TIP3    H130555   3.205   6.380  19.051 -0.3612 -1.4771 -1.2527
 2120TIP3    H230556   3.088   6.373  18.955  0.3070  0.7255 -2.3146
 2121TIP3   OH230557   4.179   5.126  20.156 -0.1302 -0.3395 -0.7281
 2121TIP3    H130558   4.109   5.178  20.196  0.1541 -0.1859 -0.4227
 2121TIP3    H230559   4.248   5.190  20.137 -0.0214 -0.5108 -0.9116
 2122TIP3   OH230560   1.953   3.124  19.368 -0.3413  0.1075 -0.2873
 2122TIP3    H130561   1.922   3.189  19.430  0.6845  0.1955  0.1440
 2122TIP3    H230562   2.040   3.154  19.341 -0.3233 -0.4868 -0.9483
 2123TIP3   OH230563   0.059   4.163  18.414  0.2171 -0.1728  0.4647
 2123TIP3    H130564   0.023   4.095  18.469 -2.0883 -1.5235 -2.4420
 2123TIP3    H230565   0.079   4.120  18.331 -1.2630  2.5757 -1.5059
 2124TIP3   OH230566   5.790   1.161  18.487  0.0562 -0.3885 -0.1070
 2124TIP3    H130567   5.715   1.216  18.465  1.0941  0.7848 -0.8732
 2124TIP3    H230568   5.843   1.159  18.407 -0.1623 -2.9428 -0.2825
 2125TIP3   OH230569   4.952   3.053  18.286  0.1969 -0.4888 -0.2451
 2125TIP3    H130570   4.870   3.021  18.324  0.1251  0.0997  0.1004
 2125TIP3    H230571   4.984   3.117  18.350  1.3051 -1.2551 -0.0057
 2126TIP3   OH230572   1.320   3.136  18.941 -0.5119 -0.8530 -0.2264
 2126TIP3    H130573   1.262   3.063  18.920 -0.6338 -0.5318 -1.0325
 2126TIP3    H230574   1.395   3.125  18.882  0.9426 -2.0304  1.6888
 2127TIP3   OH230575   3.565   3.774  18.628  0.1850 -0.2513  0.0461
 2127TIP3    H130576   3.624   3.769  18.553 -0.5097  1.8150 -0.7241
 2127TIP3    H230577   3.622   3.788  18.703  0.8031 -0.7449 -0.3271
 2128TIP3   OH230578   1.574   0.473  19.837 -0.2749 -0.3640 -0.0504
 2128TIP3    H130579   1.543   0.384  19.816 -1.1964 -0.0423 -0.0746
 2128TIP3    H230580   1.500   0.514  19.881  0.6490 -0.0755  1.2795
 2129TIP3   OH230581   0.598   4.919  18.596 -0.1178  0.2296  0.4427
 2129TIP3    H130582   0.519   4.865  18.588 -0.0445  0.0765  0.7259
 2129TIP3    H230583   0.646   4.881  18.670  0.8483 -0.4543 -0.5199
 2130TIP3   OH230584   0.749   4.293  18.438  0.0587  0.5188 -0.3354
 2130TIP3    H130585   0.737   4.289  18.343 -2.0297 -0.5147 -0.0659
 2130TIP3    H230586   0.701   4.371  18.465  0.8624  0.9557 -0.1376
 2131TIP3   OH230587   6.081   4.468  18.805 -0.2864  0.1018 -0.9252
 2131TIP3    H130588   6.133   4.416  18.866 -0.8981 -0.5259 -0.9180
 2131TIP3    H230589   6.038   4.403  18.749 -3.2608  0.3456  0.8381
 2132TIP3   OH230590   3.893   1.912  17.803 -0.3476 -0.2550 -0.0303
 2132TIP3    H130591   3.798   1.917  17.814 -0.2625  1.0882  0.2339
 2132TIP3    H230592   3.908   1.933  17.711 -0.1985  1.2772  0.3322
 2133TIP3   OH230593   4.201   6.203  16.807  0.1618  0.1878 -0.0759
 2133TIP3    H130594   4.251   6.124  16.787  1.7501  0.9321  0.7450
 2133TIP3    H230595   4.124   6.171  16.854  1.7003 -0.8098  1.9457
 2134TIP3   OH230596   0.117   3.589  17.231 -0.4597  0.7297 -0.6104
 2134TIP3    H130597   0.058   3.521  17.263  0.8648 -0.1309  0.1183
 2134TIP3    H230598   0.112   3.659  17.296 -0.5425  0.5829 -0.4585
 2135TIP3   OH230599   0.935   6.568  17.726  0.1836  0.0092  0.2917
 2135TIP3    H130600   0.964   6.477  17.716  1.9442  0.6323 -0.8261
 2135TIP3    H230601   0.846   6.569  17.692  0.4018 -1.1699 -0.3685
 2136TIP3   OH230602   5.254   5.784  18.139 -0.8704 -0.0661  0.4144
 2136TIP3    H130603   5.283   5.712  18.196  0.2211 -0.3589 -0.4840
 2136TIP3    H230604   5.281   5.758  18.051 -0.7355  1.3033  0.0270
 2137TIP3   OH230605   4.099   6.231  18.631  0.2522 -0.1095  0.1935
 2137TIP3    H130606   4.192   6.213  18.643  0.4488  0.4617 -0.4061
 2137TIP3    H230607   4.057   6.189  18.706  1.2869  2.3940  2.3682
 2138TIP3   OH230608   5.560   4.962  16.571  0.5313 -0.1798 -0.0595
 2138TIP3    H130609   5.582   4.894  16.508  1.6098  0.2789 -0.1917
 2138TIP3    H230610   5.493   5.015  16.527  0.4070 -0.5643 -0.3367
 2139TIP3   OH230611   6.074   3.660  19.560  0.2443 -0.4849  0.2129
 2139TIP3    H130612   6.169   3.664  19.572  0.1130  0.7224  0.9962
 2139TIP3    H230613   6.060   3.683  19.468  0.6880 -0.4902  0.1388
 2140TIP3   OH230614   4.543   0.210  19.229 -0.1464 -0.5628  0.5308
 2140TIP3    H130615   4.608   0.267  19.186 -0.8807 -0.4796 -0.5061
 2140TIP3    H230616   4.552   0.230  19.322  0.4406  0.3755  0.2934
 2141TIP3   OH230617   0.337   5.650  19.660  0.0711  0.2454 -0.0690
 2141TIP3    H130618   0.251   5.674  19.696  0.6265 -1.2937  2.6466
 2141TIP3    H230619   0.398   5.710  19.703  0.6439 -0.9113  0.8165
 2142TIP3   OH230620   4.268   1.378  18.761  0.3286 -0.0460 -0.4984
 2142TIP3    H130621   4.184   1.337  18.739 -0.4132  0.8763  0.4838
 2142TIP3    H230622   4.329   1.343  18.696 -1.1472  0.5187 -2.2906
 2143TIP3   OH230623   3.376   1.317  17.069  0.7694  0.0826  0.3114
 2143TIP3    H130624   3.387   1.223  17.083 -0.4623 -0.2530 -0.7653
 2143TIP3    H230625   3.285   1.327  17.041  1.3765  1.3644 -1.4024
 2144TIP3   OH230626   5.986   4.234  19.390  0.0388  0.4443  0.3517
 2144TIP3    H130627   5.967   4.312  19.336 -1.8076  1.7871  2.7323
 2144TIP3    H230628   5.981   4.266  19.480 -0.0420 -2.3035  1.4068
 2145TIP3   OH230629   0.052   5.146  19.608  0.7027  0.1273 -0.3469
 2145TIP3    H130630   0.063   5.141  19.513 -0.6927  1.9774 -0.6769
 2145TIP3    H230631   0.011   5.231  19.623  3.5917  1.2607  2.2015
 2146TIP3   OH230632   3.968   0.191  18.360  0.4160  0.5022  0.0521
 2146TIP3    H130633   3.911   0.175  18.285  1.6226 -0.7344 -0.6630
 2146TIP3    H230634   3.911   0.183  18.436 -0.2924 -1.2438 -0.6071
 2147TIP3   OH230635   5.396   0.909  20.103  0.5273 -0.0768  0.0459
 2147TIP3    H130636   5.412   0.940  20.192  0.3791  1.1330 -0.3309
 2147TIP3    H230637   5.305   0.933  20.085  1.2775  2.0619 -1.3225
 2148TIP3   OH230638   0.960   0.955  18.822  0.4556  0.1024  0.5617
 2148TIP3    H130639   0.921   0.904  18.893  1.9757 -1.0646  0.6111
 2148TIP3    H230640   0.890   1.013  18.792 -0.7053 -0.5712  1.8928
 2149TIP3   OH230641   6.298   4.090  18.055 -0.4409  0.5099  0.3323
 2149TIP3    H130642   6.244   4.020  18.092 -2.8314  0.8813 -2.0787
 2149TIP3    H230643   6.277   4.167  18.108  0.0353  0.0384  1.2330
 2150TIP3   OH230644   5.944   3.620  19.878  0.0160 -0.2316  0.1700
 2150TIP3    H130645   5.986   3.557  19.819 -0.1512 -0.3081  0.1323
 2150TIP3    H230646   5.969   3.706  19.844 -0.3273 -0.2717 -0.1972
 2151TIP3   OH230647   2.755   2.679  18.450  0.1226  0.4743 -0.4133
 2151TIP3    H130648   2.843   2.692  18.415  0.4565 -0.5436  0.0335
 2151TIP3    H230649   2.765   2.615  18.520 -1.0446 -0.0484 -0.6897
 2152TIP3   OH230650   0.570   6.426  19.888 -0.4831 -0.2742  0.1592
 2152TIP3    H130651   0.611   6.341  19.905 -0.4480 -0.3524 -0.2860
 2152TIP3    H230652   0.638   6.491  19.907  0.4113 -0.4624 -2.0932
 2153TIP3   OH230653   1.208   1.299  17.621  0.0558 -0.3953  0.1938
 2153TIP3    H130654   1.238   1.389  17.630  0.6963 -0.5227 -0.5085
 2153TIP3    H230655   1.116   1.302  17.644 -0.5161  0.8822 -1.9521
 2154TIP3   OH230656   3.612   2.155  18.474 -0.4338 -0.0708 -0.1305
 2154TIP3    H130657   3.573   2.236  18.508  0.1009  0.4386 -0.7148
 2154TIP3    H230658   3.704   2.177  18.458 -0.2310 -0.8603 -0.0917
 2155TIP3   OH230659   1.976   0.216  17.992 -1.1597 -1.1972 -0.6757
 2155TIP3    H130660   2.042   0.204  17.924 -1.3530 -0.1729 -1.0642
 2155TIP3    H230661   1.958   0.310  17.991 -0.5773 -1.0187  1.3556
 2156TIP3   OH230662   5.066   2.451  19.528 -0.1154 -0.3742  0.1810
 2156TIP3    H130663   5.083   2.410  19.613 -0.6042 -2.5974 -0.7068
 2156TIP3    H230664   5.153   2.471  19.493  0.1761 -0.9646  0.5391
 2157TIP3   OH230665   3.581   0.470  19.625  0.4931 -0.4604 -0.3009
 2157TIP3    H130666   3.624   0.477  19.539  0.8786  1.8382  0.0086
 2157TIP3    H230667   3.494   0.508  19.612  0.8547  0.7083  0.4673
 2158TIP3   OH230668   4.259   5.559  18.561 -0.1935 -0.0781 -0.2278
 2158TIP3    H130669   4.177   5.529  18.600 -0.8093  1.7562 -0.0183
 2158TIP3    H230670   4.267   5.650  18.588  1.6895 -0.0762 -0.6421
 2159TIP3   OH230671   0.307   5.589  18.159  0.0540 -0.1250 -0.0682
 2159TIP3    H130672   0.382   5.546  18.199  1.2321 -0.3673 -2.3662
 2159TIP3    H230673   0.249   5.518  18.133 -0.8287  0.0432  1.3587
 2160TIP3   OH230674   1.221   0.199  17.874 -0.2962 -0.3789 -0.3047
 2160TIP3    H130675   1.188   0.125  17.925  0.0233 -1.1617 -1.2054
 2160TIP3    H230676   1.313   0.205  17.897  0.0216 -1.1813 -1.2713
 2161TIP3   OH230677   6.062   2.930  19.215 -0.0491  0.0580 -0.3918
 2161TIP3    H130678   6.061   3.016  19.173 -0.4637  0.2572  0.0186
 2161TIP3    H230679   6.125   2.879  19.165  0.4247  0.6974 -0.4473
 2162TIP3   OH230680   1.954   3.794  18.977 -0.3538 -0.3153 -0.0208
 2162TIP3    H130681   1.969   3.702  18.997 -2.0245 -0.2357  1.8691
 2162TIP3    H230682   2.017   3.841  19.033  2.2538 -0.2429 -2.7473
 2163TIP3   OH230683   2.972   0.201  17.358  0.0885 -0.3328 -0.1405
 2163TIP3    H130684   3.023   0.124  17.333 -0.1051 -0.6868  0.5261
 2163TIP3    H230685   2.881   0.170  17.360 -0.0141 -0.0335 -0.0640
 2164TIP3   OH230686   0.982   5.623  20.059  0.0735 -0.2878  0.2223
 2164TIP3    H130687   1.053   5.559  20.047 -0.1446 -0.3403 -0.9105
 2164TIP3    H230688   0.936   5.593  20.137  0.7009 -0.8267  0.3965
 2165TIP3   OH230689   5.030   1.302  19.643 -0.0284 -0.5338  0.0908
 2165TIP3    H130690   4.988   1.261  19.719 -0.8930 -0.9455 -0.5854
 2165TIP3    H230691   5.084   1.233  19.605 -0.5249 -0.6972 -0.3376
 2166TIP3   OH230692   4.445   2.432  17.672 -0.5381  0.0577  0.1285
 2166TIP3    H130693   4.374   2.370  17.655 -1.2232  1.0066 -0.5764
 2166TIP3    H230694   4.435   2.499  17.604 -0.0843  1.1686  1.1312
 2167TIP3   OH230695   1.024   1.593  19.079  0.1151  0.3313 -0.0141
 2167TIP3    H130696   1.044   1.544  19.159 -1.8193 -1.1391 -0.3679
 2167TIP3    H230697   0.967   1.665  19.108 -0.8478 -0.3888 -0.0843
 2168TIP3   OH230698   3.341   0.318  17.246 -0.3095  0.2623 -0.1847
 2168TIP3    H130699   3.341   0.259  17.170 -1.0158 -1.1040  0.8141
 2168TIP3    H230700   3.433   0.329  17.268 -0.1669 -1.6475  0.4141
 2169TIP3   OH230701   2.787   4.305  18.565  0.2514  0.1969 -0.3256
 2169TIP3    H130702   2.772   4.398  18.545  1.9718  0.5002 -0.3631
 2169TIP3    H230703   2.801   4.265  18.479  0.2724  0.0517 -0.2523
 2170TIP3   OH230704   2.173   2.323  19.526 -0.4629  0.2252  0.5176
 2170TIP3    H130705   2.178   2.261  19.599  0.7330 -2.1559 -1.4182
 2170TIP3    H230706   2.264   2.333  19.497 -0.9562  0.7060 -0.9372
 2171TIP3   OH230707   6.538   5.078  17.956  0.4849  0.1109 -0.0372
 2171TIP3    H130708   6.601   5.006  17.961 -1.4122 -1.6383  0.0548
 2171TIP3    H230709   6.589   5.152  17.923  2.3275 -1.5131 -1.0554
 2172TIP3   OH230710   5.925   2.729  17.091 -0.1547  0.6056  0.9042
 2172TIP3    H130711   5.920   2.688  17.004  0.7421  0.3122  0.9789
 2172TIP3    H230712   5.971   2.811  17.077 -0.0098  0.5595  1.1026
 2173TIP3   OH230713   2.500   0.869  17.615  0.2293 -0.1950  0.1360
 2173TIP3    H130714   2.473   0.783  17.647 -2.1714  0.4920  0.2038
 2173TIP3    H230715   2.497   0.862  17.520  1.9380 -0.6847  0.0885
 2174TIP3   OH230716   3.755   0.262  18.134  0.2131  0.2756  0.8567
 2174TIP3    H130717   3.787   0.324  18.069  0.9908 -2.0955 -1.1576
 2174TIP3    H230718   3.728   0.317  18.208 -2.5278  3.3322 -2.0626
 2175TIP3   OH230719   6.678   3.900  18.143 -0.2472 -0.1678  0.5012
 2175TIP3    H130720   6.629   3.947  18.210  0.3208 -1.0613  1.5807
 2175TIP3    H230721   6.617   3.894  18.068 -0.8293  0.9836  0.8640
 2176TIP3   OH230722   4.851   0.632  19.441  0.1730 -0.1926 -0.1607
 2176TIP3    H130723   4.812   0.583  19.513  0.1607  0.7903  0.5212
 2176TIP3    H230724   4.928   0.674  19.480 -0.2047  0.8775 -0.5400
 2177TIP3   OH230725   5.802   4.850  17.590  1.3099 -0.6227 -0.3754
 2177TIP3    H130726   5.860   4.781  17.622  0.9032 -0.6669  0.3047
 2177TIP3    H230727   5.839   4.931  17.626  2.4839 -0.3182 -2.1708
 2178TIP3   OH230728   5.456   1.439  17.637 -0.2841 -0.2816 -0.1412
 2178TIP3    H130729   5.534   1.386  17.649  0.9609  1.1960 -1.2700
 2178TIP3    H230730   5.436   1.473  17.724  0.2596 -0.7828  0.1821
 2179TIP3   OH230731   5.581   3.062  17.496 -0.2293  0.3423 -0.0230
 2179TIP3    H130732   5.666   3.105  17.486 -0.2615  0.7642  1.2475
 2179TIP3    H230733   5.520   3.134  17.510 -0.9985  0.1144 -1.9222
 2180TIP3   OH230734   0.480   2.040  16.502 -0.1786  0.1282  0.3343
 2180TIP3    H130735   0.517   1.991  16.576  0.5495  0.7614  0.3952
 2180TIP3    H230736   0.387   2.016  16.502  0.0362 -0.7632  0.7494
 2181TIP3   OH230737   2.826   2.474  17.175 -0.4422 -0.7576  0.7110
 2181TIP3    H130738   2.912   2.491  17.135 -1.7031  1.8143 -1.2207
 2181TIP3    H230739   2.826   2.528  17.255 -1.1911  1.6616 -0.8018
 2182TIP3   OH230740   0.993   5.370  19.837  0.0570 -0.0132  0.0526
 2182TIP3    H130741   0.983   5.395  19.745  0.4177 -0.7395 -0.1946
 2182TIP3    H230742   0.910   5.397  19.878 -0.7196 -1.0006 -0.7959
 2183TIP3   OH230743   4.201   2.312  19.627  0.3504 -0.3853 -0.0532
 2183TIP3    H130744   4.290   2.284  19.605 -0.2512 -1.0576 -1.8129
 2183TIP3    H230745   4.197   2.403  19.599  0.0181 -0.8345 -1.5728
 2184TIP3   OH230746   3.554   5.921  18.065 -0.2027  0.0152  0.2088
 2184TIP3    H130747   3.553   5.925  17.970  1.6534  0.5035  0.1657
 2184TIP3    H230748   3.472   5.961  18.092  0.4321  2.3939 -1.1509
 2185TIP3   OH230749   0.983   6.219  19.699 -0.5830 -0.0332 -0.0954
 2185TIP3    H130750   0.943   6.209  19.613 -0.5463 -4.3948  0.1594
 2185TIP3    H230751   0.989   6.314  19.713 -0.4724  0.8896 -4.8857
 2186TIP3   OH230752   4.670   5.909  19.342 -0.0682  0.0205 -0.1578
 2186TIP3    H130753   4.613   5.844  19.302 -0.9638 -0.8052  2.3217
 2186TIP3    H230754   4.737   5.858  19.387  0.3402  0.8771  0.2387
 2187TIP3   OH230755   0.941   4.958  20.084 -0.0708  0.1044 -0.4864
 2187TIP3    H130756   0.896   4.883  20.123 -0.0364  1.0655  1.5264
 2187TIP3    H230757   0.871   5.017  20.056 -0.3160  1.8405  3.1119
 2188TIP3   OH230758   6.232   6.254  18.548 -0.1854  0.1713 -0.1806
 2188TIP3    H130759   6.234   6.307  18.468 -1.8238  0.7279  0.1140
 2188TIP3    H230760   6.200   6.313  18.616 -0.6591 -0.8128  0.4747
 2189TIP3   OH230761   1.454   3.738  18.438  0.2040 -0.4409 -0.2847
 2189TIP3    H130762   1.458   3.726  18.343  0.7051  0.5191 -0.3997
 2189TIP3    H230763   1.504   3.818  18.454 -2.3886  1.1919  0.4152
 2190TIP3   OH230764   5.184   2.554  19.262 -0.3200  0.5557  0.2250
 2190TIP3    H130765   5.180   2.641  19.303 -1.0714 -0.4988  2.5652
 2190TIP3    H230766   5.094   2.522  19.267 -0.2487  0.0007 -1.5141
 2191TIP3   OH230767   0.407   2.687  17.741  0.2506 -0.2610 -0.4175
 2191TIP3    H130768   0.473   2.684  17.671  0.0984 -0.5503 -0.5509
 2191TIP3    H230769   0.333   2.638  17.706  0.3477 -0.8052  0.1208
 2192TIP3   OH230770   2.204   4.397  16.369 -0.0233 -0.2782  0.3036
 2192TIP3    H130771   2.245   4.484  16.377  1.0756 -0.7371 -0.0444
 2192TIP3    H230772   2.110   4.415  16.366  0.2367  1.1614 -2.4420
 2193TIP3   OH230773   4.760   0.123  20.226  0.1887  0.2030  0.3516
 2193TIP3    H130774   4.820   0.079  20.166 -0.3411  2.3642 -1.9556
 2193TIP3    H230775   4.674   0.115  20.184 -0.6575 -0.2366  2.0709
 2194TIP3   OH230776   1.018   4.063  17.813 -0.2890  0.5474  0.4392
 2194TIP3    H130777   1.100   4.013  17.804 -1.2079 -1.2201  1.3777
 2194TIP3    H230778   0.954   4.012  17.764 -1.9502 -0.9746  3.8921
 2195TIP3   OH230779   5.625   2.956  19.242 -0.2571 -0.0023  0.5957
 2195TIP3    H130780   5.546   2.952  19.297 -0.0302 -0.4385  0.9030
 2195TIP3    H230781   5.593   2.942  19.153 -0.5356 -0.0939  0.7099
 2196TIP3   OH230782   3.882   1.632  18.335 -0.1669  0.5104 -0.2786
 2196TIP3    H130783   3.852   1.622  18.245 -0.5785  2.3421 -0.3954
 2196TIP3    H230784   3.965   1.586  18.338 -0.8238 -0.7835 -1.1957
 2197TIP3   OH230785   5.774   6.393  18.582  1.2340 -0.0512  0.3473
 2197TIP3    H130786   5.786   6.306  18.621  0.1205 -0.3168  0.1317
 2197TIP3    H230787   5.720   6.440  18.646  1.9264  0.5228  0.5121
 2198TIP3   OH230788   1.032   2.675  18.753 -0.5604 -0.6506 -0.0624
 2198TIP3    H130789   0.967   2.710  18.691 -1.1369  0.3042  1.0376
 2198TIP3    H230790   1.096   2.746  18.762  0.0832 -1.1875 -0.3468
 2199TIP3   OH230791   6.269   3.722  18.797  0.7288 -0.4628  0.0512
 2199TIP3    H130792   6.212   3.745  18.871 -0.7315  0.5790 -1.3242
 2199TIP3    H230793   6.313   3.642  18.825  0.4558  0.0756  2.1591
 2200TIP3   OH230794   2.113   2.570  18.896  0.0014  0.0322  0.4581
 2200TIP3    H130795   2.199   2.596  18.931  0.3340 -1.2771  0.6617
 2200TIP3    H230796   2.092   2.490  18.943 -0.3459 -0.8227 -1.1183
 2201TIP3   OH230797   3.523   0.166  19.167 -0.2697  0.0523  0.4850
 2201TIP3    H130798   3.565   0.253  19.168  0.8055 -0.3469 -1.6707
 2201TIP3    H230799   3.512   0.143  19.259  4.4064  0.1926  1.3299
 2202TIP3   OH230800   6.132   0.216  19.760 -0.4477 -0.0967  0.2458
 2202TIP3    H130801   6.128   0.305  19.795 -1.1473 -0.3648  0.8772
 2202TIP3    H230802   6.107   0.160  19.833  2.1071 -1.0188  0.5362
 2203TIP3   OH230803   0.291   4.999  18.279  0.5990  0.0288  0.4717
 2203TIP3    H130804   0.336   5.067  18.230 -1.6577 -1.0482 -3.5025
 2203TIP3    H230805   0.230   5.047  18.336  0.8528  1.3438 -0.3306
 2204TIP3   OH230806   3.273   3.511  16.755 -0.3630  0.2489  0.0874
 2204TIP3    H130807   3.366   3.492  16.755 -0.0311  1.5601  2.5431
 2204TIP3    H230808   3.231   3.430  16.782 -0.0166 -0.4738 -1.4426
 2205TIP3   OH230809   0.719   2.529  17.723  0.3389  0.1094 -0.2615
 2205TIP3    H130810   0.660   2.517  17.648  0.2950  1.6967 -0.5147
 2205TIP3    H230811   0.788   2.585  17.689  0.6352  0.3561  0.7407
 2206TIP3   OH230812   1.053   0.798  18.427 -0.0820  0.1917 -0.2728
 2206TIP3    H130813   1.039   0.806  18.333 -0.1228  0.1214 -0.2736
 2206TIP3    H230814   1.117   0.865  18.449  0.9623 -0.6872 -0.5803
 2207TIP3   OH230815   0.443   6.294  20.502  0.5272 -0.2917 -0.0098
 2207TIP3    H130816   0.385   6.351  20.452 -0.6911 -1.2929  0.2081
 2207TIP3    H230817   0.437   6.327  20.592 -0.1023 -0.6804  0.0974
 2208TIP3   OH230818   5.228   4.219  17.345 -0.4688 -0.5552  0.2425
 2208TIP3    H130819   5.163   4.238  17.277  0.0254 -1.5517 -0.5377
 2208TIP3    H230820   5.188   4.152  17.399 -0.2215 -0.9587 -0.0648
 2209TIP3   OH230821   5.316   6.210  18.135  0.3630 -0.0580  0.2331
 2209TIP3    H130822   5.267   6.292  18.129 -1.4458 -1.1907 -2.2518
 2209TIP3    H230823   5.249   6.142  18.144  1.5701 -1.5065 -1.0677
 2210TIP3   OH230824   1.481   2.464  19.532 -0.1169 -0.1528 -0.5389
 2210TIP3    H130825   1.545   2.505  19.474  0.0444  1.6411  0.8196
 2210TIP3    H230826   1.437   2.537  19.574 -1.2642 -1.3893  0.5030
 2211TIP3   OH230827   6.213   2.765  19.034 -0.1093 -0.5606 -0.0860
 2211TIP3    H130828   6.163   2.693  18.996  0.6883 -0.6386 -1.0352
 2211TIP3    H230829   6.293   2.769  18.981  0.8570 -0.3812  1.3104
 2212TIP3   OH230830   0.556   3.104  17.584  0.7679  0.7655  0.1776
 2212TIP3    H130831   0.501   3.074  17.512  0.3644  0.8547  0.4461
 2212TIP3    H230832   0.520   3.190  17.607  1.3986  1.0999 -0.0409
 2213TIP3   OH230833   5.414   6.368  19.205  0.1439  0.6483 -0.1974
 2213TIP3    H130834   5.323   6.343  19.187 -0.0092  0.9573  0.1311
 2213TIP3    H230835   5.466   6.295  19.170 -0.2483  0.2973 -0.0618
 2214TIP3   OH230836   1.358   5.496  18.660 -0.8167 -0.3499 -0.0994
 2214TIP3    H130837   1.405   5.523  18.580 -1.0790  2.6387  0.6562
 2214TIP3    H230838   1.319   5.412  18.637  0.4733 -0.3686 -2.5679
 2215TIP3   OH230839   0.524   6.514  19.090  0.2008 -0.0834 -0.0200
 2215TIP3    H130840   0.466   6.446  19.055 -0.6526  1.0925 -0.9592
 2215TIP3    H230841   0.476   6.596  19.076  1.4815  0.7859  0.5097
 2216TIP3   OH230842   1.121   6.335  18.780 -0.7679  0.4562 -0.1874
 2216TIP3    H130843   1.092   6.310  18.867  0.4416  1.3072  0.4852
 2216TIP3    H230844   1.191   6.272  18.759  1.8225  2.6455  1.2315
 2217TIP3   OH230845   4.441   0.647  19.316  0.2072  0.1982  0.1375
 2217TIP3    H130846   4.371   0.674  19.375 -0.6063  2.1778 -1.6260
 2217TIP3    H230847   4.495   0.589  19.369 -1.2783  0.7085  2.3623
 2218TIP3   OH230848   2.104   2.311  17.940 -0.0669  0.1433  0.4307
 2218TIP3    H130849   2.047   2.356  18.002 -0.6295  0.5011 -0.3499
 2218TIP3    H230850   2.180   2.369  17.931 -0.0207  0.1304  0.7114
 2219TIP3   OH230851   2.660   5.386  20.229 -0.2960 -0.0839  0.5390
 2219TIP3    H130852   2.665   5.305  20.278 -1.5752  0.8329  2.3088
 2219TIP3    H230853   2.739   5.435  20.254  0.7940 -0.9697 -1.0018
 2220TIP3   OH230854   1.533   4.626  17.377  0.8338  0.4702  0.2623
 2220TIP3    H130855   1.561   4.689  17.310  0.8309  1.4920  1.1894
 2220TIP3    H230856   1.465   4.672  17.426  2.8993  1.0149  2.9057
 2221TIP3   OH230857   0.272   2.878  17.070  0.0292 -0.0036 -0.2491
 2221TIP3    H130858   0.203   2.856  17.007  1.2849 -0.4940 -1.5121
 2221TIP3    H230859   0.258   2.971  17.088  0.8400  0.7396 -2.9122
 2222TIP3   OH230860   4.750   3.777  20.095  0.7151 -0.2553  0.8481
 2222TIP3    H130861   4.673   3.807  20.046  0.5362 -0.5711  0.9287
 2222TIP3    H230862   4.715   3.744  20.178  1.0001  0.1227  1.1227
 2223TIP3   OH230863   5.917   2.992  18.225  0.3659 -0.6665 -0.1842
 2223TIP3    H130864   5.948   3.011  18.136 -2.5356  0.0073 -1.1730
 2223TIP3    H230865   5.842   2.933  18.212 -0.1353 -0.5527  1.8357
 2224TIP3   OH230866   1.478   4.006  19.396 -0.6081  0.0120 -0.4115
 2224TIP3    H130867   1.394   3.981  19.357 -0.4089 -0.7800 -0.3381
 2224TIP3    H230868   1.456   4.032  19.485 -0.5719 -1.7318  0.1312
 2225TIP3   OH230869   2.093   2.037  18.019 -0.0027 -0.1043 -0.0079
 2225TIP3    H130870   2.146   2.108  17.983  0.0041  0.5902  1.2845
 2225TIP3    H230871   2.157   1.972  18.049  0.1381  0.5706  1.2238
 2226TIP3   OH230872   0.331   0.749  17.660 -0.0886  0.0681 -0.5605
 2226TIP3    H130873   0.280   0.692  17.717  0.0795  1.3248  0.9307
 2226TIP3    H230874   0.272   0.771  17.588 -0.4714 -1.1934 -0.6520
 2227TIP3   OH230875   6.112   2.924  17.045  0.0667  0.1166  0.2840
 2227TIP3    H130876   6.139   2.991  16.982 -1.8399  0.8942  0.2460
 2227TIP3    H230877   6.185   2.920  17.107  0.6816  1.4670 -0.2986
 2228TIP3   OH230878   2.254   5.796  19.282  0.2816 -0.0494 -0.1247
 2228TIP3    H130879   2.263   5.758  19.194  2.8867 -0.3983  0.2024
 2228TIP3    H230880   2.342   5.829  19.303 -0.3549  0.3471  2.2118
 2229TIP3   OH230881   2.864   1.593  18.709 -0.1091  0.1288  0.5833
 2229TIP3    H130882   2.860   1.503  18.676  0.8599  0.1308  0.4250
 2229TIP3    H230883   2.792   1.637  18.665 -0.1918 -0.4160  0.1556
 2230TIP3   OH230884   0.685   4.085  19.148 -0.0200  0.3301 -0.1639
 2230TIP3    H130885   0.649   4.174  19.157  0.7602  0.6042  0.3785
 2230TIP3    H230886   0.635   4.046  19.076 -2.0687  0.3560  1.1472
 2231TIP3   OH230887   2.515   6.033  18.735 -0.9042  0.4389 -0.1016
 2231TIP3    H130888   2.474   6.103  18.786 -1.2378  0.0193  0.2156
 2231TIP3    H230889   2.503   5.954  18.788 -1.8620 -0.1393 -1.1329
 2232TIP3   OH230890   6.653   1.089  17.904 -0.3807  0.3786 -0.0515
 2232TIP3    H130891   6.669   1.116  17.994  0.4396  0.5318 -0.2375
 2232TIP3    H230892   6.603   1.008  17.911 -1.0116  0.8123  0.5308
 2233TIP3   OH230893   4.001   2.878  18.201 -0.1905  0.1785 -0.1556
 2233TIP3    H130894   4.024   2.859  18.292 -0.3486 -0.1977 -0.1938
 2233TIP3    H230895   3.907   2.860  18.196 -0.7072  2.4360  0.1912
 2234TIP3   OH230896   6.494   4.812  19.010  0.4107 -0.1170 -0.0221
 2234TIP3    H130897   6.436   4.855  19.073  0.0937  0.8537 -0.9551
 2234TIP3    H230898   6.435   4.779  18.942  0.8396 -0.3731 -0.2717
 2235TIP3   OH230899   0.448   2.237  19.442  0.3981 -0.5675 -0.2977
 2235TIP3    H130900   0.424   2.238  19.349 -1.6035 -3.5684  0.0433
 2235TIP3    H230901   0.512   2.167  19.450  2.0144  0.9039  0.3884
 2236TIP3   OH230902   1.069   4.818  17.068 -0.5000 -0.1361  0.3195
 2236TIP3    H130903   1.049   4.730  17.039  0.1075 -0.7665  1.7195
 2236TIP3    H230904   1.063   4.814  17.164  0.1392  1.1894  0.4455
 2237TIP3   OH230905   0.211   1.518  20.419 -0.0443 -0.4855  0.2306
 2237TIP3    H130906   0.169   1.526  20.504 -0.1685  1.2376  0.0473
 2237TIP3    H230907   0.184   1.597  20.372  1.4714 -0.5139 -0.7436
 2238TIP3   OH230908   1.590   5.288  19.916  0.0575  0.6441 -0.7339
 2238TIP3    H130909   1.640   5.306  19.837  0.0052 -0.1771 -0.9671
 2238TIP3    H230910   1.581   5.373  19.960 -0.1807  1.1540 -1.7569
 2239TIP3   OH230911   1.533   2.609  17.179 -0.3574  0.5474 -0.2537
 2239TIP3    H130912   1.550   2.694  17.137  0.4401  0.0932 -0.8791
 2239TIP3    H230913   1.438   2.605  17.188 -0.3631  1.8672  0.5612
 2240TIP3   OH230914   5.809   1.845  17.669 -0.6898 -0.4722  0.5560
 2240TIP3    H130915   5.851   1.765  17.638  1.6012  1.0065 -0.5142
 2240TIP3    H230916   5.883   1.905  17.686 -2.2899  1.3754  1.3948
 2241TIP3   OH230917   2.577   2.395  17.128 -0.1430  0.3976 -0.3564
 2241TIP3    H130918   2.662   2.425  17.159 -0.8836  1.9083  0.3183
 2241TIP3    H230919   2.572   2.427  17.038  1.5854 -3.1238 -1.9037
 2242TIP3   OH230920   4.359   0.258  19.746  0.1979 -0.1282  0.4744
 2242TIP3    H130921   4.287   0.200  19.721 -1.0682  1.0183  1.2871
 2242TIP3    H230922   4.412   0.266  19.667  0.8778 -2.9579  0.5390
 2243TIP3   OH230923   4.333   5.879  17.845 -0.5979  0.1452 -0.5620
 2243TIP3    H130924   4.384   5.884  17.765 -0.0423  1.7350 -0.1410
 2243TIP3    H230925   4.242   5.884  17.816 -0.3886  3.3614 -1.0299
 2244TIP3   OH230926   1.855   6.013  16.961  0.5808  0.1154 -0.5891
 2244TIP3    H130927   1.822   6.032  16.874 -0.5952  0.7816 -0.0132
 2244TIP3    H230928   1.906   6.091  16.985  0.7095  0.0286 -0.5766
 2245TIP3   OH230929   2.914   1.026  19.394  0.3341 -0.6888 -0.1672
 2245TIP3    H130930   2.884   1.109  19.358 -2.6010 -1.5886 -0.0605
 2245TIP3    H230931   2.963   0.986  19.322  1.5817  0.9726 -0.2970
 2246TIP3   OH230932   6.460   5.387  18.846  0.0191 -0.1034 -0.0376
 2246TIP3    H130933   6.545   5.425  18.825 -0.2028  0.5131  0.1537
 2246TIP3    H230934   6.453   5.310  18.790  0.5115  0.0897 -0.3674
 2247TIP3   OH230935   4.435   2.933  17.439 -0.2553  0.0132  0.3153
 2247TIP3    H130936   4.475   2.866  17.382  0.3626  0.0642  0.6787
 2247TIP3    H230937   4.343   2.934  17.413 -0.3774 -1.3316  0.6340
 2248TIP3   OH230938   1.039   6.020  18.923 -0.3227  0.0648 -0.6884
 2248TIP3    H130939   1.053   5.946  18.863 -0.2065 -0.9950  0.5831
 2248TIP3    H230940   1.079   5.991  19.005  0.5553  1.9471 -0.4162
 2249TIP3   OH230941   4.196   4.572  20.025  0.2250  0.2320 -0.4630
 2249TIP3    H130942   4.261   4.504  20.040  0.2265 -0.0580 -1.6316
 2249TIP3    H230943   4.218   4.641  20.087  1.5271  0.0514 -0.6990
 2250TIP3   OH230944   4.960   2.817  16.173 -0.1332 -0.1601 -0.2685
 2250TIP3    H130945   4.902   2.741  16.167 -0.0380 -0.1994 -0.7315
 2250TIP3    H230946   4.991   2.816  16.264 -0.8865 -0.1107 -0.0009
 2251TIP3   OH230947   4.174   6.555  19.050  0.6442  0.6324  0.3248
 2251TIP3    H130948   4.097   6.532  19.101 -1.5607  1.6728 -2.3267
 2251TIP3    H230949   4.247   6.518  19.100 -1.6407 -1.9404  2.0661
 2252TIP3   OH230950   5.093   4.670  18.648  0.2890  0.1008 -0.0688
 2252TIP3    H130951   5.187   4.666  18.633  0.4381 -0.5912  0.8875
 2252TIP3    H230952   5.061   4.582  18.627 -0.0199  0.1114  0.3327
 2253TIP3   OH230953   4.423   0.945  17.614 -0.2384 -0.4224 -0.4321
 2253TIP3    H130954   4.508   0.963  17.574  1.3190 -2.5693  1.5986
 2253TIP3    H230955   4.426   0.852  17.636 -2.1084 -0.0176  1.9760
 2254TIP3   OH230956   4.748   1.494  19.834 -0.7178 -0.6579  0.1374
 2254TIP3    H130957   4.787   1.578  19.859 -0.5656 -0.5231 -0.5516
 2254TIP3    H230958   4.819   1.431  19.842 -0.7973 -0.7000  0.5238
 2255TIP3   OH230959   3.638   6.622  19.139  0.0165 -0.0358 -0.5100
 2255TIP3    H130960   3.646   6.616  19.043  0.0252 -0.7097 -0.4713
 2255TIP3    H230961   3.592   6.705  19.154  0.7545  0.4976 -1.0578
 2256TIP3   OH230962   4.249   1.298  19.889  0.0468 -0.4966 -0.1893
 2256TIP3    H130963   4.341   1.324  19.881 -0.0245 -0.0976  0.2290
 2256TIP3    H230964   4.244   1.251  19.972 -0.4222  0.8741  0.5940
 2257TIP3   OH230965   0.763   2.983  16.746  0.1485 -0.1863  0.1970
 2257TIP3    H130966   0.756   2.941  16.832 -0.7399  0.1652  0.3124
 2257TIP3    H230967   0.792   2.914  16.687 -0.5067 -0.7625  0.5380
 2258TIP3   OH230968   5.472   4.479  19.218  0.4205 -0.2743  0.0164
 2258TIP3    H130969   5.471   4.409  19.283 -0.3921  0.4060  0.7531
 2258TIP3    H230970   5.565   4.500  19.208  0.5105  0.2388  1.6653
 2259TIP3   OH230971   1.447   4.549  19.056 -0.6660 -0.2645  0.0129
 2259TIP3    H130972   1.505   4.585  19.123 -1.0215  2.4112 -0.9661
 2259TIP3    H230973   1.501   4.545  18.977 -1.4471  1.3333 -0.6665
 2260TIP3   OH230974   6.570   3.370  19.733  0.3360  0.2190 -0.4112
 2260TIP3    H130975   6.656   3.409  19.717  0.5474 -1.4703 -4.8550
 2260TIP3    H230976   6.510   3.421  19.679 -0.8783 -0.5515  0.1574
 2261TIP3   OH230977   5.108   5.846  17.026  0.1904 -0.2960 -0.2086
 2261TIP3    H130978   5.090   5.752  17.025 -1.4058 -0.0278 -0.5274
 2261TIP3    H230979   5.062   5.879  16.948 -0.2238  0.8824  0.5122
 2262TIP3   OH230980   4.155   3.251  17.545 -0.2466 -0.4201  0.4050
 2262TIP3    H130981   4.091   3.301  17.494 -0.6049 -0.2647  0.9926
 2262TIP3    H230982   4.197   3.316  17.601  1.4475 -0.2775 -0.9721
 2263TIP3   OH230983   6.417   1.918  17.950  0.3083 -0.1429  0.5319
 2263TIP3    H130984   6.506   1.885  17.936  0.7252  1.8260 -2.1950
 2263TIP3    H230985   6.363   1.867  17.889  0.3910  1.6476 -1.1292
 2264TIP3   OH230986   5.992   0.234  17.896 -0.1435  0.2087  0.0282
 2264TIP3    H130987   6.024   0.324  17.889  0.5472 -0.1325 -1.6176
 2264TIP3    H230988   6.028   0.203  17.980  1.4486  0.7730 -0.3991
 2265TIP3   OH230989   0.325   3.293  18.934 -0.2091 -0.2761  0.1218
 2265TIP3    H130990   0.314   3.203  18.967  2.2254 -0.3527  0.9417
 2265TIP3    H230991   0.335   3.282  18.839 -0.2609 -0.8404  0.1735
 2266TIP3   OH230992   2.023   2.476  19.373 -0.2228  0.4925 -0.9832
 2266TIP3    H130993   1.952   2.510  19.428 -2.1065 -2.7485 -1.1394
 2266TIP3    H230994   2.087   2.442  19.435 -1.6310 -1.7763 -0.6489
 2267TIP3   OH230995   5.859   2.243  18.595  0.2875  0.3492 -0.4158
 2267TIP3    H130996   5.822   2.175  18.651  1.0318 -0.2681 -0.6536
 2267TIP3    H230997   5.925   2.286  18.650 -1.2711  1.9673  0.2707
 2268TIP3   OH230998   4.047   0.890  19.103 -0.6714  0.4525  0.8293
 2268TIP3    H130999   3.995   0.946  19.044 -1.5203  0.2075  1.3216
 2268TIP3    H231000   3.983   0.827  19.138  0.1279 -0.3683  0.8376
 2269TIP3   OH231001   5.559   1.332  18.421 -0.0634 -0.6720  0.2932
 2269TIP3    H131002   5.584   1.424  18.432 -1.7084 -0.0370 -0.9736
 2269TIP3    H231003   5.499   1.315  18.493  0.5697 -0.9121  0.7795
 2270TIP3   OH231004   0.558   0.866  18.171  0.3024  0.0286  0.5416
 2270TIP3    H131005   0.646   0.829  18.178 -0.0937 -0.6633  2.7951
 2270TIP3    H231006   0.521   0.856  18.259 -1.7125  1.1225 -0.1159
 2271TIP3   OH231007   3.350   1.887  19.379  0.0610  0.1211 -0.2746
 2271TIP3    H131008   3.438   1.874  19.344 -0.1922 -1.2803 -0.4386
 2271TIP3    H231009   3.314   1.799  19.387 -0.5193  0.4879  1.9176
 2272TIP3   OH231010   0.092   0.461  17.392 -0.0007  0.1937 -0.1326
 2272TIP3    H131011   0.039   0.540  17.378  1.3777  0.7913 -2.4747
 2272TIP3    H231012   0.158   0.463  17.323  1.7897 -1.6323  1.3765
 2273TIP3   OH231013   4.513   5.967  19.552  0.1060  0.2439 -0.4349
 2273TIP3    H131014   4.577   5.957  19.623  1.3748  1.6454 -1.3225
 2273TIP3    H231015   4.566   5.960  19.472 -1.2277 -0.8712 -1.2693
 2274TIP3   OH231016   0.598   5.074  17.994  0.0701 -0.1048 -0.7321
 2274TIP3    H131017   0.573   4.982  18.002 -0.3658 -0.0485 -1.3730
 2274TIP3    H231018   0.580   5.096  17.903  1.5066  0.2308 -0.9611
 2275TIP3   OH231019   6.007   6.514  17.531 -0.2556 -0.3848  0.2581
 2275TIP3    H131020   6.092   6.469  17.532 -0.9508 -1.7799 -0.6736
 2275TIP3    H231021   5.966   6.485  17.450 -2.0278 -0.5004  1.1575
 2276TIP3   OH231022   6.226   1.590  17.553 -0.1676 -0.3888  0.1156
 2276TIP3    H131023   6.132   1.600  17.539 -0.0204 -1.4093 -2.0017
 2276TIP3    H231024   6.238   1.496  17.570  0.4460 -0.2255  0.6233
 2277TIP3   OH231025   5.395   4.075  18.459 -0.4775  0.0173  0.3194
 2277TIP3    H131026   5.444   4.118  18.529 -0.3234 -0.0602  0.2600
 2277TIP3    H231027   5.409   3.981  18.475 -1.9839 -0.0782  1.3103
 2278TIP3   OH231028   0.147   1.200  18.495  0.6258  0.1473 -0.0439
 2278TIP3    H131029   0.233   1.229  18.464  0.3464  0.6384 -0.3679
 2278TIP3    H231030   0.129   1.257  18.570  0.9858 -0.5675  0.6012
 2279TIP3   OH231031   0.369   2.476  18.669  0.5766 -0.6086  0.3809
 2279TIP3    H131032   0.429   2.534  18.621  0.4393 -0.4764  0.3697
 2279TIP3    H231033   0.282   2.506  18.644  0.5048 -0.3771  0.9091
 2280TIP3   OH231034   0.586   6.723  18.732 -0.6314 -0.2970 -0.0170
 2280TIP3    H131035   0.552   6.812  18.721 -1.7812 -0.7575 -0.3383
 2280TIP3    H231036   0.612   6.718  18.824 -0.5936  0.3501  0.0138
 2281TIP3   OH231037   1.811   5.451  19.475 -0.9747 -0.4939  0.3029
 2281TIP3    H131038   1.893   5.405  19.459  0.1239  1.4197  0.1000
 2281TIP3    H231039   1.828   5.541  19.446 -3.3691 -0.1850 -0.3646
 2282TIP3   OH231040   2.305   4.757  18.260 -0.2944 -0.6609 -0.3364
 2282TIP3    H131041   2.257   4.752  18.342  0.3287 -0.5925  0.0354
 2282TIP3    H231042   2.385   4.708  18.276  1.1817  1.7145  0.0623
 2283TIP3   OH231043   0.026   6.015  16.897  0.5054  0.1907  0.8058
 2283TIP3    H131044  -0.053   6.034  16.947 -0.2240  1.7766 -0.8307
 2283TIP3    H231045   0.087   6.084  16.923  1.0438 -0.4837  1.3688
 2284TIP3   OH231046   6.732   5.277  17.829  0.2023 -0.1515  0.5730
 2284TIP3    H131047   6.799   5.209  17.822 -2.3314 -2.9227  0.8211
 2284TIP3    H231048   6.712   5.301  17.738  3.4778  3.0617  0.4849
 2285TIP3   OH231049   5.468   3.031  17.176 -0.7289 -0.4233 -0.0971
 2285TIP3    H131050   5.430   3.052  17.091 -0.1067  1.9459  0.1534
 2285TIP3    H231051   5.526   2.957  17.158  0.7212  1.0858 -2.1346
 2286TIP3   OH231052   2.752   5.887  19.505  0.3027 -0.1183 -0.4416
 2286TIP3    H131053   2.764   5.975  19.541 -0.6922 -0.3399  0.4821
 2286TIP3    H231054   2.790   5.891  19.418  0.5317  1.1483 -0.2939
 2287TIP3   OH231055   1.418   1.447  16.570  0.0277  0.3153 -0.5711
 2287TIP3    H131056   1.384   1.359  16.555 -0.2505 -0.0129  1.6012
 2287TIP3    H231057   1.495   1.433  16.626  0.1585  1.4292 -0.4488
 2288TIP3   OH231058   6.429   2.856  19.778  0.1002  0.5680  0.2649
 2288TIP3    H131059   6.453   2.914  19.706 -0.1282  0.7356  0.3213
 2288TIP3    H231060   6.507   2.852  19.833  1.2352 -1.6834 -1.3602
 2289TIP3   OH231061   3.040   6.669  18.349  0.2334  0.4022 -0.4604
 2289TIP3    H131062   2.968   6.608  18.331  0.1913  0.1693  0.4524
 2289TIP3    H231063   3.076   6.639  18.433  0.8652  1.0201 -0.5054
 2290TIP3   OH231064   5.588   6.378  18.826  0.2221 -0.2049  0.3500
 2290TIP3    H131065   5.514   6.420  18.870  0.4835  1.5097 -0.7235
 2290TIP3    H231066   5.547   6.316  18.765 -0.2804 -0.1502  0.6260
 2291TIP3   OH231067   4.511   5.685  19.009  0.2524 -0.9400  0.0333
 2291TIP3    H131068   4.519   5.629  18.931 -0.2598 -1.2795  0.2177
 2291TIP3    H231069   4.547   5.632  19.080  1.3337 -0.3784 -0.0719
 2292TIP3   OH231070   5.378   1.404  18.880 -0.4051  0.1725 -0.2614
 2292TIP3    H131071   5.376   1.383  18.973  1.3503  1.8387  0.1993
 2292TIP3    H231072   5.315   1.476  18.870  1.0085  1.5004  0.0956
 2293TIP3   OH231073   6.686   1.991  16.326  0.5623  0.4989  0.1636
 2293TIP3    H131074   6.673   1.953  16.239  1.5887 -1.2336  0.7073
 2293TIP3    H231075   6.603   2.033  16.347 -0.4262 -0.8779 -0.8111
 2294TIP3   OH231076   3.778   6.145  16.697 -0.6188  0.2802  0.2659
 2294TIP3    H131077   3.740   6.227  16.728  0.2514  0.5558  0.6259
 2294TIP3    H231078   3.777   6.087  16.774 -0.4096  0.2536  0.2492
 2295TIP3   OH231079   0.779   4.878  17.609 -0.4575 -0.5163 -0.0320
 2295TIP3    H131080   0.853   4.830  17.572  0.2454  0.2215  0.3916
 2295TIP3    H231081   0.720   4.810  17.641 -0.9135 -1.1929 -2.0915
 2296TIP3   OH231082   2.082   1.159  18.178 -0.2963 -0.1431  0.2888
 2296TIP3    H131083   2.059   1.226  18.114  2.1748  1.3224  0.7769
 2296TIP3    H231084   2.126   1.208  18.248 -0.9580 -1.9521  2.0572
 2297TIP3   OH231085   3.029   5.195  16.779 -0.3222  0.0144 -0.2897
 2297TIP3    H131086   2.958   5.202  16.715 -0.9968 -0.2177  0.4210
 2297TIP3    H231087   3.063   5.107  16.767  1.3331  0.8163 -2.1306
 2298TIP3   OH231088   3.033   1.881  16.678  0.5829 -0.7709  0.3223
 2298TIP3    H131089   3.028   1.792  16.644 -0.2441 -0.3941 -0.5716
 2298TIP3    H231090   2.958   1.888  16.738  1.6287 -1.2055  1.7408
 2299TIP3   OH231091   6.529   0.285  18.177 -0.1938  0.5366  0.9147
 2299TIP3    H131092   6.621   0.311  18.179  0.0161 -0.1844  0.7046
 2299TIP3    H231093   6.515   0.241  18.261 -0.2232  0.2088  0.7359
 2300TIP3   OH231094   4.100   6.308  19.883  0.0241 -0.3061 -0.2288
 2300TIP3    H131095   4.028   6.359  19.920  0.6998  0.4370  0.1009
 2300TIP3    H231096   4.097   6.225  19.931 -1.0318 -0.5570 -0.7085
 2301TIP3   OH231097   5.546   6.714  18.875 -0.0525 -0.0757  0.0456
 2301TIP3    H131098   5.509   6.627  18.895 -1.6474  0.8484  1.4588
 2301TIP3    H231099   5.470   6.772  18.878  1.1761  1.5509  0.4099
 2302TIP3   OH231100   2.218   2.464  18.661 -0.9213  0.3803  0.0761
 2302TIP3    H131101   2.261   2.404  18.721 -1.6601 -1.7323 -1.4071
 2302TIP3    H231102   2.163   2.518  18.718  0.1014 -0.0095  1.5004
 2303TIP3   OH231103   0.157   4.986  19.186  0.1540  0.2919  0.2885
 2303TIP3    H131104   0.237   4.999  19.136  0.3676  1.1419  0.8199
 2303TIP3    H231105   0.151   5.064  19.241 -0.9709  0.1698  0.3505
 2304TIP3   OH231106   0.749   0.149  19.457  0.0203  0.3943  0.4783
 2304TIP3    H131107   0.725   0.064  19.420  0.0630  0.9165 -0.8102
 2304TIP3    H231108   0.672   0.177  19.507  0.3521 -0.8081  1.7219
 2305TIP3   OH231109   6.123   5.387  17.509 -0.2815 -0.2072  0.1301
 2305TIP3    H131110   6.080   5.468  17.481 -0.1777 -0.7511 -1.7313
 2305TIP3    H231111   6.204   5.416  17.550 -0.6788  0.6590  0.3371
 2306TIP3   OH231112   2.667   0.731  18.568  0.7804 -0.2732 -0.3989
 2306TIP3    H131113   2.586   0.745  18.519  0.0722  0.6429  0.9742
 2306TIP3    H231114   2.736   0.748  18.505 -0.0974  2.1324 -0.8070
 2307TIP3   OH231115   5.258   2.446  17.185 -0.2732  0.0199 -0.0132
 2307TIP3    H131116   5.185   2.504  17.167  0.4560  0.6585 -1.0182
 2307TIP3    H231117   5.218   2.363  17.211 -1.3822  1.4888  3.5770
 2308TIP3   OH231118   4.863   3.408  18.995 -0.0963 -0.1980  0.2891
 2308TIP3    H131119   4.933   3.474  19.000  0.6961 -0.9018 -0.8490
 2308TIP3    H231120   4.800   3.445  18.933 -0.0099 -0.1778  0.2120
 2309TIP3   OH231121   3.800   4.933  17.371 -0.1943  0.2252 -0.2706
 2309TIP3    H131122   3.817   4.867  17.304  1.5644  1.0112 -0.6597
 2309TIP3    H231123   3.840   4.897  17.451  0.1116  0.4782 -0.3066
 2310TIP3   OH231124   2.290   2.595  19.232 -0.2427  0.3175  0.3177
 2310TIP3    H131125   2.196   2.578  19.231  0.0166 -1.3982 -2.0738
 2310TIP3    H231126   2.302   2.661  19.301 -3.4794  2.4721 -0.9581
 2311TIP3   OH231127   4.813   6.616  18.432 -0.5168 -0.0516 -0.5212
 2311TIP3    H131128   4.766   6.547  18.479 -0.2529 -1.2221 -1.9091
 2311TIP3    H231129   4.798   6.597  18.340  0.1137  1.3822 -0.9472
 2312TIP3   OH231130   0.397   4.724  18.813 -0.0323  0.6660 -0.1679
 2312TIP3    H131131   0.355   4.744  18.897 -0.8255  0.9356 -0.6148
 2312TIP3    H231132   0.476   4.675  18.837 -0.7796 -0.1901  0.6953
 2313TIP3   OH231133   4.064   0.813  20.121 -0.1697 -0.0657  0.0585
 2313TIP3    H131134   4.031   0.756  20.051  2.2876 -1.4357 -0.1009
 2313TIP3    H231135   4.128   0.759  20.167 -0.3370  1.4583  2.1898
 2314TIP3   OH231136   4.011   2.817  17.871  0.3490 -0.2289 -0.5117
 2314TIP3    H131137   4.045   2.892  17.822  0.6529  0.7183  1.0798
 2314TIP3    H231138   4.062   2.817  17.952  0.1113 -1.9648 -0.3259
 2315TIP3   OH231139   6.427   2.280  19.598  0.4210  0.1269 -0.1691
 2315TIP3    H131140   6.340   2.310  19.623  0.5714  1.1624 -0.7947
 2315TIP3    H231141   6.426   2.186  19.613 -0.8057  0.1280 -0.1578
 2316TIP3   OH231142   1.403   6.275  18.306  0.1816  0.1713  0.1637
 2316TIP3    H131143   1.496   6.291  18.291 -0.2248  1.4255 -1.2089
 2316TIP3    H231144   1.361   6.359  18.290 -1.1346 -0.1878  1.5034
 2317TIP3   OH231145   1.108   2.151  17.170  0.1880  0.4334 -0.0236
 2317TIP3    H131146   1.125   2.241  17.197 -0.7395  0.7173 -0.3256
 2317TIP3    H231147   1.181   2.127  17.114  0.5993  0.8893  0.3178
 2318TIP3   OH231148   3.535   0.916  19.019 -0.1973  0.0302  0.1049
 2318TIP3    H131149   3.458   0.961  18.984 -0.4744  0.4382  1.1783
 2318TIP3    H231150   3.503   0.869  19.096  0.3598 -0.9498 -0.2443
 2319TIP3   OH231151   3.125   6.443  19.378 -0.1430 -0.2168  0.2557
 2319TIP3    H131152   3.076   6.385  19.321 -1.6283 -0.1214  1.3744
 2319TIP3    H231153   3.178   6.497  19.319 -2.2672  0.4735 -1.1167
 2320TIP3   OH231154   6.322   1.089  19.019 -0.1090 -0.2661 -0.4072
 2320TIP3    H131155   6.237   1.053  18.997 -0.8192  0.8942  0.3530
 2320TIP3    H231156   6.339   1.154  18.951 -0.6498  0.7435  0.3995
 2321TIP3   OH231157   1.416   0.065  18.643  0.0875  0.8179 -0.2724
 2321TIP3    H131158   1.343   0.009  18.616  0.0980 -0.0119  1.3105
 2321TIP3    H231159   1.488   0.041  18.583  0.0775 -0.8545  0.3342
 2322TIP3   OH231160   1.173   0.061  19.736 -0.3463 -0.7071 -0.0579
 2322TIP3    H131161   1.164   0.075  19.830 -0.5825 -1.3921  0.0277
 2322TIP3    H231162   1.087   0.085  19.701 -0.5316 -1.2540  0.0083
 2323TIP3   OH231163   4.724   3.578  17.412  0.0324  0.3107 -0.0864
 2323TIP3    H131164   4.637   3.595  17.377  1.1894  2.1866 -2.2799
 2323TIP3    H231165   4.761   3.512  17.352  0.7194  0.8046 -0.2144
 2324TIP3   OH231166   2.895   3.798  20.197  0.2498  0.2864  0.2552
 2324TIP3    H131167   2.917   3.860  20.129  1.4927 -0.7877 -0.3651
 2324TIP3    H231168   2.919   3.712  20.161  1.1832 -0.2904  2.1116
 2325TIP3   OH231169   1.291   3.300  18.670 -0.3576 -0.6615  0.7114
 2325TIP3    H131170   1.323   3.387  18.647 -0.1765 -0.3085  2.1844
 2325TIP3    H231171   1.247   3.312  18.754 -2.9993 -1.4444 -0.4756
 2326TIP3   OH231172   6.171   6.262  18.885  0.6548 -0.0395  0.7341
 2326TIP3    H131173   6.115   6.304  18.950 -0.2667  0.5648 -0.4191
 2326TIP3    H231174   6.174   6.323  18.812  1.5907 -0.7492  0.1494
 2327TIP3   OH231175   3.589   0.620  18.041 -0.0200  0.0874 -0.0543
 2327TIP3    H131176   3.543   0.680  17.982  1.0907  0.1224 -0.9200
 2327TIP3    H231177   3.543   0.627  18.124  0.0115  2.0488 -0.1700
 2328TIP3   OH231178   2.389   3.159  18.671 -0.2636  0.3631  0.3012
 2328TIP3    H131179   2.433   3.227  18.620 -1.0325  0.9771  0.4487
 2328TIP3    H231180   2.307   3.142  18.624  0.4502 -1.3653 -0.4355
 2329TIP3   OH231181   2.049   0.200  19.001 -0.1689 -0.2160  0.4378
 2329TIP3    H131182   2.032   0.106  18.998 -1.2400 -0.0225 -0.2331
 2329TIP3    H231183   1.969   0.238  19.038 -0.2261  0.5142 -0.3847
 2330TIP3   OH231184   4.390   6.722  19.336  0.0132 -0.2994  0.2535
 2330TIP3    H131185   4.375   6.641  19.287  2.9800 -1.1820  0.5888
 2330TIP3    H231186   4.341   6.711  19.418 -1.1531 -0.8858 -0.5047
 2331TIP3   OH231187   4.034   3.534  19.459  0.2398  0.2640  0.4625
 2331TIP3    H131188   4.045   3.626  19.484 -0.3010 -0.0596  1.9759
 2331TIP3    H231189   4.095   3.487  19.515  0.0163 -0.3678  0.1833
 2332TIP3   OH231190   2.104   0.283  18.480 -0.0839  0.1229  0.5768
 2332TIP3    H131191   2.052   0.212  18.519 -0.1325 -0.0115  0.2699
 2332TIP3    H231192   2.152   0.320  18.554  0.9564 -1.0881  0.5373
 2333TIP3   OH231193   1.020   2.848  19.331  0.6544  0.0766  0.0563
 2333TIP3    H131194   1.066   2.795  19.266  1.2016 -0.1437  0.6144
 2333TIP3    H231195   1.088   2.874  19.393  0.7576  2.8363 -1.0729
 2334TIP3   OH231196   1.543   2.803  20.166 -0.2283  0.4703 -0.2147
 2334TIP3    H131197   1.604   2.807  20.093 -0.7756  2.3191 -0.6304
 2334TIP3    H231198   1.599   2.795  20.243  0.3767 -1.0051 -0.7825
 2335TIP3   OH231199   2.245   6.308  20.233  0.0221  0.2044  0.3186
 2335TIP3    H131200   2.267   6.248  20.161 -0.0998 -1.0226  1.2679
 2335TIP3    H231201   2.314   6.295  20.297 -0.7894 -0.0205  1.1738
 2336TIP3   OH231202   2.798   4.392  19.602 -0.6187 -0.0155  0.0749
 2336TIP3    H131203   2.850   4.416  19.526 -0.6841 -1.0157 -0.3018
 2336TIP3    H231204   2.843   4.433  19.676 -0.6992  1.1699 -0.5206
 2337TIP3   OH231205   5.226   4.831  17.992  0.3041  0.2155 -0.0347
 2337TIP3    H131206   5.259   4.908  17.946  1.9023  0.3646  1.2610
 2337TIP3    H231207   5.179   4.866  18.068 -1.3082 -0.0525 -0.8731
 2338TIP3   OH231208   2.185   3.501  18.463  0.1738 -0.1619  0.3858
 2338TIP3    H131209   2.280   3.498  18.472  0.6628  2.2703 -2.4045
 2338TIP3    H231210   2.162   3.592  18.481 -1.6095 -0.6052  0.5548
 2339TIP3   OH231211   3.481   5.537  17.793  0.1458  0.3596 -0.2688
 2339TIP3    H131212   3.421   5.470  17.827 -0.1991  0.5997 -0.4060
 2339TIP3    H231213   3.452   5.553  17.704  1.1959 -0.4312 -0.7782
 2340TIP3   OH231214   1.340   3.512  16.630  0.6833  0.2116 -0.3213
 2340TIP3    H131215   1.335   3.430  16.580  1.0833 -0.0554  0.0728
 2340TIP3    H231216   1.409   3.562  16.588  0.1853  0.5134 -0.7950
 2341TIP3   OH231217   4.281   3.852  19.677  0.1258  0.4453 -0.4755
 2341TIP3    H131218   4.299   3.911  19.604  0.7978 -0.7694 -1.3324
 2341TIP3    H231219   4.317   3.897  19.753  1.5346  0.7326 -1.2644
 2342TIP3   OH231220   5.234   2.476  20.144  0.3607  0.3637 -0.3395
 2342TIP3    H131221   5.192   2.394  20.117  1.3489  0.1015 -1.1504
 2342TIP3    H231222   5.209   2.487  20.236 -0.1286 -0.6292 -0.3406
 2343TIP3   OH231223   3.284   5.446  19.545 -0.1138  0.0359  0.3244
 2343TIP3    H131224   3.358   5.402  19.588  0.2251  1.4227  1.2471
 2343TIP3    H231225   3.324   5.492  19.471  0.0792  1.1949  1.1131
 2344TIP3   OH231226   0.298   4.502  19.957 -0.3158  0.5001 -0.5189
 2344TIP3    H131227   0.352   4.461  20.024  1.6271  1.5683 -1.3340
 2344TIP3    H231228   0.210   4.504  19.995 -0.0825 -2.3452  0.3977
 2345TIP3   OH231229   2.066   6.582  17.327 -0.1659 -0.0520 -0.3994
 2345TIP3    H131230   1.987   6.528  17.321  0.4027 -0.8681 -0.7528
 2345TIP3    H231231   2.138   6.518  17.329  0.4421  0.6483  0.8801
 2346TIP3   OH231232   3.658   3.117  20.019  0.2977 -0.2932 -0.0102
 2346TIP3    H131233   3.689   3.045  19.964 -0.3261 -1.1967  0.7751
 2346TIP3    H231234   3.571   3.089  20.048  0.6583  0.0626  1.5356
 2347TIP3   OH231235   1.293   3.969  19.872  0.3901  0.3483  0.3483
 2347TIP3    H131236   1.373   3.948  19.921  1.5217  1.7806 -0.7927
 2347TIP3    H231237   1.324   3.995  19.785 -1.6070 -3.2128 -1.6460
 2348TIP3   OH231238   1.936   6.699  18.949 -0.6226  0.3328 -0.2793
 2348TIP3    H131239   1.907   6.630  19.009  0.6677  0.6762  0.7719
 2348TIP3    H231240   2.016   6.663  18.909 -1.2454  0.2711 -1.5260
 2349TIP3   OH231241   0.798   5.341  20.049  0.1906 -0.0924  0.6735
 2349TIP3    H131242   0.744   5.376  19.977  2.1576 -1.5510 -1.6847
 2349TIP3    H231243   0.745   5.269  20.085 -0.0324 -0.6554 -0.7125
 2350TIP3   OH231244   6.067   4.714  19.955  0.4076  0.1812 -0.6452
 2350TIP3    H131245   5.985   4.681  19.990  2.0793 -1.5287  2.0684
 2350TIP3    H231246   6.102   4.770  20.025  1.9884  0.0623 -1.2818
 2351TIP3   OH231247   3.148   2.216  19.704  0.2948 -0.4382 -0.0625
 2351TIP3    H131248   3.213   2.252  19.644  0.5832  0.3208  0.6849
 2351TIP3    H231249   3.190   2.140  19.744  0.9854  0.4211  0.8925
 2352TIP3   OH231250   5.936   5.695  18.976 -0.0851  0.0213  0.0059
 2352TIP3    H131251   5.841   5.684  18.979  0.0638 -1.4600 -0.2304
 2352TIP3    H231252   5.951   5.757  18.905 -0.7579 -1.5539 -1.5791
 2353TIP3   OH231253   0.474   2.084  17.202  0.2576 -0.0846  0.4222
 2353TIP3    H131254   0.516   2.007  17.240 -0.3944 -0.4154  0.4906
 2353TIP3    H231255   0.416   2.116  17.271  0.4999  0.4572  0.3821
 2354TIP3   OH231256   2.261   4.759  19.856 -0.7427  0.3179 -0.4759
 2354TIP3    H131257   2.342   4.781  19.810 -2.1287  1.3373 -2.5643
 2354TIP3    H231258   2.240   4.671  19.826  0.2701 -0.5347  1.1709
 2355TIP3   OH231259   6.191   5.112  17.531 -0.0057 -0.0771  0.7944
 2355TIP3    H131260   6.157   5.198  17.505 -1.8987 -0.9162  0.3055
 2355TIP3    H231261   6.246   5.129  17.607  0.2520  1.6456  0.2615
 2356TIP3   OH231262   3.182   4.841  19.509 -0.3965 -0.3110  0.1884
 2356TIP3    H131263   3.120   4.907  19.480 -0.4925 -0.3452  0.3152
 2356TIP3    H231264   3.192   4.857  19.603 -1.3401 -1.2254  0.4652
 2357TIP3   OH231265   6.193   6.318  17.515  0.1661 -0.3829 -0.8979
 2357TIP3    H131266   6.167   6.256  17.583  1.7113  0.0077  0.0964
 2357TIP3    H231267   6.271   6.278  17.475  0.1967  0.1433 -1.3709
 2358TIP3   OH231268   0.606   0.695  17.717 -0.2988 -0.5014  0.1873
 2358TIP3    H131269   0.631   0.784  17.743  1.0062 -0.4511 -1.1392
 2358TIP3    H231270   0.511   0.701  17.702 -0.3648  0.4656  0.8362
 2359TIP3   OH231271   0.104   2.978  17.807  0.1871  0.8704  0.1247
 2359TIP3    H131272   0.055   2.902  17.775 -0.7626  1.8001 -0.6910
 2359TIP3    H231273   0.139   3.019  17.728  1.2371  0.9371  0.6068
 2360TIP3   OH231274   1.663   1.899  19.393  0.7647 -0.2338 -0.3378
 2360TIP3    H131275   1.597   1.967  19.409  0.6712 -0.0776 -1.3143
 2360TIP3    H231276   1.689   1.912  19.302  1.6863 -0.7050 -0.1521
 2361TIP3   OH231277   1.480   2.734  17.959  0.0514  0.0593  0.4753
 2361TIP3    H131278   1.523   2.725  18.044  1.7017  2.1407 -0.0407
 2361TIP3    H231279   1.449   2.646  17.938  3.8141 -1.6138  1.1018
 2362TIP3   OH231280   2.477   4.979  20.166 -0.2646 -0.1048  0.1305
 2362TIP3    H131281   2.539   4.983  20.239 -0.7552  1.1448  0.5189
 2362TIP3    H231282   2.459   4.886  20.154  1.8362 -0.5307 -0.1441
 2363TIP3   OH231283   2.095   3.257  16.979 -0.0618 -0.0299  0.1548
 2363TIP3    H131284   2.057   3.216  16.901  0.2828 -2.1045  1.0016
 2363TIP3    H231285   2.140   3.335  16.946  2.2955 -2.1637 -2.2052
 2364TIP3   OH231286   2.039   4.717  19.154  0.3534 -0.2874  0.1356
 2364TIP3    H131287   2.132   4.726  19.172  0.4079  0.8191 -0.6069
 2364TIP3    H231288   2.000   4.796  19.193 -0.3924 -1.1082  1.1127
 2365TIP3   OH231289   2.849   2.379  19.952 -0.3303  0.0181 -0.7767
 2365TIP3    H131290   2.766   2.365  19.998  0.7304 -1.7336  0.7390
 2365TIP3    H231291   2.888   2.292  19.945  1.1349  0.7204 -1.9474
 2366TIP3   OH231292   5.612   0.543  19.021  0.0928  0.1964 -0.1086
 2366TIP3    H131293   5.543   0.492  18.979  1.0800  0.7442 -2.6030
 2366TIP3    H231294   5.566   0.604  19.079 -1.2886 -1.3327  0.4763
 2367TIP3   OH231295   6.190   1.784  17.199 -0.1047  0.6165  0.6072
 2367TIP3    H131296   6.213   1.692  17.183  0.7880  0.7180  1.2411
 2367TIP3    H231297   6.233   1.832  17.129 -0.5549  0.5671  0.2876
 2368TIP3   OH231298   4.880   1.014  18.745  0.0273 -0.1169  0.2650
 2368TIP3    H131299   4.865   1.077  18.815  0.9554 -0.6028  0.9265
 2368TIP3    H231300   4.836   0.934  18.774  0.2839 -0.2745  0.2277
 2369TIP3   OH231301   6.347   5.054  19.965  0.2580  0.7094  0.7402
 2369TIP3    H131302   6.366   5.117  20.034  0.2185  0.3387  1.0967
 2369TIP3    H231303   6.423   5.059  19.906  1.2820 -0.4208  1.8963
 2370TIP3   OH231304   5.762   2.793  17.928 -0.6922  0.0958  0.2030
 2370TIP3    H131305   5.727   2.828  17.845  0.1474 -0.7942 -0.5474
 2370TIP3    H231306   5.799   2.708  17.904  0.6423  0.3479  1.2547
 2371TIP3   OH231307   1.483   1.194  19.568 -0.3372 -0.4323 -0.3115
 2371TIP3    H131308   1.424   1.269  19.559  0.7122  0.5262  0.6079
 2371TIP3    H231309   1.525   1.186  19.482 -2.1230 -1.4665 -1.1636
 2372TIP3   OH231310   1.248   3.808  19.061  0.6957 -0.1453 -0.1837
 2372TIP3    H131311   1.210   3.896  19.063  0.7294 -0.1338  0.1168
 2372TIP3    H231312   1.173   3.750  19.046  0.5199 -0.1357  0.5712
 2373TIP3   OH231313   0.361   4.666  19.089 -0.1349  0.2065 -0.0260
 2373TIP3    H131314   0.450   4.694  19.109 -0.3630  0.9976 -0.1046
 2373TIP3    H231315   0.310   4.689  19.166  0.0696 -2.0109  0.8425
 2374TIP3   OH231316   0.402   5.776  19.374  0.8729  0.2666  0.8933
 2374TIP3    H131317   0.449   5.722  19.311  1.4701 -0.8823  2.2704
 2374TIP3    H231318   0.451   5.859  19.376  1.6572 -0.1860  0.8547
 2375TIP3   OH231319   6.595   1.584  19.382 -0.1494 -0.1911 -0.5695
 2375TIP3    H131320   6.659   1.608  19.450 -1.4606  1.0468  0.2776
 2375TIP3    H231321   6.605   1.651  19.315 -1.1612  0.5586  0.0001
 2376TIP3   OH231322   5.099   2.051  17.820 -0.3396 -0.5126  0.3203
 2376TIP3    H131323   5.035   2.005  17.874  0.1113 -1.2520  0.2366
 2376TIP3    H231324   5.183   2.013  17.845  0.3993  2.0895  2.1992
 2377TIP3   OH231325   3.042   5.470  19.437  0.0014  0.2054 -0.0743
 2377TIP3    H131326   3.014   5.557  19.465 -1.3285  0.9735 -3.3013
 2377TIP3    H231327   3.125   5.455  19.483 -1.3881  1.6334  3.1865
 2378TIP3   OH231328   0.001   2.334  18.026  0.1026 -0.6281  0.3519
 2378TIP3    H131329   0.008   2.268  18.095 -2.4088 -0.9017  0.4471
 2378TIP3    H231330   0.051   2.408  18.058  2.8380 -2.3422  0.3353
 2379TIP3   OH231331   2.100   4.645  17.126  0.5760 -0.2477 -0.2841
 2379TIP3    H131332   2.105   4.689  17.211  2.5994 -0.9398 -0.0190
 2379TIP3    H231333   2.063   4.712  17.068 -1.4667  0.0434  1.1969
 2380TIP3   OH231334   3.707   3.832  20.141 -0.2292  0.1799 -0.5270
 2380TIP3    H131335   3.638   3.861  20.082 -0.6869  0.9563  0.3750
 2380TIP3    H231336   3.782   3.888  20.120 -0.4881  0.6652 -0.1631
 2381TIP3   OH231337   6.539   0.136  18.406 -0.5266  0.2026 -0.1356
 2381TIP3    H131338   6.609   0.148  18.471  0.4505  1.1328 -1.3018
 2381TIP3    H231339   6.525   0.041  18.403  0.4528  0.0278  0.3842
 2382TIP3   OH231340   2.982   5.183  20.035 -0.1789  0.0901  0.7265
 2382TIP3    H131341   2.890   5.182  20.059 -0.2084 -1.6122  0.6866
 2382TIP3    H231342   2.987   5.131  19.955  0.5976  1.6164 -0.2749
 2383TIP3   OH231343   1.728   1.371  19.678  0.0822  0.0137  0.7382
 2383TIP3    H131344   1.730   1.393  19.585  0.1270  0.7747  0.9156
 2383TIP3    H231345   1.642   1.330  19.691  0.3256 -0.6879  0.2419
 2384TIP3   OH231346   3.454   1.524  19.308 -0.0567 -0.0725 -0.4282
 2384TIP3    H131347   3.515   1.588  19.273 -1.9284  1.2421 -1.3998
 2384TIP3    H231348   3.495   1.496  19.391  1.1602  1.8151 -0.3189
 2385TIP3   OH231349   2.995   5.040  20.503  0.9479 -0.3638  0.2793
 2385TIP3    H131350   3.000   4.948  20.480 -0.0948 -0.5491  0.7576
 2385TIP3    H231351   3.056   5.050  20.576  0.0526 -0.9783  1.1271
 2386TIP3   OH231352   5.203   2.551  18.038  0.0291  0.2989 -0.2559
 2386TIP3    H131353   5.275   2.526  17.979  0.9523  0.7412  0.6518
 2386TIP3    H231354   5.205   2.485  18.107 -2.0516 -1.1321 -1.4599
 2387TIP3   OH231355   2.730   4.117  16.903  0.0681  0.6898  0.5386
 2387TIP3    H131356   2.802   4.116  16.840  0.2568  1.9468  0.7069
 2387TIP3    H231357   2.752   4.188  16.964  0.4805 -1.1669  2.7187
 2388TIP3   OH231358   5.911   5.076  18.423  0.1775 -0.2552 -0.2981
 2388TIP3    H131359   5.889   5.120  18.505 -1.0745 -0.8937 -0.2622
 2388TIP3    H231360   5.997   5.037  18.439  0.1735  0.0621  0.5284
 2389TIP3   OH231361   4.882   4.947  19.022 -0.1147 -0.3423 -0.1164
 2389TIP3    H131362   4.826   4.924  18.948 -0.3524  0.2376 -0.1238
 2389TIP3    H231363   4.923   5.030  18.996  1.1725 -1.0404 -0.3317
 2390TIP3   OH231364   3.763   4.852  19.510 -0.2276  0.0353 -0.2670
 2390TIP3    H131365   3.816   4.911  19.456 -1.7571  0.6518 -1.1746
 2390TIP3    H231366   3.816   4.772  19.517  0.7306  0.5402 -1.3124
 2391TIP3   OH231367   4.124   3.912  20.203 -0.4465 -0.0495 -0.3248
 2391TIP3    H131368   4.115   3.980  20.269 -0.2780 -0.4999  0.1648
 2391TIP3    H231369   4.194   3.944  20.145 -1.6989  1.1067 -1.2500
 2392TIP3   OH231370   2.735   3.833  18.731  0.0766 -0.7484 -0.0186
 2392TIP3    H131371   2.714   3.838  18.637 -0.0620 -0.6965  0.0148
 2392TIP3    H231372   2.741   3.924  18.758 -0.7287 -0.7505  0.2118
 2393TIP3   OH231373   5.708   0.134  17.126  0.2856  0.2797  0.0247
 2393TIP3    H131374   5.736   0.211  17.176  1.4109 -1.0969  1.6161
 2393TIP3    H231375   5.626   0.108  17.168  0.7107 -0.2790  0.5314
 2394TIP3   OH231376   0.948   2.727  17.416 -0.2432  0.3127 -0.0643
 2394TIP3    H131377   0.860   2.766  17.420 -1.0232 -1.3969  2.4099
 2394TIP3    H231378   0.964   2.696  17.505  2.4910 -0.3316 -0.6884
 2395TIP3   OH231379   1.820   1.235  17.363  0.0502 -0.2884 -0.5470
 2395TIP3    H131380   1.912   1.241  17.388 -0.3141  0.3267  0.7744
 2395TIP3    H231381   1.820   1.194  17.277  1.3978 -3.5811  0.8501
 2396TIP3   OH231382   0.386   4.030  17.153 -0.3759  0.1242  0.1237
 2396TIP3    H131383   0.301   4.009  17.115 -0.8529 -0.5437  1.4883
 2396TIP3    H231384   0.410   3.952  17.204 -0.7080  1.6180  2.7591
 2397TIP3   OH231385   4.618   5.593  19.617 -0.1153  0.1241  0.5570
 2397TIP3    H131386   4.630   5.641  19.535  0.2696 -0.0539  0.5064
 2397TIP3    H231387   4.678   5.519  19.610 -1.4126 -0.9252  0.2061
 2398TIP3   OH231388   5.698   6.708  19.372  0.2940  0.0899 -0.2309
 2398TIP3    H131389   5.643   6.690  19.448  2.9633 -2.2763  1.3200
 2398TIP3    H231390   5.644   6.683  19.297 -1.4910 -0.0504  1.0458
 2399TIP3   OH231391   0.313   1.746  16.510  0.2758  0.2433  0.0933
 2399TIP3    H131392   0.274   1.832  16.492  0.5639  0.5384  0.8378
 2399TIP3    H231393   0.405   1.765  16.528 -0.0071 -0.0051  1.9373
 2400TIP3   OH231394   0.061   2.527  19.613  0.3679 -0.5209  0.0088
 2400TIP3    H131395   0.055   2.523  19.518 -0.3597 -2.0348  0.0823
 2400TIP3    H231396   0.118   2.454  19.636  2.6590  1.3523  0.6205
 2401TIP3   OH231397   3.043   2.304  18.191  0.2663  0.2508  0.2586
 2401TIP3    H131398   3.108   2.235  18.178  0.3427  0.0015  1.8229
 2401TIP3    H231399   2.959   2.261  18.174  0.3333 -0.1684  0.9478
 2402TIP3   OH231400   3.678   5.306  20.409 -0.1012  0.0256  0.0706
 2402TIP3    H131401   3.654   5.365  20.480 -1.4635  0.3637 -0.6365
 2402TIP3    H231402   3.597   5.261  20.387 -0.1253  1.1166 -2.3593
 2403TIP3   OH231403   0.673   0.179  17.746 -0.2439 -0.5131 -0.0177
 2403TIP3    H131404   0.580   0.167  17.766 -0.4076  1.9441  1.0702
 2403TIP3    H231405   0.691   0.270  17.769  2.2667 -0.6824 -0.9677
 2404TIP3   OH231406   0.321   4.267  19.102  0.0491  0.4266 -0.2827
 2404TIP3    H131407   0.279   4.200  19.048 -0.6448  0.6754 -0.0610
 2404TIP3    H231408   0.282   4.349  19.073  0.0333  0.6125  0.2465
 2405TIP3   OH231409   6.613   0.250  17.360 -0.3902 -0.3578 -0.4808
 2405TIP3    H131410   6.583   0.339  17.338 -3.4387 -0.7057  1.5751
 2405TIP3    H231411   6.669   0.262  17.437 -0.4851 -0.1954 -0.4369
 2406TIP3   OH231412   4.780   0.294  18.285  0.1149 -0.6464 -0.0192
 2406TIP3    H131413   4.850   0.232  18.265 -0.2526 -0.4038 -2.2635
 2406TIP3    H231414   4.699   0.246  18.266 -0.1931  0.2648 -1.1006
 2407TIP3   OH231415   4.618   5.138  20.429  0.0689  0.1737  0.2899
 2407TIP3    H131416   4.584   5.172  20.347 -0.5622  1.6589  1.1357
 2407TIP3    H231417   4.663   5.057  20.404  0.9765  1.2092 -1.6934
 2408TIP3   OH231418   1.569   4.341  19.793 -0.3434 -0.9210  0.2944
 2408TIP3    H131419   1.664   4.341  19.802 -0.2226 -2.5058 -0.5859
 2408TIP3    H231420   1.537   4.379  19.874  1.0742  2.1702 -0.4614
 2409TIP3   OH231421   0.522   4.937  19.283  0.5674  0.4551  0.1500
 2409TIP3    H131422   0.466   4.981  19.347 -0.1993 -0.2988  0.0153
 2409TIP3    H231423   0.611   4.958  19.311  0.2348  2.1902  0.0103
 2410TIP3   OH231424   0.008   0.113  19.828 -0.0977 -0.0876  0.3691
 2410TIP3    H131425  -0.083   0.143  19.838  0.0455  0.4753  0.0563
 2410TIP3    H231426   0.029   0.073  19.912 -0.4853  0.2063  0.6141
 2411TIP3   OH231427   3.385   1.118  19.811  0.1342 -0.5658  0.1397
 2411TIP3    H131428   3.372   1.106  19.717 -2.7984 -0.6978  0.4449
 2411TIP3    H231429   3.401   1.030  19.845  2.2383 -0.3922 -0.3079
 2412TIP3   OH231430   5.765   0.806  19.273  0.2971 -0.3742  0.0500
 2412TIP3    H131431   5.793   0.879  19.217 -1.5920  0.1119 -0.3296
 2412TIP3    H231432   5.781   0.837  19.362  0.1193  0.2563 -0.1307
 2413TIP3   OH231433   3.027   2.623  19.024 -0.0534 -0.0515 -0.4692
 2413TIP3    H131434   3.079   2.548  18.997  1.5710 -0.5190  3.3385
 2413TIP3    H231435   2.936   2.592  19.019  0.4077 -1.3144 -1.5101
 2414TIP3   OH231436   6.670   4.850  19.993 -0.1635 -0.4883 -0.4623
 2414TIP3    H131437   6.575   4.865  19.987  0.0606  1.0167 -0.7325
 2414TIP3    H231438   6.704   4.877  19.907  0.7193  1.0409  0.3217
 2415TIP3   OH231439   5.660   4.157  18.345  0.2517  0.5898 -0.2966
 2415TIP3    H131440   5.673   4.081  18.289  1.1384  0.5634 -0.0662
 2415TIP3    H231441   5.581   4.138  18.395 -0.2658  0.3924 -1.1658
 2416TIP3   OH231442   1.188   1.922  17.559  0.2713  0.3425 -0.2499
 2416TIP3    H131443   1.098   1.952  17.573  0.3546 -0.0125  1.2450
 2416TIP3    H231444   1.240   2.002  17.556 -0.1818  0.6199 -2.2025
 2417TIP3   OH231445   3.913   0.442  17.320 -0.6498 -0.2026 -0.0899
 2417TIP3    H131446   3.874   0.481  17.398  1.3532  1.6340  0.1142
 2417TIP3    H231447   4.004   0.424  17.346 -0.5621 -1.7292 -1.3271
 2418TIP3   OH231448   4.816   2.042  19.189 -0.3603 -0.1101  0.5679
 2418TIP3    H131449   4.771   2.040  19.273  0.5589 -0.2014  1.0782
 2418TIP3    H231450   4.883   2.110  19.199  0.2332 -0.6186  0.1651
 2419TIP3   OH231451   0.443   2.295  16.378  0.1808 -0.0816 -0.0018
 2419TIP3    H131452   0.453   2.201  16.392  0.1800  0.0547  0.9943
 2419TIP3    H231453   0.371   2.321  16.435  0.7294  0.6680  0.3754
 2420TIP3   OH231454   4.560   2.038  18.655 -0.2967  0.5320 -0.4958
 2420TIP3    H131455   4.627   1.971  18.668  0.7634  1.6689  0.1479
 2420TIP3    H231456   4.491   2.015  18.716  0.6141  0.6994  0.6298
 2421TIP3   OH231457   6.190   4.914  17.960 -0.6081 -0.3946 -0.0365
 2421TIP3    H131458   6.223   5.004  17.955  0.6126 -0.8339 -0.4164
 2421TIP3    H231459   6.189   4.894  18.054  3.7204 -1.5018  0.0064
 2422TIP3   OH231460   0.671   2.418  19.262 -0.1655 -0.2511  0.0396
 2422TIP3    H131461   0.576   2.414  19.270 -0.2427  0.0234 -0.6454
 2422TIP3    H231462   0.703   2.415  19.352 -0.7640 -1.5946  0.2343
 2423TIP3   OH231463   1.264   3.505  20.090 -0.8592 -0.4099  0.1835
 2423TIP3    H131464   1.323   3.529  20.019 -1.8636 -2.1042 -1.3217
 2423TIP3    H231465   1.230   3.588  20.123  1.0381  0.4907 -0.0411
 2424TIP3   OH231466   3.339   0.557  19.581  0.0109 -0.1108 -0.1464
 2424TIP3    H131467   3.291   0.533  19.661 -1.5708  1.8249 -0.4343
 2424TIP3    H231468   3.314   0.648  19.565  0.8574 -0.2302 -2.4631
 2425TIP3   OH231469   3.476   0.410  18.732  0.3348 -0.2941 -0.4473
 2425TIP3    H131470   3.439   0.326  18.706 -0.3035 -0.2626  0.3197
 2425TIP3    H231471   3.503   0.398  18.823 -2.0135  0.9953  0.5145
 2426TIP3   OH231472   1.202   5.108  17.172  0.1643 -0.2859 -0.0556
 2426TIP3    H131473   1.285   5.077  17.208  0.6751  2.7809  1.8092
 2426TIP3    H231474   1.225   5.148  17.088  0.8231  1.4354  0.9041
 2427TIP3   OH231475   3.502   4.641  17.342  0.1546 -0.8147 -0.3572
 2427TIP3    H131476   3.524   4.591  17.264  0.3943 -0.4754 -0.5126
 2427TIP3    H231477   3.445   4.583  17.394 -2.1719 -0.1339 -1.9766
 2428TIP3   OH231478   2.813   5.327  16.624 -0.0143  0.0110 -0.5518
 2428TIP3    H131479   2.757   5.384  16.571  1.4091  1.8680 -0.1652
 2428TIP3    H231480   2.841   5.382  16.697  2.0010 -0.9408 -0.5286
 2429TIP3   OH231481   5.016   2.777  18.284  0.0226 -0.2466 -0.0644
 2429TIP3    H131482   5.107   2.778  18.314 -0.3019 -0.6555  0.9607
 2429TIP3    H231483   4.993   2.870  18.275  0.5699 -0.1402 -0.4468
 2430TIP3   OH231484   6.380   3.694  16.336  0.0359 -0.4426  0.1019
 2430TIP3    H131485   6.448   3.748  16.296 -0.4667 -0.1170 -0.3182
 2430TIP3    H231486   6.339   3.750  16.401  0.8927 -0.9897  1.1639
 2431TIP3   OH231487   0.605   4.493  18.591 -0.2837 -0.1735  0.4968
 2431TIP3    H131488   0.549   4.567  18.567  1.2084  0.4842 -1.2368
 2431TIP3    H231489   0.692   4.531  18.602  0.0755 -1.3284  1.9940
 2432TIP3   OH231490   6.014   2.528  17.284 -0.2108 -0.5317  0.0593
 2432TIP3    H131491   5.952   2.460  17.310 -0.5000 -0.6660 -0.9332
 2432TIP3    H231492   5.961   2.589  17.232  0.6982 -1.2593 -1.8091
 2433TIP3   OH231493   2.712   5.221  20.018  0.1988 -0.2855  0.5078
 2433TIP3    H131494   2.681   5.278  20.088 -0.5251 -2.1551  1.7662
 2433TIP3    H231495   2.739   5.282  19.949 -0.0817  1.5843  1.9514
 2434TIP3   OH231496   3.548   5.863  17.596 -0.5440 -0.4300  0.7190
 2434TIP3    H131497   3.476   5.801  17.583  0.1126 -1.3457  1.3329
 2434TIP3    H231498   3.627   5.811  17.578  0.0002  0.3251  0.9048
 2435TIP3   OH231499   3.639   2.208  18.881  0.3437 -0.1486 -0.1164
 2435TIP3    H131500   3.665   2.116  18.874 -1.3312 -1.2387  4.4881
 2435TIP3    H231501   3.721   2.255  18.893  1.0456 -1.7604  1.9901
 2436TIP3   OH231502   2.701   0.437  18.290  0.0209 -0.6581 -0.0437
 2436TIP3    H131503   2.782   0.485  18.271  0.7787 -0.8797  2.2708
 2436TIP3    H231504   2.688   0.381  18.213 -0.2388  2.2531 -2.2948
 2437TIP3   OH231505   5.313   0.015  19.340 -0.2118 -0.3050 -0.0126
 2437TIP3    H131506   5.305   0.110  19.348  1.4053 -0.1899  0.5813
 2437TIP3    H231507   5.229  -0.019  19.371 -1.1615  0.9397 -1.1043
 2438TIP3   OH231508   2.566   4.007  19.159 -0.4560 -0.4464  0.5306
 2438TIP3    H131509   2.546   3.951  19.084  0.9640 -0.5612  0.2104
 2438TIP3    H231510   2.580   3.946  19.232  0.1993 -0.4717  0.3918
 2439TIP3   OH231511   2.016   6.405  19.065 -0.4811  0.2342 -0.1292
 2439TIP3    H131512   2.000   6.364  18.980  0.1146  0.6547 -0.4458
 2439TIP3    H231513   1.930   6.408  19.107 -0.4764 -1.9220  0.1687
 2440TIP3   OH231514   1.840   0.970  18.233  0.1041  0.1679  0.4189
 2440TIP3    H131515   1.833   0.901  18.168  0.5004 -1.3893  1.9475
 2440TIP3    H231516   1.922   1.015  18.212 -0.0275  0.0233 -0.4338
 2441TIP3   OH231517   4.757   0.549  18.214  0.1259 -0.1803 -0.4215
 2441TIP3    H131518   4.782   0.462  18.246  3.7201  0.1669 -1.7751
 2441TIP3    H231519   4.773   0.607  18.288  1.2188 -0.2815 -0.5589
 2442TIP3   OH231520   3.743   3.838  18.438 -0.0067  0.1442 -0.0870
 2442TIP3    H131521   3.749   3.765  18.377  0.5635 -0.3320  0.5257
 2442TIP3    H231522   3.818   3.894  18.416 -0.1691  0.3018 -0.2428
 2443TIP3   OH231523   6.610   4.675  17.673  0.4919  0.0304 -0.1090
 2443TIP3    H131524   6.705   4.679  17.662  0.4728  1.2569  0.0708
 2443TIP3    H231525   6.576   4.741  17.612 -0.3209 -1.0722 -0.8941
 2444TIP3   OH231526   3.847   3.096  19.730  0.3069  0.4381 -0.3059
 2444TIP3    H131527   3.936   3.129  19.746  0.1224  0.3123  1.1518
 2444TIP3    H231528   3.845   3.012  19.775 -1.3595  1.6806  2.1490
 2445TIP3   OH231529   1.508   6.240  17.937 -0.0521  0.0952 -0.3967
 2445TIP3    H131530   1.506   6.334  17.918  0.0804 -0.1573 -1.7483
 2445TIP3    H231531   1.563   6.232  18.015 -1.2730  1.2664  0.6254
 2446TIP3   OH231532   1.790   0.413  18.939  0.0262  0.1982 -0.4865
 2446TIP3    H131533   1.775   0.357  18.863  0.1567 -0.3198 -0.1306
 2446TIP3    H231534   1.704   0.452  18.957 -0.3527 -0.8320  0.0119
 2447TIP3   OH231535   3.135   0.784  17.575  0.0707 -0.1253 -0.4094
 2447TIP3    H131536   3.063   0.830  17.532  0.6211  0.6494 -0.5355
 2447TIP3    H231537   3.110   0.692  17.573 -1.1402  0.1769 -0.0097
 2448TIP3   OH231538   1.177   4.206  18.655  0.3601 -0.4617  0.0465
 2448TIP3    H131539   1.139   4.221  18.569 -2.2857 -2.2668  0.7452
 2448TIP3    H231540   1.158   4.286  18.704  0.3210 -0.1017 -0.5440
 2449TIP3   OH231541   1.671   3.354  19.197 -0.2858  0.6005 -0.4795
 2449TIP3    H131542   1.667   3.449  19.183  1.4381  0.6027 -1.2866
 2449TIP3    H231543   1.681   3.317  19.109  1.3816 -0.1219 -0.0341
 2450TIP3   OH231544   5.229   2.152  19.044  0.0821  0.3054 -0.3873
 2450TIP3    H131545   5.187   2.180  18.963 -0.3679 -0.7055 -0.5129
 2450TIP3    H231546   5.323   2.156  19.025  0.0578  2.0930 -0.2632
 2451TIP3   OH231547   6.325   4.623  17.371 -0.0191  0.2346 -0.1563
 2451TIP3    H131548   6.231   4.616  17.356 -0.0226  0.5089 -0.2748
 2451TIP3    H231549   6.335   4.700  17.428  0.1223  0.1322 -0.0405
 2452TIP3   OH231550   2.789   3.362  18.451 -0.2626 -0.4984 -0.7223
 2452TIP3    H131551   2.883   3.356  18.433  0.3462  2.9287  0.5514
 2452TIP3    H231552   2.783   3.374  18.545 -1.9346 -0.0817 -0.8539
 2453TIP3   OH231553   2.480   4.013  17.441 -0.4209  0.0889  0.6261
 2453TIP3    H131554   2.439   4.037  17.524 -0.2788  0.7051  0.5220
 2453TIP3    H231555   2.423   3.945  17.405 -1.1818  0.7213  0.6253
 2454TIP3   OH231556   1.415   4.914  19.224  0.6054  0.1119  0.0684
 2454TIP3    H131557   1.506   4.917  19.254  0.5260 -0.2366  0.3481
 2454TIP3    H231558   1.364   4.942  19.300  0.6346  3.1016 -0.9003
 2455TIP3   OH231559   4.555   2.127  16.790  0.1162  0.1651 -0.4467
 2455TIP3    H131560   4.579   2.105  16.880 -0.3565 -0.5452 -0.4875
 2455TIP3    H231561   4.639   2.127  16.743  0.2063 -1.0243 -0.3250
 2456TIP3   OH231562   6.165   1.696  19.703  0.2400 -0.5881  0.3180
 2456TIP3    H131563   6.249   1.718  19.742  0.8948 -0.8741 -0.8709
 2456TIP3    H231564   6.138   1.615  19.747  0.4566 -0.3567  0.8825
 2457TIP3   OH231565   2.045   4.858  20.023  0.1290  0.1081  0.4539
 2457TIP3    H131566   2.125   4.852  19.969  0.7989  0.9371  1.3051
 2457TIP3    H231567   1.988   4.917  19.974  0.4401  0.2894  0.3044
 2458TIP3   OH231568   3.125   1.293  19.021 -0.1617 -0.1747  0.0015
 2458TIP3    H131569   3.115   1.371  19.076  1.0086 -0.2261  0.3078
 2458TIP3    H231570   3.125   1.220  19.082  1.0201 -0.2405 -0.0464
 2459TIP3   OH231571   6.478   6.277  18.925  0.1391 -0.3761 -0.0900
 2459TIP3    H131572   6.537   6.318  18.988 -0.5242  0.7367 -0.1728
 2459TIP3    H231573   6.391   6.284  18.964 -0.0736 -1.1132 -0.4124
 2460TIP3   OH231574   4.138   4.321  17.401 -0.6226 -0.0008 -0.2751
 2460TIP3    H131575   4.107   4.293  17.488  0.4439  0.3824  0.2553
 2460TIP3    H231576   4.074   4.285  17.340 -2.6625  1.5822  0.7929
 2461TIP3   OH231577   2.674   2.002  18.565  0.3077  0.5350 -0.3409
 2461TIP3    H131578   2.735   2.026  18.495 -0.1115 -1.1164 -1.3278
 2461TIP3    H231579   2.597   2.057  18.551  0.8679  1.3886 -0.1427
 2462TIP3   OH231580   1.213   2.325  17.790  0.2752  0.0612 -0.1503
 2462TIP3    H131581   1.174   2.282  17.866  0.3027  0.3191  0.0089
 2462TIP3    H231582   1.191   2.268  17.716 -0.9793  0.5418 -0.1686
 2463TIP3   OH231583   3.416   4.980  18.066  0.3058  0.6736  0.0511
 2463TIP3    H131584   3.457   5.053  18.020  4.5216 -0.1015  2.1313
 2463TIP3    H231585   3.373   5.021  18.142 -0.9618  1.2863 -0.9545
 2464TIP3   OH231586   3.421   5.324  19.298 -0.0809  0.6676  0.1933
 2464TIP3    H131587   3.406   5.417  19.317  4.6433  1.6407  0.2076
 2464TIP3    H231588   3.455   5.323  19.209  3.3499 -0.4383  1.3702
 2465TIP3   OH231589   6.384   1.049  18.116 -0.5630  0.1946  0.2289
 2465TIP3    H131590   6.374   1.084  18.204 -0.2071 -0.6711  0.6288
 2465TIP3    H231591   6.336   1.110  18.060 -1.3937  0.3699  1.1071
 2466TIP3   OH231592   6.730   4.900  16.320 -0.0653  0.1300  0.1234
 2466TIP3    H131593   6.765   4.821  16.280  2.9847  2.0256 -1.3451
 2466TIP3    H231594   6.693   4.949  16.247 -1.4344  0.3289  0.9220
 2467TIP3   OH231595   6.166   6.626  17.950 -0.2813  0.6610 -0.0106
 2467TIP3    H131596   6.199   6.550  17.902 -0.1040  0.7703 -0.0616
 2467TIP3    H231597   6.071   6.620  17.943 -0.3464 -0.5016  1.4026
 2468TIP3   OH231598   4.050   6.036  18.140 -0.3615  0.8048 -0.2115
 2468TIP3    H131599   3.958   6.033  18.166 -0.3280 -0.4413 -0.1546
 2468TIP3    H231600   4.097   6.059  18.219 -0.5778  0.7958 -0.0805
 2469TIP3   OH231601   6.337   4.528  17.077  0.3098 -0.1787  0.3800
 2469TIP3    H131602   6.313   4.555  17.166 -0.8043 -0.0212  0.0441
 2469TIP3    H231603   6.317   4.604  17.023 -0.1967 -0.6985 -0.1775
 2470TIP3   OH231604   3.873   2.229  18.393  0.1099  0.2947  0.1431
 2470TIP3    H131605   3.846   2.311  18.352  1.4468  0.9127  0.4264
 2470TIP3    H231606   3.904   2.175  18.320 -0.7953  0.0289 -0.0477
 2471TIP3   OH231607   2.809   5.565  18.804  0.0792 -0.1386  0.0390
 2471TIP3    H131608   2.795   5.506  18.730  0.7511 -0.9674  0.5589
 2471TIP3    H231609   2.899   5.549  18.832  0.4746  1.5392 -0.1516
 2472TIP3   OH231610   4.130   0.072  18.676  0.2048 -0.1885 -0.4212
 2472TIP3    H131611   4.036   0.062  18.693 -0.1901  0.6292 -1.9210
 2472TIP3    H231612   4.169  -0.008  18.712 -0.9903 -0.3273  0.6558
 2473TIP3   OH231613   1.319   3.595  17.863 -0.0094  0.3230 -0.5037
 2473TIP3    H131614   1.356   3.508  17.849 -2.3044 -0.5520 -1.7017
 2473TIP3    H231615   1.317   3.634  17.776  0.2854  1.2824 -0.0867
 2474TIP3   OH231616   2.256   4.541  20.365  0.2580 -0.0218 -0.1377
 2474TIP3    H131617   2.178   4.489  20.380  0.3259 -0.3695 -0.9826
 2474TIP3    H231618   2.314   4.520  20.439 -0.8289  1.0224  1.0684
 2475TIP3   OH231619   3.887   4.373  19.004  0.5021 -0.5088 -0.1302
 2475TIP3    H131620   3.824   4.395  19.073  1.4601 -0.2115  0.6819
 2475TIP3    H231621   3.843   4.306  18.952 -0.2844 -0.6829  0.7220
 2476TIP3   OH231622   4.294   3.115  19.753 -0.1031 -0.5636  0.3130
 2476TIP3    H131623   4.353   3.133  19.680 -2.0609 -1.8175 -1.6923
 2476TIP3    H231624   4.279   3.200  19.794  1.5433  0.0607 -0.3152
 2477TIP3   OH231625   2.324   4.301  17.972 -0.3760 -0.1837  0.4453
 2477TIP3    H131626   2.387   4.235  17.946 -0.8529 -0.1910 -0.7637
 2477TIP3    H231627   2.241   4.253  17.982 -0.1541 -0.2459  2.3872
 2478TIP3   OH231628   6.627   0.545  19.434  0.3390 -0.6515 -0.1678
 2478TIP3    H131629   6.573   0.603  19.488 -0.8683 -2.4394  0.6441
 2478TIP3    H231630   6.712   0.543  19.479  1.4431  2.6544 -1.7848
 2479TIP3   OH231631   0.986   2.859  19.805  0.0854 -1.2657 -0.3582
 2479TIP3    H131632   1.028   2.794  19.862 -1.1379 -0.9309  0.9849
 2479TIP3    H231633   0.902   2.877  19.847  0.4371  1.2873 -0.6203
 2480TIP3   OH231634   5.174   4.229  20.288  0.0079  0.2211 -0.0831
 2480TIP3    H131635   5.217   4.162  20.341 -3.0559 -1.4785  0.4718
 2480TIP3    H231636   5.194   4.205  20.198 -0.5886 -1.1449  0.1334
 2481TIP3   OH231637   3.582   3.097  18.607 -0.1083  0.0600  0.0770
 2481TIP3    H131638   3.522   3.131  18.541  0.4609 -2.2302 -1.7813
 2481TIP3    H231639   3.550   3.009  18.625  1.1513 -0.2267  1.0561
 2482TIP3   OH231640   5.262   6.376  17.479  0.3180  0.2766 -0.0008
 2482TIP3    H131641   5.258   6.350  17.571 -0.0377 -0.0244 -0.1016
 2482TIP3    H231642   5.171   6.377  17.450  0.2821  1.8323  0.0510
 2483TIP3   OH231643   1.594   2.641  19.317  0.3795  0.2705  0.3591
 2483TIP3    H131644   1.534   2.610  19.250  1.4328 -1.2838  0.0741
 2483TIP3    H231645   1.674   2.662  19.269  0.6588  0.5628  0.9423
 2484TIP3   OH231646   3.046   4.324  16.822 -0.3146 -0.3110 -0.1346
 2484TIP3    H131647   2.953   4.344  16.832 -0.3632 -0.8150  0.4450
 2484TIP3    H231648   3.079   4.394  16.765 -1.0929 -0.2574 -0.5333
 2485TIP3   OH231649   5.448   3.837  19.983 -0.3580  0.2575 -0.2038
 2485TIP3    H131650   5.355   3.824  19.967  0.0792 -0.1595 -2.7872
 2485TIP3    H231651   5.456   3.930  20.007 -1.5062  0.0783  0.9605
 2486TIP3   OH231652   2.718   5.342  19.264 -0.6209 -0.1212 -0.1283
 2486TIP3    H131653   2.792   5.286  19.240 -1.3066 -0.8764 -0.5280
 2486TIP3    H231654   2.696   5.389  19.183 -1.5356 -1.0357 -0.4306
 2487TIP3   OH231655   6.274   2.476  17.303  0.3192  0.8265 -0.3988
 2487TIP3    H131656   6.180   2.495  17.307  0.2256  0.0858  2.4404
 2487TIP3    H231657   6.316   2.558  17.329  0.4476  0.8549 -0.6846
 2488TIP3   OH231658   3.225   2.467  18.017 -0.3892 -0.8374 -0.4342
 2488TIP3    H131659   3.299   2.407  18.009 -0.4153 -1.1841  1.5473
 2488TIP3    H231660   3.156   2.415  18.058 -1.0110  0.0728 -0.2953
 2489TIP3   OH231661   3.725   0.457  19.380  0.5515  0.4159 -0.1339
 2489TIP3    H131662   3.717   0.424  19.291  0.7629 -0.9663  0.3316
 2489TIP3    H231663   3.801   0.514  19.378  1.5175 -0.8333 -0.5227
 2490TIP3   OH231664   2.159   3.495  18.811 -0.0779  0.0800  0.6282
 2490TIP3    H131665   2.087   3.458  18.760  1.3203 -3.1878  0.7772
 2490TIP3    H231666   2.127   3.496  18.901 -0.3776 -0.1386  0.5251
 2491TIP3   OH231667   6.056   1.609  19.356 -0.8363 -0.5035  0.5025
 2491TIP3    H131668   6.019   1.589  19.270  0.2123 -1.3008  0.2302
 2491TIP3    H231669   5.980   1.613  19.414 -1.5061 -0.4644 -0.3588
 2492TIP3   OH231670   2.937   4.042  19.310 -0.0789  0.4161 -0.1408
 2492TIP3    H131671   2.962   3.977  19.244 -0.1483  3.4637 -3.4799
 2492TIP3    H231672   3.020   4.074  19.345  0.0379  0.1250 -0.1515
 2493TIP3   OH231673   4.452   2.079  18.176 -0.5644 -0.1973 -0.4090
 2493TIP3    H131674   4.396   2.005  18.196 -0.4304 -0.2600 -0.2652
 2493TIP3    H231675   4.431   2.145  18.243 -1.2730  0.2125 -1.0231
 2494TIP3   OH231676   4.692   5.543  17.832  0.0737 -0.3766  0.3653
 2494TIP3    H131677   4.612   5.527  17.783  0.7643  2.0088 -1.7703
 2494TIP3    H231678   4.684   5.489  17.910 -3.5727 -0.2907  0.2182
 2495TIP3   OH231679   5.008   6.022  18.380 -0.0899  0.8058 -0.5313
 2495TIP3    H131680   5.073   5.970  18.427 -1.5609 -0.6512 -0.0267
 2495TIP3    H231681   5.019   6.111  18.414  0.7091  0.3149  0.5448
 2496TIP3   OH231682   5.890   2.252  17.485  0.5426  0.1302 -0.3999
 2496TIP3    H131683   5.811   2.259  17.539 -0.5031  2.0439 -2.0384
 2496TIP3    H231684   5.955   2.305  17.531  0.3937 -0.2019  0.1927
 2497TIP3   OH231685   5.215   4.135  20.035  0.4318  0.5551 -0.2099
 2497TIP3    H131686   5.159   4.071  19.990 -0.4391  0.0754  1.4641
 2497TIP3    H231687   5.300   4.127  19.992  0.5037 -2.1475  0.2847
 2498TIP3   OH231688   2.375   5.542  18.023  0.1576  0.1282  0.3982
 2498TIP3    H131689   2.389   5.450  18.049 -2.0768  0.1288  1.9332
 2498TIP3    H231690   2.355   5.587  18.105  0.7759  1.9361 -0.3955
 2499TIP3   OH231691   1.882   3.312  17.635  0.2063 -0.4238  0.1587
 2499TIP3    H131692   1.951   3.372  17.609  0.0111 -0.2194  0.1118
 2499TIP3    H231693   1.928   3.237  17.673  0.6041 -1.4977 -2.2570
 2500TIP3   OH231694   6.498   0.208  17.865 -0.1018  0.0811  0.5877
 2500TIP3    H131695   6.584   0.172  17.887  0.7748  2.0338  0.4877
 2500TIP3    H231696   6.469   0.156  17.790  1.2840 -0.1902  0.2154
 2501TIP3   OH231697   6.007   0.247  17.070 -0.5949 -1.1124 -0.7354
 2501TIP3    H131698   6.083   0.269  17.124  1.2770 -3.4325 -2.2559
 2501TIP3    H231699   5.932   0.283  17.119  1.3186  0.2717  1.3906
 2502TIP3   OH231700   5.672   0.237  18.087  0.3280 -0.5391 -0.0618
 2502TIP3    H131701   5.640   0.247  18.176  0.3767 -0.1505 -0.0859
 2502TIP3    H231702   5.763   0.208  18.097  0.0494 -1.4326  0.0054
 2503TIP3   OH231703   1.236   2.381  19.407 -0.4422 -0.1806  0.6682
 2503TIP3    H131704   1.235   2.302  19.461  0.1836 -0.6838 -0.0328
 2503TIP3    H231705   1.323   2.419  19.420  0.0805 -0.8344 -0.7030
 2504TIP3   OH231706   2.308   6.350  19.472  0.6710  0.0014  0.2830
 2504TIP3    H131707   2.344   6.379  19.388  1.6684 -1.9332 -0.0097
 2504TIP3    H231708   2.216   6.332  19.453  1.0669 -1.1794 -0.6321
 2505TIP3   OH231709   0.202   4.003  18.873 -0.5126 -0.2396 -0.2334
 2505TIP3    H131710   0.237   4.043  18.793 -0.2444 -1.3396 -0.6770
 2505TIP3    H231711   0.116   4.045  18.886 -0.3012  0.3670 -0.7545
 2506TIP3   OH231712   0.825   3.924  18.262 -0.0159  0.2276  0.2424
 2506TIP3    H131713   0.780   3.840  18.271  0.2563  0.2107  1.4745
 2506TIP3    H231714   0.808   3.970  18.344 -1.2524  1.9328 -0.8701
 2507TIP3   OH231715   5.591   3.855  20.311 -0.0188 -0.0986 -0.8379
 2507TIP3    H131716   5.537   3.789  20.266 -0.0115 -0.4012 -0.4110
 2507TIP3    H231717   5.583   3.832  20.404  1.2463 -0.4596 -0.7994
 2508TIP3   OH231718   0.836   2.100  17.220 -0.1449  0.0757 -0.1978
 2508TIP3    H131719   0.782   2.039  17.171 -0.9373 -0.1234  0.8935
 2508TIP3    H231720   0.920   2.101  17.174 -0.8229 -0.1990 -1.4615
 2509TIP3   OH231721   6.409   2.876  18.852  0.0955  0.8629  0.2354
 2509TIP3    H131722   6.451   2.931  18.918  0.5959 -0.4034  1.0248
 2509TIP3    H231723   6.404   2.931  18.774  1.6112  1.6588  0.6540
 2510TIP3   OH231724   5.423   6.326  18.361 -0.3259  0.4290  0.1316
 2510TIP3    H131725   5.393   6.277  18.284  0.4389 -0.1451  0.1891
 2510TIP3    H231726   5.518   6.325  18.354 -0.1218 -1.4540  2.1690
 2511TIP3   OH231727   2.726   6.581  17.721 -0.0290 -0.2432 -0.0342
 2511TIP3    H131728   2.743   6.506  17.664 -0.6602  0.5487 -1.3053
 2511TIP3    H231729   2.739   6.657  17.665 -1.3615  0.5457  0.6810
 2512TIP3   OH231730   3.457   4.066  19.237 -0.4447  0.5927  0.1798
 2512TIP3    H131731   3.448   3.984  19.286  1.9898 -0.0892 -0.3440
 2512TIP3    H231732   3.414   4.049  19.153  0.7436 -0.5163 -0.2447
 2513TIP3   OH231733   5.074   5.544  18.107  0.2457  0.9009  0.5583
 2513TIP3    H131734   5.091   5.601  18.032  0.0646 -0.1675 -0.3204
 2513TIP3    H231735   5.158   5.503  18.126 -0.3668 -1.4331 -1.3041
 2514TIP3   OH231736   5.595   0.132  17.851 -0.1356  0.1727 -0.4575
 2514TIP3    H131737   5.634   0.162  17.934  0.3960 -2.5428  0.4025
 2514TIP3    H231738   5.668   0.128  17.790 -0.1221  0.2544 -0.4459
 2515TIP3   OH231739   6.438   1.112  20.121  0.1089  0.4074 -0.3344
 2515TIP3    H131740   6.515   1.096  20.176 -0.2827  1.4637  0.5529
 2515TIP3    H231741   6.390   1.182  20.166 -1.7484 -0.6909 -0.4961
 2516TIP3   OH231742   3.817   3.144  17.216 -0.4498  0.6591  0.7739
 2516TIP3    H131743   3.809   3.146  17.120 -0.6347 -0.6115  0.7405
 2516TIP3    H231744   3.791   3.055  17.240 -0.0789  0.8601  1.9869
 2517TIP3   OH231745   1.772   0.519  18.539 -0.4271 -0.4134  0.1642
 2517TIP3    H131746   1.686   0.556  18.557  0.0967  0.9486  0.0004
 2517TIP3    H231747   1.831   0.567  18.597  0.3724 -0.5352 -0.5323
 2518TIP3   OH231748   0.696   2.775  18.760 -0.5172  0.5305 -0.1406
 2518TIP3    H131749   0.734   2.861  18.774  0.0055  0.0677  1.6152
 2518TIP3    H231750   0.731   2.721  18.831 -2.0931 -0.7074 -0.2289
 2519TIP3   OH231751   0.838   0.574  17.369  0.1240  0.3901  0.2111
 2519TIP3    H131752   0.772   0.522  17.414  0.2400  0.0742  0.0204
 2519TIP3    H231753   0.900   0.510  17.334 -0.6376  0.5123 -1.4808
 2520TIP3   OH231754   3.692   4.522  16.420 -0.0858  0.0653  0.0158
 2520TIP3    H131755   3.771   4.500  16.468 -0.2759  2.2669  1.4955
 2520TIP3    H231756   3.723   4.549  16.333  0.5377 -1.1655 -0.1671
 2521TIP3   OH231757   4.515   2.277  19.925  0.4134 -0.2434  0.2503
 2521TIP3    H131758   4.527   2.370  19.907 -1.0717 -0.4877 -2.5645
 2521TIP3    H231759   4.430   2.271  19.969 -0.3991 -0.3656 -1.2782
 2522TIP3   OH231760   6.025   2.869  19.474 -0.2977  0.4084 -0.3585
 2522TIP3    H131761   6.068   2.847  19.391  0.5129 -0.1220  0.1878
 2522TIP3    H231762   6.096   2.904  19.528 -1.0327  1.8152 -0.2631
 2523TIP3   OH231763   1.238   5.744  19.760  0.4096  0.0650  0.5535
 2523TIP3    H131764   1.277   5.818  19.714  0.5517 -0.2876  0.1014
 2523TIP3    H231765   1.229   5.774  19.850  0.7467  0.5244  0.4390
 2524TIP3   OH231766   3.377   0.664  17.857 -0.3135 -0.2223 -0.4082
 2524TIP3    H131767   3.324   0.708  17.924 -1.0655  0.3473 -1.3488
 2524TIP3    H231768   3.313   0.620  17.801  0.1745  0.6484 -1.6983
 2525TIP3   OH231769   2.484   3.609  17.302 -0.3666  0.6144 -0.4718
 2525TIP3    H131770   2.551   3.670  17.274 -0.1413 -0.0695 -1.4829
 2525TIP3    H231771   2.401   3.653  17.283 -0.2057  0.8643 -0.5958
 2526TIP3   OH231772   1.321   4.261  17.017  0.4753 -0.3778  0.2066
 2526TIP3    H131773   1.347   4.291  16.929 -3.1301 -0.1344 -0.9345
 2526TIP3    H231774   1.383   4.305  17.076  1.0023  2.1321 -2.0035
 2527TIP3   OH231775   0.918   5.628  19.463 -0.1828 -0.2423  0.2553
 2527TIP3    H131776   0.934   5.697  19.527  1.1171 -0.7369  0.4895
 2527TIP3    H231777   0.960   5.659  19.383 -1.7294  0.3349 -0.3883
 2528TIP3   OH231778   3.037   0.768  17.213 -0.0633 -0.4431  0.2225
 2528TIP3    H131779   3.054   0.859  17.236 -0.7167 -0.1994 -0.2275
 2528TIP3    H231780   3.014   0.771  17.120  0.1927 -1.1058  0.1350
 2529TIP3   OH231781   0.141   2.994  16.644 -0.1084 -0.2042  0.3621
 2529TIP3    H131782   0.133   2.911  16.596 -0.5075  0.1855 -0.2621
 2529TIP3    H231783   0.096   3.058  16.588  1.5121  0.7362  0.0827
 2530TIP3   OH231784   2.422   2.914  18.323  0.7405 -0.0751  0.1621
 2530TIP3    H131785   2.344   2.868  18.354  0.4597  1.8414  2.6403
 2530TIP3    H231786   2.483   2.845  18.297 -0.4887 -1.7490  1.5299
 2531TIP3   OH231787   1.910   3.371  17.302 -0.1323  0.0766 -0.2963
 2531TIP3    H131788   1.922   3.277  17.311  1.0780  0.2023 -0.4561
 2531TIP3    H231789   1.829   3.390  17.349  0.3704 -0.8399  0.9904
 2532TIP3   OH231790   5.397   3.693  19.469  0.7582  0.1491 -0.1129
 2532TIP3    H131791   5.349   3.625  19.516 -1.2378  3.4064  3.1358
 2532TIP3    H231792   5.347   3.708  19.390 -0.8088  0.1188  0.8288
 2533TIP3   OH231793   6.592   2.943  17.061  0.3082  0.0601 -0.1235
 2533TIP3    H131794   6.514   2.932  17.007  0.0048  0.5135  0.2151
 2533TIP3    H231795   6.663   2.957  16.998 -0.1449  1.2361 -0.3971
 2534TIP3   OH231796   0.067   5.458  19.786  0.6472  0.1558  0.1938
 2534TIP3    H131797  -0.012   5.430  19.740  0.4851  1.4093 -0.3370
 2534TIP3    H231798   0.087   5.544  19.749  2.0400  0.0320  0.5943
 2535TIP3   OH231799   3.430   3.344  18.953 -0.1400 -0.0834  1.2545
 2535TIP3    H131800   3.414   3.290  19.030 -1.7512  0.0414  1.0376
 2535TIP3    H231801   3.497   3.296  18.903 -0.9677 -1.4936  1.4517
 2536TIP3   OH231802   3.516   5.151  18.623  0.1138 -0.4674 -0.2432
 2536TIP3    H131803   3.534   5.110  18.538  0.9230  0.0432 -0.3272
 2536TIP3    H231804   3.514   5.245  18.605 -1.3104 -0.4296  0.0264
 2537TIP3   OH231805   1.637   5.685  17.049 -0.9748 -0.3941  0.1231
 2537TIP3    H131806   1.665   5.594  17.034 -2.0032 -0.8686  0.9244
 2537TIP3    H231807   1.574   5.702  16.979 -0.7699 -0.2903 -0.0364
 2538TIP3   OH231808   2.500   3.329  18.503  0.2710 -0.1327 -0.6964
 2538TIP3    H131809   2.590   3.361  18.503  1.0591 -2.1730 -1.5262
 2538TIP3    H231810   2.451   3.396  18.455  1.1086  1.5012  0.6301
 2539TIP3   OH231811   2.290   2.867  18.951  0.0450 -0.3528 -0.3093
 2539TIP3    H131812   2.343   2.787  18.955 -1.0411 -1.0776  0.3602
 2539TIP3    H231813   2.261   2.871  18.861 -0.7584 -1.3339 -0.1190
 2540TIP3   OH231814   3.795   0.045  17.586 -1.0529  0.2426  0.3306
 2540TIP3    H131815   3.728   0.008  17.529 -2.5681  3.4749 -0.2018
 2540TIP3    H231816   3.793  -0.011  17.664 -1.7160 -1.9152 -1.1295
 2541TIP3   OH231817   1.121   0.051  17.652 -0.0154 -0.4953 -0.3100
 2541TIP3    H131818   1.072  -0.027  17.679  1.2635 -1.5377 -0.9065
 2541TIP3    H231819   1.121   0.106  17.730  1.2785 -2.2672  1.0485
 2542TIP3   OH231820   6.448   4.859  19.739  0.2930  0.0216  0.1289
 2542TIP3    H131821   6.450   4.765  19.720 -0.8767 -0.2595  1.2854
 2542TIP3    H231822   6.491   4.900  19.663 -1.5471 -1.2356 -1.6810
 2543TIP3   OH231823   1.212   5.575  17.196 -0.0074 -0.5870 -0.4003
 2543TIP3    H131824   1.180   5.502  17.249  1.3126 -0.0513  1.2428
 2543TIP3    H231825   1.253   5.533  17.120 -1.6129 -1.3963 -0.8457
 2544TIP3   OH231826   5.006   0.191  19.212 -0.6404 -0.4114  0.0376
 2544TIP3    H131827   4.936   0.167  19.152  0.0031 -2.0467 -0.1067
 2544TIP3    H231828   5.015   0.116  19.270  1.4435 -0.5607 -0.3890
 2545TIP3   OH231829   6.337   3.405  16.340  0.8527  0.4110  0.5733
 2545TIP3    H131830   6.280   3.384  16.415 -1.3747 -1.2911 -1.4253
 2545TIP3    H231831   6.332   3.500  16.332 -1.3000  0.3733  0.8448
 2546TIP3   OH231832   1.968   3.435  19.976  0.1372  0.2223  0.0131
 2546TIP3    H131833   1.902   3.391  20.029  0.6160  0.0649  0.4910
 2546TIP3    H231834   2.031   3.470  20.040 -0.5372  2.1400 -0.2870
 2547TIP3   OH231835   1.147   2.534  19.116 -0.6583  0.5975 -0.0371
 2547TIP3    H131836   1.089   2.531  19.192 -0.7596  2.2684 -0.0060
 2547TIP3    H231837   1.093   2.501  19.044 -0.9122  0.0279  0.4070
 2548TIP3   OH231838   4.714   3.082  19.898 -0.0887 -0.0365  0.2725
 2548TIP3    H131839   4.788   3.128  19.936  0.1501 -0.8358  0.8112
 2548TIP3    H231840   4.741   3.061  19.808  0.5563 -0.7833  0.6317
 2549TIP3   OH231841   5.331   3.118  18.306 -0.0137 -0.1540 -0.0185
 2549TIP3    H131842   5.308   3.137  18.215 -2.0395 -2.1378 -0.0132
 2549TIP3    H231843   5.426   3.105  18.304  0.3773  2.3015 -1.3115
 2550TIP3   OH231844   3.470   4.160  17.248 -0.0955  0.0492 -0.3779
 2550TIP3    H131845   3.414   4.099  17.296 -0.6644  0.8267 -0.0328
 2550TIP3    H231846   3.500   4.110  17.172  1.5455 -1.5080  1.1865
 2551TIP3   OH231847   2.332   0.415  19.704  0.1846 -0.0089 -0.1874
 2551TIP3    H131848   2.413   0.382  19.743  0.4611  0.5433 -0.2914
 2551TIP3    H231849   2.341   0.392  19.611  1.5516  2.5613 -0.7823
 2552TIP3   OH231850   0.070   4.818  19.441 -0.0442 -0.4322 -0.4484
 2552TIP3    H131851   0.141   4.756  19.424  0.6172 -0.0349  0.7024
 2552TIP3    H231852   0.080   4.885  19.373  0.2553 -0.7450 -0.7170
 2553TIP3   OH231853   0.713   3.465  18.197  0.0254 -0.4858  0.5177
 2553TIP3    H131854   0.693   3.469  18.291 -1.7567  2.4123  0.1253
 2553TIP3    H231855   0.718   3.371  18.178 -2.5936 -1.2556  2.9336
 2554TIP3   OH231856   1.259   0.662  18.058  0.0620 -0.3183  0.5869
 2554TIP3    H131857   1.324   0.593  18.070 -0.7732 -1.1287  0.6250
 2554TIP3    H231858   1.180   0.615  18.031 -0.3501  0.6921 -0.0066
 2555TIP3   OH231859   0.421   0.329  17.774  0.3652 -0.3591  0.0081
 2555TIP3    H131860   0.344   0.285  17.808  0.9379 -0.7397  0.8312
 2555TIP3    H231861   0.386   0.398  17.717 -0.5472 -1.4025 -0.7264
 2556TIP3   OH231862   0.605   1.564  18.705 -0.3684 -0.4735  0.2752
 2556TIP3    H131863   0.671   1.563  18.774 -0.6732  1.0216  0.6323
 2556TIP3    H231864   0.532   1.513  18.740 -0.1355 -0.5506  0.6468
 2557TIP3   OH231865   2.196   4.769  18.910  0.3877  0.0014 -0.1200
 2557TIP3    H131866   2.193   4.797  18.819  1.7367 -1.8538 -0.8064
 2557TIP3    H231867   2.232   4.680  18.906 -0.5367 -0.5314  2.1382
 2558TIP3   OH231868   0.964   5.492  17.845  0.2333 -0.1209  0.4323
 2558TIP3    H131869   0.937   5.490  17.937  0.4538 -0.5514  0.4879
 2558TIP3    H231870   1.017   5.413  17.834  1.3413  0.6329  0.2792
 2559TIP3   OH231871   4.963   0.113  18.142 -0.4503 -0.5078 -0.3692
 2559TIP3    H131872   4.928   0.047  18.082  0.1845  0.0680 -1.4193
 2559TIP3    H231873   5.029   0.159  18.090  0.4765 -0.2966  0.9382
 2560TIP3   OH231874   0.454   5.737  18.520 -0.2755  0.0657  0.1300
 2560TIP3    H131875   0.432   5.756  18.611  0.3946  0.1282  0.2809
 2560TIP3    H231876   0.524   5.672  18.526 -0.4605 -0.1809 -0.3467
 2561TIP3   OH231877   5.071   2.252  20.094  0.1866  0.0536  0.0183
 2561TIP3    H131878   5.130   2.181  20.118 -0.6345 -1.1643 -1.3875
 2561TIP3    H231879   4.984   2.218  20.114 -0.3765 -0.1941 -2.4662
 2562TIP3   OH231880   4.242   5.161  19.262 -0.2252 -0.6731  0.0055
 2562TIP3    H131881   4.152   5.172  19.292 -0.1830  2.4103 -0.7055
 2562TIP3    H231882   4.234   5.135  19.170 -0.4522  0.9183 -0.4514
 2563TIP3   OH231883   3.887   2.680  19.363  0.0813  0.3169 -0.4895
 2563TIP3    H131884   3.973   2.719  19.345  0.2725 -0.7671 -2.0350
 2563TIP3    H231885   3.880   2.607  19.303 -1.5274 -0.2394  0.3149
 2564TIP3   OH231886   0.073   5.570  17.569 -0.7082 -0.2481  0.0818
 2564TIP3    H131887   0.164   5.598  17.578 -0.7270  0.0177 -0.5504
 2564TIP3    H231888   0.077   5.475  17.561 -0.3308 -0.0958 -1.8531
 2565TIP3   OH231889   4.215   2.780  17.238  0.1648  0.5732 -0.1401
 2565TIP3    H131890   4.159   2.813  17.309  1.0199  0.9234  0.3820
 2565TIP3    H231891   4.169   2.703  17.206 -0.6068  0.8361  0.2976
 2566TIP3   OH231892   4.953   3.578  17.573 -0.3478  0.0874 -0.0442
 2566TIP3    H131893   4.941   3.655  17.628  0.7763 -0.7952  1.5212
 2566TIP3    H231894   4.870   3.569  17.525 -1.4829  0.7462  1.7122
 2567TIP3   OH231895   2.282   5.112  19.064  0.2168 -0.0194 -0.4272
 2567TIP3    H131896   2.285   5.187  19.123 -0.8664  0.6540 -1.1856
 2567TIP3    H231897   2.189   5.104  19.041  0.3853 -1.3057 -0.7292
 2568TIP3   OH231898   6.536   0.481  19.182 -0.1188  0.1863 -0.2445
 2568TIP3    H131899   6.489   0.399  19.196  2.0393 -0.8509  1.6546
 2568TIP3    H231900   6.571   0.503  19.268  3.0648  0.6836 -1.5299
 2569TIP3   OH231901   0.575   4.375  19.642 -0.2746 -0.8816 -0.3355
 2569TIP3    H131902   0.521   4.446  19.608 -0.3896 -0.9410 -0.2793
 2569TIP3    H231903   0.512   4.315  19.682 -0.0270 -0.0921  1.3093
 2570TIP3   OH231904   4.979   5.831  19.759 -0.3080 -0.1726  0.2989
 2570TIP3    H131905   5.052   5.774  19.735 -0.6785 -0.7452  0.4953
 2570TIP3    H231906   5.009   5.878  19.836  0.2462  0.3921 -0.2540
 2571TIP3   OH231907   1.764   5.575  18.123 -0.4708 -0.0926  0.7431
 2571TIP3    H131908   1.776   5.489  18.082  1.6653 -0.5262  2.0946
 2571TIP3    H231909   1.718   5.626  18.057  0.3113 -1.5748 -1.0778
 2572TIP3   OH231910   4.143   0.095  19.746  0.0354  0.3834  0.3001
 2572TIP3    H131911   4.049   0.114  19.750 -0.1672 -0.7410  1.2531
 2572TIP3    H231912   4.151   0.026  19.680  0.0707 -0.1633  0.8686
 2573TIP3   OH231913   1.296   2.022  16.951 -0.0413 -0.0609 -0.2365
 2573TIP3    H131914   1.332   1.964  16.884 -1.3166 -0.7209 -0.3752
 2573TIP3    H231915   1.344   1.999  17.031  0.6836 -0.0699 -0.6658
 2574TIP3   OH231916   5.909   0.106  18.143  0.5407 -0.3096  1.1001
 2574TIP3    H131917   5.912   0.034  18.080  0.8305  0.9850 -0.4335
 2574TIP3    H231918   5.956   0.073  18.220 -0.7130 -2.3086  1.0963
 2575TIP3   OH231919   3.900   4.628  19.592  0.5610 -0.1344 -0.2373
 2575TIP3    H131920   3.890   4.539  19.627 -0.4243  0.3300  0.7159
 2575TIP3    H231921   3.917   4.682  19.669  1.5796  0.4597 -0.8546
 2576TIP3   OH231922   5.732   2.575  17.226  0.5906 -0.2365 -0.4895
 2576TIP3    H131923   5.774   2.638  17.168  0.8437 -0.4570 -0.5463
 2576TIP3    H231924   5.638   2.593  17.217  0.7287  1.6235  1.1856
 2577TIP3   OH231925   2.801   4.085  16.568 -0.6663 -0.4342 -0.1228
 2577TIP3    H131926   2.811   4.046  16.481  0.5440  2.3837 -1.3641
 2577TIP3    H231927   2.735   4.154  16.556  0.5003  0.9077  0.7903
 2578TIP3   OH231928   3.374   4.581  18.188 -0.3194  0.2600 -0.0591
 2578TIP3    H131929   3.441   4.641  18.156 -0.1168  1.1102  1.8213
 2578TIP3    H231930   3.422   4.502  18.214 -0.4038 -0.1656 -1.1365
 2579TIP3   OH231931   5.953   0.357  18.497 -0.3943 -0.3093  0.0877
 2579TIP3    H131932   5.893   0.367  18.571 -1.7106  1.9462 -1.2141
 2579TIP3    H231933   6.007   0.282  18.522 -2.7142 -1.5029  2.0009
 2580TIP3   OH231934   4.635   0.125  17.795 -0.3131  0.2342  0.5042
 2580TIP3    H131935   4.684   0.199  17.759  0.0385 -0.6001 -0.8100
 2580TIP3    H231936   4.545   0.139  17.763  0.2900 -1.3291 -2.2464
 2581TIP3   OH231937   1.721   5.575  19.144  0.3135 -0.0821  0.4923
 2581TIP3    H131938   1.757   5.630  19.075  1.3410 -0.5644  0.6280
 2581TIP3    H231939   1.740   5.486  19.116 -1.0442 -0.3699  0.4394
 2582TIP3   OH231940   5.256   6.703  18.749  0.2573 -0.1762  0.2754
 2582TIP3    H131941   5.284   6.615  18.725 -0.3178 -0.2437 -0.1746
 2582TIP3    H231942   5.221   6.695  18.837 -1.8965 -0.8734 -0.5827
 2583TIP3   OH231943   6.261   2.680  20.279 -0.5169  0.0467 -0.3293
 2583TIP3    H131944   6.189   2.617  20.278 -0.6483  0.1941 -1.5277
 2583TIP3    H231945   6.308   2.664  20.197 -0.2749  1.1822 -0.4253
 2584TIP3   OH231946   2.983   5.423  20.161  0.0427 -0.7537 -0.1234
 2584TIP3    H131947   2.980   5.338  20.118  1.0453 -0.0925 -1.6094
 2584TIP3    H231948   3.072   5.455  20.144 -0.7367  1.1850 -0.8121
 2585TIP3   OH231949   4.759   0.955  17.994  0.3792 -0.0709 -0.1283
 2585TIP3    H131950   4.702   0.987  18.064 -0.4124 -0.3496 -0.6320
 2585TIP3    H231951   4.742   0.861  17.992  1.3552 -0.2583  0.1515
 2586TIP3   OH231952   6.151   3.039  18.808 -0.1142  0.0143  0.4400
 2586TIP3    H131953   6.198   2.988  18.874 -0.3185 -1.2893 -0.3836
 2586TIP3    H231954   6.059   3.019  18.825 -0.3092  1.3456  1.0713
 2587TIP3   OH231955   2.076   4.413  18.475  0.0494 -0.3370 -0.3802
 2587TIP3    H131956   2.026   4.381  18.399 -1.2129  0.6204  0.0111
 2587TIP3    H231957   2.083   4.338  18.533  1.5458 -1.2527 -1.6751
 2588TIP3   OH231958   0.760   3.450  17.607 -0.1624 -0.1333  0.2783
 2588TIP3    H131959   0.840   3.479  17.651 -0.6477  2.0790 -0.1903
 2588TIP3    H231960   0.784   3.368  17.565  1.9091  0.5580  0.0186
 2589TIP3   OH231961   3.853   0.017  20.185 -0.2462  0.1982 -0.0277
 2589TIP3    H131962   3.832  -0.047  20.252  0.4654  0.6729  0.6674
 2589TIP3    H231963   3.949   0.012  20.176 -0.3182  0.2415 -0.9033
 2590TIP3   OH231964   3.818   5.312  18.917 -0.8046  0.3315 -0.3512
 2590TIP3    H131965   3.745   5.294  18.858 -0.2090  0.9208 -1.3024
 2590TIP3    H231966   3.888   5.344  18.860 -0.6764  2.3098  0.8007
 2591TIP3   OH231967   4.037   6.523  20.138  0.2394 -1.0704  0.7450
 2591TIP3    H131968   4.096   6.500  20.210  2.1528 -2.2532 -1.0640
 2591TIP3    H231969   3.958   6.472  20.153  0.9158 -1.8995  1.5767
 2592TIP3   OH231970   1.727   5.197  17.019  0.1208 -0.7571 -0.1437
 2592TIP3    H131971   1.668   5.262  17.056  1.2885  1.3841 -1.7958
 2592TIP3    H231972   1.671   5.137  16.970 -0.9216 -0.5531  0.7893
 2593TIP3   OH231973   5.291   6.637  18.109  0.3082  0.1100  0.5923
 2593TIP3    H131974   5.284   6.726  18.074 -2.7644  0.3605  1.5813
 2593TIP3    H231975   5.318   6.584  18.034 -2.4664  1.2012 -1.3297
 2594TIP3   OH231976   2.506   5.313  16.695  0.2299 -0.1710 -0.2298
 2594TIP3    H131977   2.444   5.383  16.676 -0.0358  0.3598  2.2579
 2594TIP3    H231978   2.592   5.356  16.694  0.3363 -0.3853 -1.2421
 2595TIP3   OH231979   0.358   1.579  16.986  0.1204 -0.1105  0.4009
 2595TIP3    H131980   0.405   1.659  16.963  0.8506 -0.9923 -1.2997
 2595TIP3    H231981   0.393   1.512  16.927 -2.7918 -0.9755 -0.4794
 2596TIP3   OH231982   5.274   5.559  17.221  0.8237  0.3378  0.0761
 2596TIP3    H131983   5.343   5.548  17.286  1.5912 -1.2303 -0.9307
 2596TIP3    H231984   5.270   5.653  17.205  1.6778  0.5879  1.2555
 2597TIP3   OH231985   0.298   3.138  18.413  0.1645 -0.2930 -0.5285
 2597TIP3    H131986   0.361   3.068  18.397 -0.7093 -1.2117 -0.0806
 2597TIP3    H231987   0.213   3.094  18.406 -0.3697  0.3889  1.2796
 2598TIP3   OH231988   1.192   2.866  17.566  0.0556  0.5531  0.2762
 2598TIP3    H131989   1.132   2.925  17.611 -1.5298 -0.4404 -0.4681
 2598TIP3    H231990   1.181   2.887  17.473 -0.3142 -0.6818  0.0249
 2599TIP3   OH231991   1.793   1.743  19.559  0.1061  0.4993  0.1374
 2599TIP3    H131992   1.802   1.661  19.510  0.9971  0.4485  0.3733
 2599TIP3    H231993   1.731   1.795  19.508 -0.7669 -0.4688  0.1804
 2600TIP3   OH231994   0.721   3.169  17.267 -0.6037 -0.3973 -0.0296
 2600TIP3    H131995   0.803   3.120  17.257 -0.9491 -0.6305 -2.4517
 2600TIP3    H231996   0.719   3.194  17.359  0.9681 -2.5167  0.6776
 2601TIP3   OH231997   4.164   4.264  18.702 -0.7425 -0.4946  0.4135
 2601TIP3    H131998   4.127   4.347  18.730  1.3415  1.3057 -1.7407
 2601TIP3    H231999   4.095   4.222  18.651 -1.8288 -0.1385  1.5516
 2602TIP3   OH232000   5.376   6.536  18.967 -0.4720 -0.3928 -0.2206
 2602TIP3    H132001   5.306   6.477  18.936 -1.3191 -0.1270  1.1287
 2602TIP3    H232002   5.411   6.493  19.045  0.5605 -0.2823 -0.6118
 2603TIP3   OH232003   6.151   5.627  19.453  0.4001 -0.4226  0.0359
 2603TIP3    H132004   6.076   5.628  19.513  2.0391 -1.3791  2.2479
 2603TIP3    H232005   6.125   5.684  19.381 -1.5022  1.2407  1.9119
 2604TIP3   OH232006   0.455   5.204  17.759  0.1906 -0.1852  0.1884
 2604TIP3    H132007   0.517   5.278  17.758 -0.0664  0.0963  1.8286
 2604TIP3    H232008   0.475   5.155  17.680  2.4045 -0.0058  0.5808
 2605TIP3   OH232009   3.812   3.611  20.334  0.1893 -0.1643 -0.6015
 2605TIP3    H132010   3.900   3.589  20.304  0.0914 -0.9380 -0.3596
 2605TIP3    H232011   3.786   3.687  20.282  1.7749  1.3438  0.7132
 2606TIP3   OH232012   4.368   1.936  18.848  0.2362  0.5404 -0.1963
 2606TIP3    H132013   4.276   1.925  18.871  0.3553  1.0222  0.5287
 2606TIP3    H232014   4.412   1.955  18.931  1.0694 -0.1593 -0.4599
 2607TIP3   OH232015   1.792   5.133  16.437  0.2191 -0.6117  0.6758
 2607TIP3    H132016   1.780   5.039  16.427  0.2522 -0.6137  0.6527
 2607TIP3    H232017   1.826   5.144  16.526 -0.8404 -0.5227  1.0854
 2608TIP3   OH232018   5.685   6.395  18.303  0.6338 -0.1613  0.3600
 2608TIP3    H132019   5.718   6.415  18.390  0.5105  0.0861  0.3512
 2608TIP3    H232020   5.739   6.322  18.272 -0.4867 -1.4580  1.3570
 2609TIP3   OH232021   3.982   4.335  18.200 -0.9049  0.7315  0.3185
 2609TIP3    H132022   4.050   4.400  18.216  0.6840 -1.1447  1.7371
 2609TIP3    H232023   3.903   4.371  18.241  0.2838  1.1783  2.3158
 2610TIP3   OH232024   6.287   4.438  18.348 -0.0529 -0.0241 -0.4486
 2610TIP3    H132025   6.287   4.352  18.391 -0.7819  1.0676  1.9123
 2610TIP3    H232026   6.236   4.494  18.407  0.5503  2.0927 -1.8270
 2611TIP3   OH232027   5.340   5.507  18.177  0.1534  0.2321  0.7214
 2611TIP3    H132028   5.328   5.417  18.147  1.6837  0.0359  0.5771
 2611TIP3    H232029   5.434   5.523  18.163 -0.1078  1.8492  0.7317
 2612TIP3   OH232030   3.502   5.550  17.448 -0.2079  0.0079 -0.3185
 2612TIP3    H132031   3.516   5.470  17.498  0.0659  1.3347  1.8758
 2612TIP3    H232032   3.584   5.599  17.457  0.1465 -0.0081 -2.8008
 2613TIP3   OH232033   3.387   3.163  19.178  0.1038 -0.5187  0.1363
 2613TIP3    H132034   3.380   3.239  19.237  1.0239  0.6708 -1.2230
 2613TIP3    H232035   3.455   3.109  19.218  2.7241  1.6235 -1.1362
 2614TIP3   OH232036   1.968   4.202  18.792  1.0451  0.2214  0.0153
 2614TIP3    H132037   1.881   4.176  18.823  1.1445 -0.1595 -0.0227
 2614TIP3    H232038   2.010   4.241  18.869  0.9141  0.2207  0.0885
 2615TIP3   OH232039   3.265   4.305  19.656  0.4091 -0.3928  0.2868
 2615TIP3    H132040   3.314   4.366  19.601  0.6682  0.6062  1.5595
 2615TIP3    H232041   3.302   4.219  19.637  0.7466 -0.0137 -0.8032
 2616TIP3   OH232042   4.690   3.260  17.540 -0.3276 -0.3677  0.4229
 2616TIP3    H132043   4.596   3.246  17.535 -0.1196 -1.4166 -1.5538
 2616TIP3    H232044   4.703   3.353  17.521 -0.8554 -0.7185 -1.9783
 2617TIP3   OH232045   3.841   2.576  18.578 -0.0284 -0.3471  0.2528
 2617TIP3    H132046   3.870   2.613  18.662  1.6155 -0.7267 -0.1162
 2617TIP3    H232047   3.842   2.481  18.592  0.6508 -0.4274 -0.3098
 2618TIP3   OH232048   1.995   2.793  16.956 -0.4603 -0.2853  0.3216
 2618TIP3    H132049   2.017   2.773  16.865 -0.9236  0.1836  0.1045
 2618TIP3    H232050   2.014   2.712  17.004  0.1954 -0.3962 -0.1214
 2619TIP3   OH232051   0.300   3.244  19.550  0.1889 -0.0454  1.1981
 2619TIP3    H132052   0.356   3.167  19.562 -0.4717 -0.8010 -0.2291
 2619TIP3    H232053   0.353   3.303  19.496 -0.0707 -0.4366  0.4918
 2620TIP3   OH232054   2.118   5.473  18.319  0.3819  0.2696  0.1214
 2620TIP3    H132055   2.046   5.524  18.356  0.0064  0.2086 -0.5184
 2620TIP3    H232056   2.085   5.443  18.235  1.6246  1.3669 -0.7989
 2621TIP3   OH232057   3.634   2.499  19.697 -0.1931  0.2479  0.2395
 2621TIP3    H132058   3.702   2.566  19.684 -0.0036 -0.3153 -2.0796
 2621TIP3    H232059   3.683   2.417  19.697 -0.7103 -0.0594  0.3482
 2622TIP3   OH232060   0.001   3.056  18.217 -0.2737  0.2914 -0.6478
 2622TIP3    H132061  -0.048   3.138  18.203  0.1744  0.5447 -0.7670
 2622TIP3    H232062  -0.059   2.987  18.188 -0.6669  0.5781 -0.5259
 2623TIP3   OH232063   6.008   4.666  17.648  0.0677  0.0671 -0.4578
 2623TIP3    H132064   6.093   4.709  17.657  0.6126 -1.0809 -0.0740
 2623TIP3    H232065   6.002   4.607  17.722  0.8588 -3.0884 -2.7163
 2624TIP3   OH232066   3.570   6.388  19.258  0.1031  0.6122 -0.0340
 2624TIP3    H132067   3.541   6.403  19.349  2.6315  0.6545  0.8267
 2624TIP3    H232068   3.592   6.475  19.225 -3.1708  0.9924 -1.6969
 2625TIP3   OH232069   2.093   2.721  18.323 -0.2872  0.2069  0.3528
 2625TIP3    H132070   2.010   2.698  18.366  1.0531 -0.2762  2.9039
 2625TIP3    H232071   2.089   2.815  18.311 -1.9978 -0.0395 -1.4628
 2626TIP3   OH232072   3.536   4.659  20.168 -0.1890  0.1111 -0.1557
 2626TIP3    H132073   3.542   4.580  20.114  2.8526  1.0513 -1.4111
 2626TIP3    H232074   3.614   4.657  20.223 -1.4440  0.9523  1.7521
 2627TIP3   OH232075   1.348   6.024  17.432  0.7031 -0.0691 -0.0295
 2627TIP3    H132076   1.321   6.116  17.433  1.2392  0.1080  2.2961
 2627TIP3    H232077   1.270   5.977  17.400 -0.2297  1.0124  0.5797
 2628TIP3   OH232078   2.893   0.673  18.680  0.4738 -0.3542 -0.3434
 2628TIP3    H132079   2.800   0.671  18.659  0.4119  1.2769 -0.3607
 2628TIP3    H232080   2.923   0.583  18.667 -1.1912 -1.0097  0.1537
 2629TIP3   OH232081   3.004   4.872  18.634 -0.2043  0.1995 -0.1583
 2629TIP3    H132082   2.999   4.836  18.546  0.6445 -1.6763  0.5124
 2629TIP3    H232083   3.094   4.907  18.640 -0.5297  1.0915 -0.2889
 2630TIP3   OH232084   2.683   3.779  17.544  0.3305 -0.6438  0.1147
 2630TIP3    H132085   2.630   3.826  17.480  0.9073 -0.5325 -0.2784
 2630TIP3    H232086   2.674   3.830  17.625 -0.5139 -0.8658  0.1772
 2631TIP3   OH232087   4.477   1.410  19.816 -0.1653 -0.1196 -0.3350
 2631TIP3    H132088   4.465   1.470  19.742 -0.6042  2.1465  1.4723
 2631TIP3    H232089   4.569   1.421  19.842 -0.2464 -0.2337  0.0106
 2632TIP3   OH232090   6.050   0.982  20.187  0.6769  0.0726 -0.3376
 2632TIP3    H132091   6.011   0.895  20.176 -0.8613  0.7237 -0.2069
 2632TIP3    H232092   6.042   1.001  20.280  0.5286  0.5583 -0.4429
 2633TIP3   OH232093   3.556   2.492  19.218 -0.4808 -0.6954  0.1978
 2633TIP3    H132094   3.525   2.515  19.305 -1.0630  1.2143 -0.4654
 2633TIP3    H232095   3.501   2.418  19.192 -0.5781 -1.0176  1.2835
 2634TIP3   OH232096   2.235   6.450  17.604  0.6180 -0.3054 -0.3406
 2634TIP3    H132097   2.244   6.424  17.513 -0.5791  0.8051 -0.8067
 2634TIP3    H232098   2.324   6.445  17.640  0.7569 -3.0262 -0.8954
 2635TIP3   OH232099   6.609   1.350  17.783  0.2208 -0.2131 -0.6900
 2635TIP3    H132100   6.630   1.291  17.854  0.7629 -1.3571 -1.7658
 2635TIP3    H232101   6.523   1.322  17.752  0.2691 -0.1366 -0.9009
 2636TIP3   OH232102   0.738   2.021  17.458 -0.1241 -0.1825 -0.3327
 2636TIP3    H132103   0.761   2.059  17.373 -0.7544  0.9882 -0.0038
 2636TIP3    H232104   0.657   1.973  17.442 -0.5424  0.5015 -0.2814
 2637TIP3   OH232105   2.894   5.075  18.491  0.2634  0.3790  0.0078
 2637TIP3    H132106   2.800   5.060  18.485 -0.0675  1.5210  1.4811
 2637TIP3    H232107   2.925   5.008  18.553  0.2118  0.6737  0.3582
 2638TIP3   OH232108   0.247   4.105  20.163  0.1832  0.3643 -0.0042
 2638TIP3    H132109   0.163   4.060  20.176 -0.0748  0.2970 -1.7205
 2638TIP3    H232110   0.310   4.034  20.156  0.2359  0.3822  0.2776
 2639TIP3   OH232111   0.194   4.989  20.096 -0.5663 -0.6927  0.0102
 2639TIP3    H132112   0.120   4.930  20.111  0.7397 -2.5397 -0.4308
 2639TIP3    H232113   0.162   5.052  20.032 -2.5418  0.1871  1.7400
 2640TIP3   OH232114   1.170   3.376  19.534 -0.1983 -0.5205 -0.1548
 2640TIP3    H132115   1.157   3.367  19.628  1.4372  0.4032  0.2000
 2640TIP3    H232116   1.207   3.292  19.506 -1.2793 -1.0237 -0.1082
 2641TIP3   OH232117   4.064   4.636  17.794  0.4323  0.5132  0.2543
 2641TIP3    H132118   4.146   4.589  17.807  0.3387  0.4834  0.7600
 2641TIP3    H232119   4.087   4.708  17.736  0.9144  0.7727  0.7584
 2642TIP3   OH232120   6.374   3.291  18.588  0.6615  0.4108 -0.2110
 2642TIP3    H132121   6.376   3.197  18.607 -2.1176  0.3513  0.1065
 2642TIP3    H232122   6.358   3.333  18.672  1.3921  1.1659 -0.4317
 2643TIP3   OH232123   3.237   0.584  19.882 -0.2189 -0.1664  0.5561
 2643TIP3    H132124   3.261   0.511  19.938 -0.1065 -2.5557 -2.3322
 2643TIP3    H232125   3.149   0.562  19.850 -0.5534  1.4290  0.2471
 2644TIP3   OH232126   6.636   1.380  18.944  0.0984 -0.0415 -0.2765
 2644TIP3    H132127   6.606   1.381  19.035  2.7131  0.3485  0.6493
 2644TIP3    H232128   6.650   1.472  18.923 -0.5747 -0.1230 -1.1394
 2645TIP3   OH232129   6.188   5.706  19.801  0.4803  0.4860 -0.7840
 2645TIP3    H132130   6.265   5.667  19.842 -0.1030  0.6825  0.5430
 2645TIP3    H232131   6.156   5.637  19.742  0.3532 -0.4999  0.3807
 2646TIP3   OH232132   0.494   5.384  18.720 -0.1984 -0.1433 -0.0890
 2646TIP3    H132133   0.508   5.448  18.790  1.6734  0.2694 -0.7956
 2646TIP3    H232134   0.524   5.301  18.756  1.1738  0.1479 -0.5137
 2647TIP3   OH232135   5.234   0.368  18.908  0.2439  0.4925  0.4465
 2647TIP3    H132136   5.213   0.287  18.862 -0.9614  1.1224 -0.1818
 2647TIP3    H232137   5.324   0.357  18.937  0.2893 -0.8334 -0.1342
 2648TIP3   OH232138   3.372   2.161  17.879  0.1525  0.1761  0.5824
 2648TIP3    H132139   3.320   2.138  17.956  0.3018  0.4324  0.7584
 2648TIP3    H232140   3.307   2.177  17.810  0.0387 -2.3909 -0.0266
 2649TIP3   OH232141   1.155   5.690  17.521  0.0156 -0.2176  0.2066
 2649TIP3    H132142   1.132   5.757  17.457  0.4944  0.8521  1.1203
 2649TIP3    H232143   1.075   5.637  17.530 -0.5152  0.4961 -0.2165
 2650TIP3   OH232144   0.523   1.093  17.568  0.1481 -0.0654 -0.1963
 2650TIP3    H132145   0.445   1.041  17.586 -0.3140  0.9213  0.7386
 2650TIP3    H232146   0.531   1.152  17.643  1.3146  0.4177 -0.6761
 2651TIP3   OH232147   5.099   3.809  19.505 -0.1423  0.4276  0.1016
 2651TIP3    H132148   5.007   3.786  19.514 -0.0453  0.0283  0.0817
 2651TIP3    H232149   5.098   3.903  19.487 -0.5612  0.3650 -0.2264
 2652TIP3   OH232150   3.248   4.379  19.068 -0.2218  0.1036  0.2052
 2652TIP3    H132151   3.172   4.334  19.031 -0.2736  0.4364 -0.1023
 2652TIP3    H232152   3.216   4.467  19.089  0.0861  0.2630  0.0230
 2653TIP3   OH232153   3.778   3.232  19.175 -0.3068 -0.2247 -0.4713
 2653TIP3    H132154   3.722   3.283  19.233  0.2347 -0.1333 -0.0186
 2653TIP3    H232155   3.736   3.147  19.169 -1.7363  0.5312 -1.9832
 2654TIP3   OH232156   5.275   6.106  19.285  0.1418 -0.5128  0.2892
 2654TIP3    H132157   5.333   6.170  19.327 -2.5763  1.8194  0.8363
 2654TIP3    H232158   5.253   6.044  19.354 -0.0138  0.1051  0.8012
 2655TIP3   OH232159   6.727   0.108  19.531 -0.2439  0.5071 -0.3941
 2655TIP3    H132160   6.654   0.170  19.525 -0.6889 -0.1447 -2.3169
 2655TIP3    H232161   6.743   0.100  19.625 -2.0750  1.3492  0.0430
 2656TIP3   OH232162   5.524   2.636  16.951 -0.2385  0.0204  0.3232
 2656TIP3    H132163   5.569   2.554  16.932  2.1843  1.2751  0.2388
 2656TIP3    H232164   5.516   2.637  17.047 -0.6508 -0.4763  0.2988
 2657TIP3   OH232165   2.402   3.587  19.677  0.3472  0.0619  0.1456
 2657TIP3    H132166   2.342   3.657  19.650 -0.1223 -0.0235  0.9433
 2657TIP3    H232167   2.372   3.510  19.629 -1.0465 -0.3049  1.5243
 2658TIP3   OH232168   0.541   4.108  16.117 -0.2070  0.5479 -0.0812
 2658TIP3    H132169   0.597   4.117  16.040 -0.5174  1.3722 -0.2186
 2658TIP3    H232170   0.599   4.127  16.191  0.0407 -0.0407 -0.1179
 2659TIP3   OH232171   5.374   2.394  19.595 -0.3656  0.5602 -0.0079
 2659TIP3    H132172   5.426   2.314  19.602  0.3308  0.8741 -1.2241
 2659TIP3    H232173   5.386   2.439  19.679  0.5490  0.1616  0.0830
 2660TIP3   OH232174   5.392   3.527  18.796  0.1437  0.1625 -0.5090
 2660TIP3    H132175   5.368   3.619  18.788  3.1934  1.3238  1.8412
 2660TIP3    H232176   5.479   3.521  18.756  1.5076 -0.8418  2.3484
 2661TIP3   OH232177   2.349   3.851  17.251 -0.2314 -0.0220  0.3983
 2661TIP3    H132178   2.259   3.874  17.226  0.0607  0.5032 -0.1819
 2661TIP3    H232179   2.403   3.884  17.180  0.3880 -0.7421  0.5233
 2662TIP3   OH232180   1.346   2.157  17.546  0.3184 -0.0138 -0.3089
 2662TIP3    H132181   1.280   2.221  17.521  0.2025 -0.5540 -1.4263
 2662TIP3    H232182   1.419   2.209  17.581 -0.8894  0.5622  1.5008
 2663TIP3   OH232183   2.704   4.071  17.291 -0.2741 -0.1231 -0.4726
 2663TIP3    H132184   2.617   4.064  17.332 -0.6858 -0.2656 -1.3355
 2663TIP3    H232185   2.701   4.154  17.244 -0.3725 -0.6573 -1.4378
 2664TIP3   OH232186   6.323   5.158  19.527 -0.1175  0.4362 -0.2886
 2664TIP3    H132187   6.374   5.235  19.552 -0.9160  0.6305  0.8722
 2664TIP3    H232188   6.376   5.084  19.557 -0.8544  0.6548  1.7709
 2665TIP3   OH232189   6.234   3.297  17.070  0.0751 -0.0432 -0.1210
 2665TIP3    H132190   6.173   3.246  17.016 -0.7321  1.0831 -0.3202
 2665TIP3    H232191   6.296   3.333  17.007 -0.3241  0.5295 -0.1943
 2666TIP3   OH232192   6.579   2.591  19.776 -0.6479 -0.2070  0.3677
 2666TIP3    H132193   6.634   2.590  19.697  1.2380  0.2303  1.6079
 2666TIP3    H232194   6.507   2.651  19.754  0.9048  1.4900 -0.3737
 2667TIP3   OH232195   5.217   4.654  20.178 -0.1157 -0.3897 -0.3906
 2667TIP3    H132196   5.210   4.685  20.088 -1.0932 -0.6865 -0.4325
 2667TIP3    H232197   5.298   4.602  20.179  0.3924  0.3683 -0.8492
 2668TIP3   OH232198   1.829   1.362  19.181  0.3725  0.2858  0.9073
 2668TIP3    H132199   1.887   1.289  19.201 -0.4227 -0.1660  1.6488
 2668TIP3    H232200   1.885   1.427  19.138  1.1405 -0.6429  0.4920
 2669TIP3   OH232201   5.767   4.200  17.393  0.0202 -0.0407  0.2198
 2669TIP3    H132202   5.675   4.173  17.389  0.1574 -0.4738 -0.1087
 2669TIP3    H232203   5.810   4.131  17.443  0.3951 -0.5068 -0.7190
 2670TIP3   OH232204   1.264   5.333  18.077  0.0858  0.2728 -0.2466
 2670TIP3    H132205   1.221   5.418  18.068 -0.4772 -0.0196 -0.3525
 2670TIP3    H232206   1.235   5.284  18.000 -0.2092 -0.2822  0.2137
 2671TIP3   OH232207   0.153   4.487  18.164  0.5690  0.6872  0.1525
 2671TIP3    H132208   0.212   4.491  18.089  1.1489 -0.0827  0.5503
 2671TIP3    H232209   0.071   4.524  18.133  0.0971 -1.5760 -1.5503
 2672TIP3   OH232210   0.997   2.239  18.184 -0.2490  1.1908 -0.1272
 2672TIP3    H132211   1.091   2.232  18.166 -0.0336  1.3116  0.9099
 2672TIP3    H232212   0.987   2.320  18.234 -0.6257  0.2091  1.4583
 2673TIP3   OH232213   2.315   4.704  17.619  0.2654 -0.1476  0.1082
 2673TIP3    H132214   2.259   4.726  17.693 -0.2786  0.1378 -0.3786
 2673TIP3    H232215   2.391   4.662  17.658 -0.0111  0.0071  0.8276
 2674TIP3   OH232216   2.262   2.559  17.232 -0.2556  0.1515 -0.1792
 2674TIP3    H132217   2.177   2.603  17.241 -1.3577 -1.5696 -1.5164
 2674TIP3    H232218   2.280   2.561  17.138  1.7246  1.3702  0.1692
 2675TIP3   OH232219   5.429   5.279  19.106  0.1487  0.0305  0.1971
 2675TIP3    H132220   5.521   5.273  19.132 -0.1001  0.0914  1.1179
 2675TIP3    H232221   5.380   5.269  19.187 -0.6640 -0.0278 -0.2899
 2676TIP3   OH232222   6.304   1.262  19.491 -0.1604 -0.2537 -0.0099
 2676TIP3    H132223   6.344   1.325  19.551  1.0965 -2.7510  2.0013
 2676TIP3    H232224   6.210   1.276  19.501  0.0779  1.6128 -0.0425
 2677TIP3   OH232225   2.084   1.591  18.758  0.0161  0.6068 -0.0476
 2677TIP3    H132226   2.130   1.664  18.799 -0.0617  0.2618  0.6579
 2677TIP3    H232227   2.027   1.556  18.826 -2.1003  1.6758 -1.1821
 2678TIP3   OH232228   3.458   4.083  18.378 -0.2855 -0.0625  0.6199
 2678TIP3    H132229   3.399   4.023  18.423 -1.1815  0.7242  0.5257
 2678TIP3    H232230   3.474   4.042  18.293 -2.7048  0.8515 -0.3609
 2679TIP3   OH232231   0.631   4.730  19.116 -0.1630 -0.2219  0.2392
 2679TIP3    H132232   0.692   4.690  19.178 -2.0045 -1.6296  1.2663
 2679TIP3    H232233   0.601   4.809  19.160  0.6096  0.2619 -0.0957
 2680TIP3   OH232234   1.714   3.706  19.908  0.4334  0.0545 -0.2261
 2680TIP3    H132235   1.766   3.691  19.829  0.2879  1.8030 -0.6777
 2680TIP3    H232236   1.690   3.618  19.937  2.1673 -0.7077 -0.9811
 2681TIP3   OH232237   0.351   0.967  19.548 -0.3823  0.3968 -0.2561
 2681TIP3    H132238   0.332   1.021  19.471  0.7118  0.6895 -0.3451
 2681TIP3    H232239   0.441   0.937  19.533  0.0724  0.9766  1.2091
 2682TIP3   OH232240   1.951   0.035  17.169  0.2156  0.3117  0.7769
 2682TIP3    H132241   2.001  -0.038  17.206 -1.2676 -0.7444  0.8384
 2682TIP3    H232242   2.005   0.112  17.182  2.7286 -1.0083 -1.0126
 2683TIP3   OH232243   3.638   6.189  19.663  0.3151  0.5331  0.2536
 2683TIP3    H132244   3.603   6.187  19.574 -1.2573 -2.6178  0.8107
 2683TIP3    H232245   3.715   6.245  19.657 -0.9464  2.1730 -2.5799
 2684TIP3   OH232246   3.774   2.049  20.104 -0.1186 -0.6010 -0.7124
 2684TIP3    H132247   3.739   2.060  20.193 -0.0730 -1.3749 -0.5908
 2684TIP3    H232248   3.739   1.965  20.075  1.7406 -1.4791 -0.5461
 2685TIP3   OH232249   1.976   5.781  19.580 -0.5006 -0.5185 -0.7356
 2685TIP3    H132250   1.909   5.759  19.514  0.8801 -1.4246 -1.8953
 2685TIP3    H232251   2.009   5.866  19.553  0.0211 -0.8615 -1.2120
 2686TIP3   OH232252   2.310   2.504  18.001 -0.2246 -0.5354  0.2808
 2686TIP3    H132253   2.284   2.478  18.089  1.4914 -0.5705  0.8271
 2686TIP3    H232254   2.287   2.596  17.995  0.0164 -0.4238  0.9330
 2687TIP3   OH232255   2.699   1.880  18.148 -0.4435  0.1763 -0.4222
 2687TIP3    H132256   2.736   1.859  18.062  3.3220 -0.1634  1.0770
 2687TIP3    H232257   2.727   1.970  18.165 -0.6297  0.0378  0.6837
 2688TIP3   OH232258   2.295   3.040  19.681 -0.5973  0.0873  0.0316
 2688TIP3    H132259   2.347   3.020  19.759  2.1363  0.1860 -1.6723
 2688TIP3    H232260   2.293   3.136  19.678  0.9350  0.1114 -0.9939
 2689TIP3   OH232261   0.657   4.174  16.866  0.2105 -0.1573  0.9008
 2689TIP3    H132262   0.569   4.212  16.859 -0.3124 -1.5920 -1.5061
 2689TIP3    H232263   0.704   4.209  16.791  1.5701  0.2164  1.9004
 2690TIP3   OH232264   1.745   2.443  17.248 -0.6282 -0.5456 -0.3003
 2690TIP3    H132265   1.676   2.508  17.235 -1.6503 -1.5211  0.0867
 2690TIP3    H232266   1.757   2.440  17.343  1.1916  0.8413 -0.4306
 2691TIP3   OH232267   1.471   5.318  19.577  0.3197  0.2298 -0.0965
 2691TIP3    H132268   1.562   5.291  19.567  0.2065 -0.3871  0.4968
 2691TIP3    H232269   1.477   5.411  19.601  0.7532  0.4184 -0.9005
 2692TIP3   OH232270   0.187   6.587  17.755 -0.1302 -0.0973  0.3467
 2692TIP3    H132271   0.169   6.509  17.807 -0.2877  1.1136  2.2109
 2692TIP3    H232272   0.102   6.612  17.718 -0.5206  0.3995  1.5446
 2693TIP3   OH232273   3.375   6.676  17.871  0.2169  0.1466 -0.5027
 2693TIP3    H132274   3.282   6.654  17.868  0.1980  0.1934 -0.2146
 2693TIP3    H232275   3.380   6.764  17.833  0.1870  0.0062 -0.8363
 2694TIP3   OH232276   0.482   3.652  17.980 -0.1569  0.2936  0.5471
 2694TIP3    H132277   0.454   3.726  17.926  2.3805  1.3825  0.6137
 2694TIP3    H232278   0.435   3.664  18.063 -0.6633  1.1631  0.1507
 2695TIP3   OH232279   4.840   1.956  18.712  0.3188 -0.6901  0.3653
 2695TIP3    H132280   4.880   1.976  18.627  1.2996 -0.9988  0.7363
 2695TIP3    H232281   4.830   2.040  18.755  0.3504 -0.5883  0.1747
 2696TIP3   OH232282   2.069   2.083  18.887  0.6185  0.0357 -1.0542
 2696TIP3    H132283   2.160   2.079  18.858  0.6415 -0.3934 -0.9266
 2696TIP3    H232284   2.059   2.007  18.944 -0.0034 -0.2856 -1.5897
 2697TIP3   OH232285   5.001   5.729  17.908 -0.3502  0.3348  0.0811
 2697TIP3    H132286   4.940   5.774  17.966  0.1086  0.1646  0.7183
 2697TIP3    H232287   4.947   5.694  17.837 -0.8763  0.8264  0.2329
 2698TIP3   OH232288   5.310   1.635  18.520  0.0111 -0.3524  0.5143
 2698TIP3    H132289   5.405   1.648  18.512  0.1670 -2.0522 -0.9741
 2698TIP3    H232290   5.301   1.551  18.564 -0.8705  0.6221  2.3235
 2699TIP3   OH232291   0.727   2.878  17.410 -0.1477 -0.1466 -0.6028
 2699TIP3    H132292   0.686   2.912  17.330 -2.0906 -0.4615  0.1910
 2699TIP3    H232293   0.711   2.946  17.475  1.6294  0.2089 -0.5097
 2700TIP3   OH232294   0.989   4.589  18.486  0.1180  0.1512 -0.4055
 2700TIP3    H132295   0.937   4.654  18.534 -1.6168 -1.3808 -0.1207
 2700TIP3    H232296   1.010   4.522  18.550  0.9806 -0.1085 -0.9383
 2701TIP3   OH232297   5.503   3.533  16.492 -0.2133 -0.2537 -0.0990
 2701TIP3    H132298   5.528   3.542  16.400 -0.7475  1.4990 -0.1090
 2701TIP3    H232299   5.554   3.459  16.524 -1.7613 -2.4846 -2.3849
 2702TIP3   OH232300   0.933   3.863  18.840  0.0574  0.0126  0.7621
 2702TIP3    H132301   0.861   3.814  18.879  1.5462 -0.9271  2.4735
 2702TIP3    H232302   0.905   3.955  18.847 -0.7031 -0.2860  2.0070
 2703TIP3   OH232303   2.700   2.998  20.043  0.2162 -0.4918  0.3172
 2703TIP3    H132304   2.646   3.062  19.998  1.1142 -0.1850 -0.3532
 2703TIP3    H232305   2.638   2.936  20.081 -0.6146  0.1688  0.0533
 2704TIP3   OH232306   1.206   3.878  18.764  0.1271  0.3192 -0.0519
 2704TIP3    H132307   1.211   3.799  18.710  0.9403  0.5563 -0.3386
 2704TIP3    H232308   1.115   3.881  18.795  0.2433 -1.0503  0.4637
 2705TIP3   OH232309   3.297   4.217  16.735 -0.0644  0.2146  0.2844
 2705TIP3    H132310   3.332   4.184  16.818 -0.2916 -0.3515  0.1647
 2705TIP3    H232311   3.203   4.201  16.742  0.1859 -2.6507 -1.2509
 2706TIP3   OH232312   3.345   1.135  19.541  0.3524 -0.1158  0.2253
 2706TIP3    H132313   3.420   1.088  19.505  0.7445  1.6768 -1.4783
 2706TIP3    H232314   3.283   1.140  19.469  0.4011  2.0391  0.2639
 2707TIP3   OH232315   5.000   6.089  17.873  0.0983 -0.0093 -0.6315
 2707TIP3    H132316   5.000   6.073  17.967  0.3594  0.8161 -0.4817
 2707TIP3    H232317   5.086   6.058  17.843  0.0430 -0.2059 -0.5844
 2708TIP3   OH232318   0.846   1.794  19.109 -0.3610  0.0985 -0.3316
 2708TIP3    H132319   0.768   1.783  19.164  1.4610 -0.4348  2.3290
 2708TIP3    H232320   0.865   1.888  19.115  0.0168 -0.0113  0.2332
 2709TIP3   OH232321   2.528   4.190  19.891 -0.3652 -0.2573  0.1609
 2709TIP3    H132322   2.532   4.097  19.869  1.2329 -0.3024  0.5208
 2709TIP3    H232323   2.460   4.195  19.957 -1.2440 -0.9870 -0.6473
 2710TIP3   OH232324   0.828   5.398  19.586 -0.1758 -0.0947  0.4094
 2710TIP3    H132325   0.829   5.479  19.536  2.2149  0.4050  1.1419
 2710TIP3    H232326   0.804   5.331  19.523 -1.2385  1.0183 -0.4287
 2711TIP3   OH232327   6.616   5.203  16.742  0.0059 -0.5076 -0.2725
 2711TIP3    H132328   6.533   5.245  16.766 -0.4415 -1.3528 -0.3258
 2711TIP3    H232329   6.674   5.276  16.721 -0.8689  0.0795 -0.7003
 2712TIP3   OH232330   0.665   6.588  19.522  0.5322 -0.0006  0.5134
 2712TIP3    H132331   0.592   6.535  19.555  1.2984 -1.0593  0.5942
 2712TIP3    H232332   0.625   6.648  19.459 -0.4411 -0.3782  0.7460
 2713TIP3   OH232333   3.867   4.053  20.048  0.1690 -0.1490  0.3411
 2713TIP3    H132334   3.892   4.142  20.024 -1.4863  0.5833  1.1538
 2713TIP3    H232335   3.943   4.019  20.096  1.1641  0.4789 -0.7465
 2714TIP3   OH232336   3.356   3.499  18.198 -0.2689  0.2468  0.4994
 2714TIP3    H132337   3.357   3.560  18.271 -0.8632  1.1620 -0.2451
 2714TIP3    H232338   3.264   3.480  18.182 -0.1686  0.2912 -0.1966
 2715TIP3   OH232339   5.823   1.912  18.993  0.9293  1.0982 -0.0309
 2715TIP3    H132340   5.882   1.944  19.061  0.9277  0.1185  0.4440
 2715TIP3    H232341   5.881   1.891  18.919  1.4899 -1.6200  1.0626
 2716TIP3   OH232342   4.459   5.481  18.061 -0.5460  0.6022 -0.7436
 2716TIP3    H132343   4.489   5.391  18.050  0.2835  0.5496  1.5048
 2716TIP3    H232344   4.397   5.477  18.133  0.8310  2.0462  0.5974
 2717TIP3   OH232345   1.569   6.327  18.566  0.1125  0.0552  0.3916
 2717TIP3    H132346   1.601   6.303  18.653  1.7669  0.3500 -0.0903
 2717TIP3    H232347   1.475   6.311  18.569  0.3673 -1.4418  1.7444
 2718TIP3   OH232348   0.817   2.221  17.797  0.5601  0.2458 -0.1875
 2718TIP3    H132349   0.768   2.213  17.878 -0.0665  0.2221 -0.5597
 2718TIP3    H232350   0.867   2.302  17.806 -2.9817  2.8287 -1.5708
 2719TIP3   OH232351   2.478   4.660  20.211 -0.0044  0.3059 -0.0036
 2719TIP3    H132352   2.411   4.622  20.268  0.7741 -0.1179  0.6587
 2719TIP3    H232353   2.557   4.663  20.266  0.8150 -0.2830 -1.1139
 2720TIP3   OH232354   5.411   1.913  17.424  0.1980  0.0016 -0.8263
 2720TIP3    H132355   5.446   1.945  17.508 -0.5260  1.0916 -0.9154
 2720TIP3    H232356   5.317   1.925  17.432  0.0883 -0.2539 -1.6598
 2721TIP3   OH232357   1.627   5.360  18.461 -0.4834  0.1140  0.3979
 2721TIP3    H132358   1.627   5.456  18.462 -0.1714  0.1556  3.0090
 2721TIP3    H232359   1.535   5.336  18.447 -0.7143  0.8018  0.6958
 2722TIP3   OH232360   4.581   0.276  19.887 -0.0185  0.1634  0.1863
 2722TIP3    H132361   4.615   0.197  19.928 -0.4720  0.4214  1.1078
 2722TIP3    H232362   4.495   0.250  19.854  0.3798 -0.0653 -0.7014
 2723TIP3   OH232363   2.678   5.135  17.994 -0.3018  0.2397  0.4107
 2723TIP3    H132364   2.684   5.154  18.087  0.0734  0.0985  0.4180
 2723TIP3    H232365   2.584   5.136  17.975 -0.4325 -0.5571  0.9611
 2724TIP3   OH232366   4.109   1.397  18.023 -0.1417 -0.1166  0.0054
 2724TIP3    H132367   4.186   1.343  18.032 -1.5527 -2.0614  1.1697
 2724TIP3    H232368   4.138   1.485  18.046  1.4775 -1.0112  1.6116
 2725TIP3   OH232369   2.114   2.835  17.748 -0.1754 -0.3553  0.3794
 2725TIP3    H132370   2.197   2.854  17.703 -0.5036  0.3094  0.0453
 2725TIP3    H232371   2.141   2.790  17.829  0.6939  1.8955  1.4375
 2726TIP3   OH232372   3.360   3.873  17.386  0.3441 -0.0265 -0.4920
 2726TIP3    H132373   3.327   3.785  17.401 -0.5808  0.2948 -0.5342
 2726TIP3    H232374   3.290   3.916  17.336  1.4097  0.2917 -1.7461
 2727TIP3   OH232375   6.098   0.727  16.928  0.1501 -0.6030 -0.0331
 2727TIP3    H132376   6.135   0.783  16.860 -1.5356  0.0614 -0.4413
 2727TIP3    H232377   6.030   0.780  16.969  0.4197 -1.3764  1.4739
 2728TIP3   OH232378   1.447   5.770  18.981  0.9017 -0.3355 -0.1911
 2728TIP3    H132379   1.487   5.684  18.971 -0.0826 -0.9852  1.2128
 2728TIP3    H232380   1.421   5.775  19.073  0.0865  1.0796 -0.4593
 2729TIP3   OH232381   1.729   2.848  19.589 -0.3940  0.0048  0.2418
 2729TIP3    H132382   1.824   2.846  19.592 -0.3810 -2.8180  0.3062
 2729TIP3    H232383   1.704   2.898  19.667  1.0426 -1.1591  1.5270
 2730TIP3   OH232384   5.980   3.682  20.155  0.0616  0.8457 -0.5990
 2730TIP3    H132385   6.001   3.608  20.212 -1.6597  0.2640 -0.6681
 2730TIP3    H232386   5.979   3.644  20.067 -2.1644  0.6037 -0.5101
 2731TIP3   OH232387   2.708   6.300  18.116  0.0588 -0.0973  0.1693
 2731TIP3    H132388   2.717   6.205  18.111  1.3939 -0.0996  1.7031
 2731TIP3    H232389   2.780   6.328  18.173 -0.0380  1.8796 -0.5987
 2732TIP3   OH232390   1.277   4.406  18.270  0.7179  0.0787  0.4163
 2732TIP3    H132391   1.198   4.385  18.320  0.1207  0.8315 -0.1728
 2732TIP3    H232392   1.267   4.356  18.189  1.5429 -0.9194  0.9096
 2733TIP3   OH232393   0.712   4.298  18.182  0.0497  0.5585  0.5952
 2733TIP3    H132394   0.681   4.383  18.152  0.1942  1.3001  2.4435
 2733TIP3    H232395   0.668   4.235  18.124 -0.8853  1.8228 -0.1257
 2734TIP3   OH232396   1.439   1.663  16.388  0.5218  0.3100  0.7691
 2734TIP3    H132397   1.379   1.731  16.419  1.0706  1.0330  0.2703
 2734TIP3    H232398   1.422   1.589  16.446  0.4394  1.1213  1.8092
 2735TIP3   OH232399   0.226   1.258  17.891 -0.1160 -0.0263 -0.0647
 2735TIP3    H132400   0.179   1.326  17.842  1.6183  1.1330 -0.1885
 2735TIP3    H232401   0.168   1.239  17.966 -0.4109  2.0068  0.2816
 2736TIP3   OH232402   1.224   1.753  18.010  0.1653  0.4794  0.2216
 2736TIP3    H132403   1.265   1.679  18.055 -0.6135 -0.6870 -0.9214
 2736TIP3    H232404   1.131   1.730  18.006  0.0066  1.2248 -0.6815
 2737TIP3   OH232405   0.614   1.068  17.320  0.4044  0.4907 -0.2325
 2737TIP3    H132406   0.599   1.078  17.414 -0.2638 -1.5926 -0.0671
 2737TIP3    H232407   0.707   1.088  17.309  0.4729  0.8731  0.8544
 2738TIP3   OH232408   5.544   4.043  18.082  0.0078 -0.2054 -0.0655
 2738TIP3    H132409   5.466   4.059  18.029 -1.0579 -0.7296  1.2774
 2738TIP3    H232410   5.613   4.096  18.041 -0.8989 -0.1764 -1.6092
 2739TIP3   OH232411   6.146   3.271  18.421 -0.4292  0.9398  0.2304
 2739TIP3    H132412   6.138   3.340  18.355 -1.7712 -0.1327 -0.7730
 2739TIP3    H232413   6.225   3.295  18.470  2.7760  0.0337 -3.8601
 2740TIP3   OH232414   6.230   0.211  18.083  0.1991 -0.0752 -0.1037
 2740TIP3    H132415   6.192   0.299  18.086 -0.0878 -0.1877 -0.4429
 2740TIP3    H232416   6.320   0.225  18.054 -0.2066  0.0028 -1.4006
 2741TIP3   OH232417   2.629   4.510  18.244 -0.1586  0.0504 -0.8815
 2741TIP3    H132418   2.692   4.529  18.174 -0.2851 -0.8801 -1.2689
 2741TIP3    H232419   2.650   4.420  18.270 -2.1051 -0.7462 -1.8762
 2742TIP3   OH232420   2.721   5.026  19.612  0.3758  0.4472  0.1852
 2742TIP3    H132421   2.637   5.070  19.629  0.5784  0.1718  2.1860
 2742TIP3    H232422   2.734   4.970  19.689  0.6824 -2.2961 -1.7175
 2743TIP3   OH232423   0.461   2.664  20.046  0.0437  0.0181 -0.2476
 2743TIP3    H132424   0.478   2.625  20.131 -1.8328 -1.2305 -0.3874
 2743TIP3    H232425   0.396   2.732  20.062 -0.2413 -0.1495 -0.6542
 2744TIP3   OH232426   4.429   3.767  17.586  0.4179  0.0722 -0.0469
 2744TIP3    H132427   4.387   3.740  17.504  0.3901  0.9733 -0.3410
 2744TIP3    H232428   4.385   3.715  17.653  0.4578 -0.6943 -0.5994
 2745TIP3   OH232429   2.123   3.108  18.909  0.5724 -0.0715 -0.1500
 2745TIP3    H132430   2.199   3.053  18.887  0.7937  0.3103 -0.3549
 2745TIP3    H232431   2.081   3.126  18.825  0.2656 -0.2624 -0.0398
 2746TIP3   OH232432   4.618   4.805  17.311 -0.4500  0.7032  0.2192
 2746TIP3    H132433   4.622   4.900  17.327 -1.7660  0.9027 -0.5963
 2746TIP3    H232434   4.525   4.784  17.313 -0.2343 -0.3915 -0.6975
 2747TIP3   OH232435   1.506   4.906  17.834  0.0529  0.7463  0.0192
 2747TIP3    H132436   1.515   4.997  17.807 -1.5412  1.0592  0.4291
 2747TIP3    H232437   1.515   4.908  17.930  2.0282  0.1593 -0.1074
 2748TIP3   OH232438   4.147   3.817  16.879  0.0734 -0.0990 -0.0242
 2748TIP3    H132439   4.095   3.736  16.879 -1.1193  0.6269 -0.4578
 2748TIP3    H232440   4.103   3.872  16.814 -0.6123  1.7913  1.9243
 2749TIP3   OH232441   1.958   3.094  20.142 -0.8023 -0.1144  0.5382
 2749TIP3    H132442   1.964   3.007  20.182  0.6673 -0.1499  0.2938
 2749TIP3    H232443   1.949   3.077  20.048 -0.5938 -0.0067  0.4983
 2750TIP3   OH232444   6.481   2.005  19.258  0.0421  0.4001  0.6307
 2750TIP3    H132445   6.420   2.027  19.327 -0.4126 -1.7395  0.9769
 2750TIP3    H232446   6.426   1.975  19.186  0.6185 -2.2421  1.2033
 2751TIP3   OH232447   2.954   4.661  19.368 -0.1234  0.1458  0.3892
 2751TIP3    H132448   2.921   4.686  19.454 -1.2848 -1.4072  0.4421
 2751TIP3    H232449   3.008   4.584  19.385  2.3039  1.6978  0.0859
 2752TIP3   OH232450   6.655   2.412  18.798 -0.1560 -0.7815  0.4944
 2752TIP3    H132451   6.645   2.504  18.774  0.3568 -0.8175  0.1064
 2752TIP3    H232452   6.572   2.388  18.839 -1.1640 -0.7609 -1.4424
 2753TIP3   OH232453   6.427   4.810  17.029  0.3869  0.2625  0.1775
 2753TIP3    H132454   6.345   4.788  16.986  1.0892 -1.3377 -0.4535
 2753TIP3    H232455   6.478   4.856  16.963  0.7409 -0.5108 -0.0980
 2754TIP3   OH232456   4.528   2.034  17.615  0.1032 -0.0392 -0.0132
 2754TIP3    H132457   4.509   2.040  17.709 -3.3854  0.8948 -0.6370
 2754TIP3    H232458   4.457   2.082  17.573  1.4620 -0.5439 -3.1827
 2755TIP3   OH232459   6.708   0.188  19.233  0.0998 -0.1160 -0.0337
 2755TIP3    H132460   6.785   0.245  19.225 -1.1917  2.2013  2.3485
 2755TIP3    H232461   6.714   0.152  19.321 -0.6060 -1.4153 -0.4948
 2756TIP3   OH232462   3.858   3.047  18.437  0.2146  0.0641 -0.3694
 2756TIP3    H132463   3.846   2.958  18.405 -0.7680  0.1701 -0.3292
 2756TIP3    H232464   3.775   3.069  18.479 -0.8124  2.1225 -3.1303
 2757TIP3   OH232465   5.828   1.058  16.947  0.1732  0.1898  0.0850
 2757TIP3    H132466   5.838   0.977  16.997 -1.3254  0.0497  0.1919
 2757TIP3    H232467   5.822   1.126  17.014 -0.0020  0.2172  0.0411
 2758TIP3   OH232468   2.565   1.000  18.397 -0.0894  0.6442  0.3316
 2758TIP3    H132469   2.538   0.912  18.371  2.0843 -0.1860  0.6771
 2758TIP3    H232470   2.484   1.050  18.399 -1.4506 -1.4242  0.4367
 2759TIP3   OH232471   1.272   2.575  17.684 -0.0024 -0.2929 -0.5553
 2759TIP3    H132472   1.261   2.491  17.729 -1.4058 -0.4186 -1.0872
 2759TIP3    H232473   1.247   2.641  17.749 -1.0005 -0.4145 -0.8090
 2760TIP3   OH232474   4.885   5.530  17.298 -0.1904  0.9748 -0.1250
 2760TIP3    H132475   4.829   5.452  17.298  0.2522  0.6343  1.0271
 2760TIP3    H232476   4.852   5.583  17.371  0.3772  1.2151 -0.0346
 2761TIP3   OH232477   6.061   3.519  17.113  0.6687 -0.8935  0.0274
 2761TIP3    H132478   6.114   3.441  17.125  1.2039 -0.4720  0.4651
 2761TIP3    H232479   6.089   3.578  17.182  0.8968  0.0249 -0.8224
 2762TIP3   OH232480   2.105   2.641  20.067 -0.3324  0.2768 -0.2326
 2762TIP3    H132481   2.161   2.585  20.121 -0.7619 -0.3531 -0.4317
 2762TIP3    H232482   2.023   2.593  20.059 -0.8743  1.1449 -0.0403
 2763TIP3   OH232483   0.042   2.022  19.382  0.3474  0.3986  0.2284
 2763TIP3    H132484   0.074   1.983  19.300 -1.7002  1.2083 -1.0374
 2763TIP3    H232485  -0.043   1.981  19.397 -0.4786  2.1241  0.5045
 2764TIP3   OH232486   5.826   6.263  18.862 -0.0651  0.0798  0.2540
 2764TIP3    H132487   5.897   6.286  18.921  0.7329  0.4873 -0.8388
 2764TIP3    H232488   5.766   6.338  18.868 -0.0755  0.0449  0.6582
 2765TIP3   OH232489   1.310   3.429  17.105 -0.1602  0.7723 -0.2917
 2765TIP3    H132490   1.233   3.412  17.051 -0.3371  1.0190 -0.1190
 2765TIP3    H232491   1.384   3.418  17.045 -0.3655  1.3238 -0.6628
 2766TIP3   OH232492   2.121   2.918  16.296  0.4177  0.4923 -0.2810
 2766TIP3    H132493   2.052   2.859  16.326  1.8537 -1.0828  0.1379
 2766TIP3    H232494   2.084   3.006  16.305 -2.5308 -0.3120 -2.6929
 2767TIP3   OH232495   2.167   3.949  20.058 -0.2104  0.1654  0.1671
 2767TIP3    H132496   2.231   3.897  20.108  1.8282  2.0300 -0.3576
 2767TIP3    H232497   2.182   3.922  19.967 -0.6149  0.1863  0.0936
 2768TIP3   OH232498   1.053   4.075  18.240 -0.4538 -0.1488 -0.4717
 2768TIP3    H132499   1.113   4.029  18.298 -0.4928 -1.9074 -1.7286
 2768TIP3    H232500   0.976   4.018  18.234 -1.1933  0.8465 -0.8604
 2769TIP3   OH232501   2.833   1.981  17.615  0.1428 -0.2851 -0.1576
 2769TIP3    H132502   2.754   1.961  17.565  0.6237 -1.6910 -0.4191
 2769TIP3    H232503   2.886   1.901  17.608  1.2793  0.3769  0.5868
 2770TIP3   OH232504   3.855   3.699  19.790 -0.3497  0.7577 -0.5983
 2770TIP3    H132505   3.938   3.664  19.824 -0.9863  0.2442  0.4979
 2770TIP3    H232506   3.788   3.649  19.836 -1.2897  2.3469 -0.1508
 2771TIP3   OH232507   0.774   4.177  19.557 -0.5875 -0.3478 -0.3857
 2771TIP3    H132508   0.694   4.218  19.591  0.5559  1.0927  0.7264
 2771TIP3    H232509   0.808   4.126  19.630  0.1042  0.0037 -0.4498
 2772TIP3   OH232510   2.382   3.877  20.218  0.4102  0.5179  0.1790
 2772TIP3    H132511   2.367   3.782  20.215 -0.6762  0.6960 -0.5077
 2772TIP3    H232512   2.466   3.886  20.263 -0.1451 -0.7012  1.5816
 2773TIP3   OH232513   0.097   3.811  18.489 -0.4654  0.0668 -0.2891
 2773TIP3    H132514   0.165   3.830  18.425  0.6238 -1.3205  0.4153
 2773TIP3    H232515   0.137   3.748  18.549 -1.6651  0.7985  1.3684
 2774TIP3   OH232516   1.199   4.021  19.406  0.2224  0.5395  0.3769
 2774TIP3    H132517   1.133   3.957  19.377  1.8118 -1.3370  0.7113
 2774TIP3    H232518   1.148   4.094  19.439 -1.6863 -0.2362 -0.6742
 2775TIP3   OH232519   2.007   4.156  19.296 -0.7970 -0.1175 -0.1090
 2775TIP3    H132520   1.981   4.246  19.314 -2.7164 -0.3276 -1.5273
 2775TIP3    H232521   1.966   4.105  19.366 -2.7920 -0.2297 -1.2850
 2776TIP3   OH232522   6.103   3.154  16.853 -0.8921  0.5175 -0.0590
 2776TIP3    H132523   6.153   3.146  16.772 -0.0092 -0.3496  0.5297
 2776TIP3    H232524   6.016   3.182  16.826 -0.8995 -0.6938 -1.4004
 2777TIP3   OH232525   4.508   5.913  17.642 -0.4198  1.1406  0.0223
 2777TIP3    H132526   4.589   5.878  17.678 -0.2621 -0.7792 -2.0568
 2777TIP3    H232527   4.513   5.897  17.548 -3.1974  0.9253 -0.1885
 2778TIP3   OH232528   4.681   3.227  18.755  0.4479 -0.0113  1.0901
 2778TIP3    H132529   4.710   3.146  18.796  2.7479  1.8075  3.4974
 2778TIP3    H232530   4.761   3.264  18.717 -1.0703 -0.1113 -2.4961
 2779TIP3   OH232531   0.467   5.511  17.289 -0.2585  0.1999 -0.4791
 2779TIP3    H132532   0.539   5.574  17.278 -0.1753 -0.0238 -1.2869
 2779TIP3    H232533   0.501   5.430  17.252 -1.0925  0.2078 -1.2831
 2780TIP3   OH232534   5.013   1.036  17.273 -1.0728 -0.3556 -0.4707
 2780TIP3    H132535   4.921   1.022  17.250 -1.2701  0.3419 -0.1318
 2780TIP3    H232536   5.053   0.949  17.264 -1.1820 -0.2240 -3.1349
 2781TIP3   OH232537   5.664   3.642  19.557 -0.2403 -0.1198 -0.0387
 2781TIP3    H132538   5.647   3.675  19.646 -1.2375  0.0545 -0.2899
 2781TIP3    H232539   5.587   3.668  19.507 -0.3475 -1.5125 -0.6108
 2782TIP3   OH232540   0.570   6.046  18.410 -0.1119  0.1075  0.2127
 2782TIP3    H132541   0.627   6.122  18.420  0.1813  0.1825 -1.7736
 2782TIP3    H232542   0.483   6.078  18.434  0.1319  0.8486  0.1221
 2783TIP3   OH232543   5.236   6.609  19.816 -0.1640 -0.2541  0.2733
 2783TIP3    H132544   5.284   6.532  19.847 -1.5243 -1.7451 -1.1604
 2783TIP3    H232545   5.239   6.603  19.721  0.6881  2.1471  0.0782
 2784TIP3   OH232546   6.419   0.408  19.966  0.8084  0.5830 -0.5456
 2784TIP3    H132547   6.478   0.451  20.028 -0.4622  1.0685  0.3568
 2784TIP3    H232548   6.413   0.468  19.892  1.2110  0.6567 -0.5225
 2785TIP3   OH232549   6.613   3.780  16.628 -0.5408 -0.2306 -0.7822
 2785TIP3    H132550   6.647   3.832  16.556  0.2883  2.0184  1.1229
 2785TIP3    H232551   6.526   3.817  16.645  0.5846  1.6530  1.4687
 2786TIP3   OH232552   2.390   2.265  17.296  0.6847  0.4268 -0.3185
 2786TIP3    H132553   2.442   2.317  17.235 -2.2673  1.9357 -1.7663
 2786TIP3    H232554   2.384   2.319  17.374 -0.3434  1.2170 -0.9185
 2787TIP3   OH232555   5.355   0.873  19.549 -0.6414  0.6648  0.4317
 2787TIP3    H132556   5.386   0.822  19.623 -0.2806  0.5151  0.1787
 2787TIP3    H232557   5.418   0.945  19.541  1.8976 -1.6154 -2.3514
 2788TIP3   OH232558   6.283   3.140  19.120 -0.1408  0.4785 -0.2162
 2788TIP3    H132559   6.264   3.162  19.211  2.9692  2.2495  0.1689
 2788TIP3    H232560   6.267   3.221  19.072  0.4146  0.2321 -0.8358
 2789TIP3   OH232561   2.028   1.772  19.316  0.2513  0.4291  0.0242
 2789TIP3    H132562   2.009   1.828  19.392 -1.8040 -0.9316  0.5753
 2789TIP3    H232563   1.953   1.783  19.258 -0.6259 -2.2744  0.5064
 2790TIP3   OH232564   4.834   6.425  17.304  0.5199 -0.3749  0.2654
 2790TIP3    H132565   4.869   6.454  17.388 -1.1357 -1.2790  1.3167
 2790TIP3    H232566   4.790   6.503  17.269  1.0711 -0.0425  0.2942
 2791TIP3   OH232567   0.251   4.142  18.635  0.0351 -0.1209  0.1892
 2791TIP3    H132568   0.232   4.151  18.541  0.7300 -2.1724 -0.1919
 2791TIP3    H232569   0.282   4.229  18.661  0.8568  0.2151 -1.7424
 2792TIP3   OH232570   5.722   2.806  18.580  0.7465  0.0825  0.1417
 2792TIP3    H132571   5.670   2.852  18.646  0.3513 -0.0232 -0.0946
 2792TIP3    H232572   5.670   2.728  18.559  1.3201 -0.3789  0.4011
 2793TIP3   OH232573   1.518   1.736  17.806  0.0389  0.3771 -0.6519
 2793TIP3    H132574   1.533   1.812  17.750 -0.2575  1.2341  0.3995
 2793TIP3    H232575   1.483   1.669  17.747  1.3146  0.6745 -1.7921
 2794TIP3   OH232576   4.695   6.406  19.905 -0.2394  0.1295 -0.1977
 2794TIP3    H132577   4.633   6.436  19.971  0.8378  1.4743  0.2498
 2794TIP3    H232578   4.694   6.311  19.913 -1.0285  0.2122  0.9253
 2795TIP3   OH232579   3.815   2.361  19.498 -0.1566  0.6517 -0.1858
 2795TIP3    H132580   3.731   2.318  19.484  0.7028 -0.9080 -0.9232
 2795TIP3    H232581   3.851   2.373  19.410  2.0591 -2.3603  0.1237
 2796TIP3   OH232582   4.690   5.835  19.771 -0.3773 -0.1818  0.0964
 2796TIP3    H132583   4.661   5.748  19.744 -0.2973  0.1480 -1.1148
 2796TIP3    H232584   4.785   5.828  19.777 -0.1475  0.2845 -1.9679
 2797TIP3   OH232585   3.798   4.565  16.924  0.2877 -0.2758  0.4899
 2797TIP3    H132586   3.813   4.491  16.983 -1.1782  0.3760  1.7446
 2797TIP3    H232587   3.848   4.637  16.962  1.0552 -0.3877 -0.2776
 2798TIP3   OH232588   5.503   4.183  17.706 -0.1672  0.1053  0.7489
 2798TIP3    H132589   5.503   4.195  17.611  0.6061  1.5730  0.9111
 2798TIP3    H232590   5.423   4.227  17.735  0.0823  0.4860  0.8630
 2799TIP3   OH232591   6.541   4.074  16.828 -0.6449  0.4211 -1.1155
 2799TIP3    H132592   6.563   4.130  16.753 -0.3605 -0.7462 -1.9326
 2799TIP3    H232593   6.488   4.004  16.790 -0.6415 -0.0920 -0.1904
 2800TIP3   OH232594   1.375   1.996  19.882 -0.4378 -0.4707  0.1833
 2800TIP3    H132595   1.468   2.004  19.904 -0.9795 -0.3389  2.6806
 2800TIP3    H232596   1.347   2.086  19.863 -0.1855 -0.4240  0.0304
 2801TIP3   OH232597   2.382   2.702  18.529  0.4750 -0.1119 -0.1425
 2801TIP3    H132598   2.475   2.679  18.520  0.7860  0.2300  1.7916
 2801TIP3    H232599   2.339   2.618  18.547  0.3579 -0.3017 -1.2491
 2802TIP3   OH232600   2.731   0.222  18.517  0.4187 -0.3119  0.4406
 2802TIP3    H132601   2.696   0.305  18.484 -0.7058 -0.6896  0.6462
 2802TIP3    H232602   2.816   0.213  18.473 -0.8335 -0.5960 -2.0854
 2803TIP3   OH232603   2.159   5.754  17.364 -0.0711 -0.5387 -0.2251
 2803TIP3    H132604   2.230   5.755  17.300 -0.8910 -1.0712 -1.1743
 2803TIP3    H232605   2.163   5.840  17.406  1.0215 -0.5020 -0.3700
 2804TIP3   OH232606   1.394   2.036  17.225 -0.0731 -0.8042 -0.0470
 2804TIP3    H132607   1.421   2.128  17.228  1.2044 -1.1597 -0.0213
 2804TIP3    H232608   1.333   2.026  17.297 -0.0865 -0.0111  0.0572
 2805TIP3   OH232609   3.207   3.238  17.686  0.4783 -0.6907 -0.0880
 2805TIP3    H132610   3.138   3.257  17.621  1.1842 -1.0971 -0.9800
 2805TIP3    H232611   3.277   3.298  17.664  0.3061 -0.0645  1.0189
 2806TIP3   OH232612   5.153   0.138  19.602  0.0396 -0.4279  0.4255
 2806TIP3    H132613   5.237   0.112  19.641  0.6487  1.0618  0.1942
 2806TIP3    H232614   5.095   0.064  19.618  1.5030 -1.6547  0.2572
 2807TIP3   OH232615   3.221   4.836  19.776  0.3313 -0.4277  0.5365
 2807TIP3    H132616   3.287   4.797  19.832 -0.1183 -1.7647  0.1723
 2807TIP3    H232617   3.141   4.835  19.828 -0.2075 -2.1403 -0.2576
 2808TIP3   OH232618   1.729   5.397  18.725  0.0491  0.7045 -0.0940
 2808TIP3    H132619   1.702   5.410  18.634 -2.7378  1.1878  0.6957
 2808TIP3    H232620   1.782   5.317  18.724 -1.3196 -0.2455 -1.9221
 2809TIP3   OH232621   0.848   4.305  19.901  0.1606 -0.1636 -0.1244
 2809TIP3    H132622   0.793   4.378  19.931  1.1161  0.4359  0.2276
 2809TIP3    H232623   0.789   4.230  19.898 -1.1165  0.8374 -1.5154
 2810TIP3   OH232624   5.647   1.427  19.671  0.1385 -0.1900 -0.2150
 2810TIP3    H132625   5.631   1.455  19.761 -0.9338 -0.8495 -0.1748
 2810TIP3    H232626   5.576   1.468  19.621 -0.4496 -1.4068 -0.4237
 2811TIP3   OH232627   1.535   6.222  17.645 -0.1377 -0.6624 -0.3294
 2811TIP3    H132628   1.519   6.299  17.700  0.9644 -1.1166  0.6887
 2811TIP3    H232629   1.618   6.241  17.601  0.0346 -1.1761 -0.2309
 2812TIP3   OH232630   1.004   3.811  16.896  0.5640  0.2974 -0.6725
 2812TIP3    H132631   0.947   3.739  16.925  1.4591 -0.1877 -0.0500
 2812TIP3    H232632   1.082   3.768  16.862  0.2580  0.9320 -2.2601
 2813TIP3   OH232633   5.406   3.388  19.127 -0.2401 -0.2386 -0.2367
 2813TIP3    H132634   5.500   3.377  19.111 -0.3582 -0.1854 -1.0033
 2813TIP3    H232635   5.390   3.481  19.111 -0.7757 -0.6073 -2.1569
 2814TIP3   OH232636   1.214   3.955  18.415  0.3576 -0.1413  0.1023
 2814TIP3    H132637   1.188   3.951  18.507 -0.6932 -1.4221 -0.2326
 2814TIP3    H232638   1.208   3.865  18.384  0.8533  0.2460 -1.1895
 2815TIP3   OH232639   1.510   0.778  19.072  0.4955 -0.1950 -0.1791
 2815TIP3    H132640   1.569   0.809  19.141 -0.1988  2.8144 -0.7885
 2815TIP3    H232641   1.568   0.751  19.001  1.1736 -1.5681  0.8662
 2816TIP3   OH232642   5.624   5.916  19.608 -0.2044  0.5640 -0.5671
 2816TIP3    H132643   5.538   5.955  19.624  0.3206  1.0076  1.4297
 2816TIP3    H232644   5.685   5.988  19.620  0.4910  0.1468 -1.5279
 2817TIP3   OH232645   0.093   3.432  20.051  0.2810  0.3838 -0.1013
 2817TIP3    H132646   0.109   3.348  20.095  1.1600  0.5351 -0.0971
 2817TIP3    H232647   0.135   3.423  19.966  0.2629  0.7684 -0.1554
 2818TIP3   OH232648   4.224   1.671  18.118 -0.1814  0.4166 -0.0535
 2818TIP3    H132649   4.309   1.669  18.073 -0.7853 -1.1987 -1.2391
 2818TIP3    H232650   4.173   1.737  18.072 -0.3234 -0.2463 -0.8646
 2819TIP3   OH232651   1.745   2.061  17.739  0.0736 -0.0104 -0.5346
 2819TIP3    H132652   1.839   2.044  17.739  0.1123  0.0869  0.7288
 2819TIP3    H232653   1.734   2.136  17.681  0.7869 -0.0081 -0.6772
 2820TIP3   OH232654   0.329   0.119  19.387 -0.1188 -0.7168  0.0425
 2820TIP3    H132655   0.405   0.129  19.444 -1.0862  3.1367  0.9372
 2820TIP3    H232656   0.285   0.041  19.419  2.3457 -1.9499  0.7290
 2821TIP3   OH232657   0.062   6.156  17.256 -0.5114 -0.2173 -0.1646
 2821TIP3    H132658   0.109   6.199  17.328 -0.0598  0.6631 -0.9721
 2821TIP3    H232659   0.026   6.227  17.204 -0.7145 -0.8377 -0.8992
 2822TIP3   OH232660   2.061   6.338  17.767 -0.1635 -0.6187  0.0473
 2822TIP3    H132661   2.103   6.252  17.777  0.6603 -0.1355  0.8822
 2822TIP3    H232662   2.107   6.377  17.693 -0.2697 -0.7409 -0.0837
 2823TIP3   OH232663   5.158   3.231  20.083  0.1211  0.5233 -0.3481
 2823TIP3    H132664   5.235   3.201  20.132  0.6169  1.8898 -0.2304
 2823TIP3    H232665   5.175   3.324  20.068 -1.1571  0.6649 -1.0081
 2824TIP3   OH232666   0.057   0.639  18.816 -0.5489  0.0268  0.3453
 2824TIP3    H132667   0.049   0.604  18.905  3.8263 -0.2358  0.8828
 2824TIP3    H232668   0.015   0.725  18.820 -1.8844 -0.6456  2.1888
 2825TIP3   OH232669   4.911   1.256  18.271 -0.2017 -0.4801  0.1618
 2825TIP3    H132670   4.970   1.189  18.305  0.8460  0.7381  0.8138
 2825TIP3    H232671   4.887   1.308  18.347 -1.8081 -0.6777 -0.1634
 2826TIP3   OH232672   2.930   1.510  19.602 -0.0268  0.1361 -0.2446
 2826TIP3    H132673   2.900   1.520  19.512  1.0920  1.6556 -0.4978
 2826TIP3    H232674   2.999   1.444  19.598  0.0062  0.1866 -0.5120
 2827TIP3   OH232675   2.764   3.941  16.341 -0.6319 -0.0115 -0.4781
 2827TIP3    H132676   2.782   3.859  16.387  2.9922  0.1763 -1.2667
 2827TIP3    H232677   2.733   3.913  16.254  2.8058 -0.8322 -1.6151
 2828TIP3   OH232678   4.458   0.793  18.217  0.3864 -0.4299  0.4791
 2828TIP3    H132679   4.458   0.728  18.146  0.2389 -0.1727  0.2396
 2828TIP3    H232680   4.493   0.873  18.176  2.0912 -0.7728  1.1780
 2829TIP3   OH232681   4.113   6.243  17.967 -0.6896  0.3347  0.0851
 2829TIP3    H132682   4.070   6.160  17.990 -2.5019  0.8356 -1.3220
 2829TIP3    H232683   4.207   6.223  17.972 -1.0803 -1.8299 -0.3316
 2830TIP3   OH232684   1.780   2.349  18.829 -0.1512  0.1221  0.0323
 2830TIP3    H132685   1.816   2.272  18.786 -0.0669  0.0410  0.2462
 2830TIP3    H232686   1.845   2.371  18.896  0.0392  0.6415 -0.3196
 2831TIP3   OH232687   0.468   3.223  18.036  0.4397 -0.2049  0.0428
 2831TIP3    H132688   0.464   3.293  17.971 -0.9995 -0.6637 -0.3961
 2831TIP3    H232689   0.378   3.191  18.043  0.4654  0.0360  2.5058
 2832TIP3   OH232690   2.490   4.374  17.699 -0.3702 -0.0701 -0.0787
 2832TIP3    H132691   2.438   4.319  17.758  0.7095 -1.4354 -0.3420
 2832TIP3    H232692   2.481   4.462  17.735 -1.9751 -0.4295  0.4957
 2833TIP3   OH232693   3.047   3.598  17.281 -0.1897 -0.0264  0.1874
 2833TIP3    H132694   3.069   3.690  17.263 -1.1694  0.6882  2.3445
 2833TIP3    H232695   3.070   3.552  17.201 -0.6580  2.2645 -1.3556
 2834TIP3   OH232696   1.311   0.894  19.696 -0.3408 -0.2350 -0.0296
 2834TIP3    H132697   1.390   0.849  19.725 -0.5126 -0.9881 -0.7066
 2834TIP3    H232698   1.337   0.986  19.692  0.9822 -0.6233 -1.6844
 2835TIP3   OH232699   5.563   2.004  17.637  0.1627  0.4338 -0.1135
 2835TIP3    H132700   5.575   2.092  17.673 -0.2850  0.0853  0.9488
 2835TIP3    H232701   5.651   1.967  17.633  0.4682  1.2482 -1.4641
 2836TIP3   OH232702   2.272   2.902  17.266  0.4521 -0.2330  0.6669
 2836TIP3    H132703   2.343   2.966  17.272  2.0255 -1.6587 -1.3178
 2836TIP3    H232704   2.219   2.932  17.192  1.6674 -1.5372 -0.8159
 2837TIP3   OH232705   2.408   6.504  18.290 -0.4218 -0.4657  0.2509
 2837TIP3    H132706   2.383   6.594  18.273 -0.4504 -0.5024  0.0977
 2837TIP3    H232707   2.363   6.453  18.223  0.6377 -0.4603 -0.4798
 2838TIP3   OH232708   0.384   3.070  17.344  0.3410 -0.3565 -0.2887
 2838TIP3    H132709   0.293   3.090  17.324 -0.3989 -1.2947  1.8056
 2838TIP3    H232710   0.419   3.032  17.263 -1.2564 -0.4205 -0.9863
 2839TIP3   OH232711   0.786   5.174  18.958  0.5274 -0.0635 -0.0949
 2839TIP3    H132712   0.813   5.131  19.039  0.4268 -0.3224 -0.1959
 2839TIP3    H232713   0.861   5.226  18.932  0.4640  0.2338  0.3102
 2840TIP3   OH232714   5.349   3.076  16.953  0.3924  0.4517 -0.5419
 2840TIP3    H132715   5.327   3.164  16.983  1.0805  0.3727  0.2247
 2840TIP3    H232716   5.314   3.072  16.863  0.5092  1.5574 -0.6506
 2841TIP3   OH232717   1.506   5.934  18.134  0.3179 -0.3085 -0.2914
 2841TIP3    H132718   1.523   6.028  18.135  0.8428 -0.3836 -0.8707
 2841TIP3    H232719   1.557   5.902  18.059 -1.9591 -0.6699 -1.7903
 2842TIP3   OH232720   3.492   1.904  18.712 -0.2194  0.1965  0.3128
 2842TIP3    H132721   3.493   1.816  18.748  0.3463 -0.0656 -0.3139
 2842TIP3    H232722   3.550   1.954  18.770 -0.6510  0.2004  0.7506
 2843TIP3   OH232723   5.479   1.531  18.153  0.1358  0.3923 -0.8510
 2843TIP3    H132724   5.457   1.439  18.138  0.4882  0.2321 -0.4276
 2843TIP3    H232725   5.575   1.532  18.154  0.1709  0.2858  1.7992
 2844TIP3   OH232726   0.375   6.604  18.564 -0.4439  0.6009  0.0880
 2844TIP3    H132727   0.380   6.523  18.614 -1.5332  0.2477 -0.3505
 2844TIP3    H232728   0.402   6.672  18.626  0.3055 -0.0571  0.5130
 2845TIP3   OH232729   5.172   0.420  18.528 -0.4745 -0.0954 -0.0522
 2845TIP3    H132730   5.112   0.400  18.601  0.4944 -1.9135  0.3128
 2845TIP3    H232731   5.169   0.341  18.473 -0.9119  1.0974 -1.8380
 2846TIP3   OH232732   4.297   1.167  17.775 -0.0543 -0.0858  0.8563
 2846TIP3    H132733   4.206   1.165  17.746  0.2219  0.0103 -0.0624
 2846TIP3    H232734   4.328   1.077  17.763  0.0130 -0.0831  1.0123
 2847TIP3   OH232735   6.357   3.244  17.333 -0.1529 -0.1283 -0.2935
 2847TIP3    H132736   6.326   3.231  17.243 -2.0406 -1.5459  0.5120
 2847TIP3    H232737   6.339   3.336  17.351 -4.3999 -0.8346  0.1696
 2848TIP3   OH232738   4.077   6.508  17.919  0.1026 -0.1010 -0.0025
 2848TIP3    H132739   4.093   6.414  17.932 -1.3766 -0.5239 -0.9887
 2848TIP3    H232740   4.097   6.547  18.004 -0.0794 -1.4247  0.6845
 2849TIP3   OH232741   2.794   6.559  18.425 -0.2674  0.2909  0.1087
 2849TIP3    H132742   2.773   6.476  18.467 -2.4801  0.9857  0.5040
 2849TIP3    H232743   2.793   6.623  18.496  1.3860  0.7108 -0.1937
 2850TIP3   OH232744   5.014   3.023  16.539  0.2159  0.1866  0.1157
 2850TIP3    H132745   5.000   2.929  16.527 -1.3519  0.3828  0.2939
 2850TIP3    H232746   4.984   3.063  16.457 -2.5075  0.7991  1.3265
 2851TIP3   OH232747   5.533   1.278  17.020 -0.7420 -0.3953 -0.3228
 2851TIP3    H132748   5.563   1.335  16.950 -2.4560  1.3185  0.2376
 2851TIP3    H232749   5.465   1.224  16.980 -1.1235 -0.0117 -0.2029
 2852TIP3   OH232750   6.480   1.933  20.235 -0.4986  0.4118  0.8120
 2852TIP3    H132751   6.526   1.852  20.252  1.9270  1.9777  2.3175
 2852TIP3    H232752   6.397   1.925  20.282 -1.3124 -1.9369 -0.8267
 2853TIP3   OH232753   5.448   4.213  19.633 -0.0793 -0.1326  0.1403
 2853TIP3    H132754   5.506   4.216  19.709 -1.4735  1.2957  1.2063
 2853TIP3    H232755   5.403   4.128  19.640 -0.5474  0.1868  1.2145
 2854TIP3   OH232756   2.541   4.889  17.865  0.1377 -0.1116 -0.3929
 2854TIP3    H132757   2.503   4.895  17.952  0.5173  0.7108 -0.2841
 2854TIP3    H232758   2.490   4.950  17.812  0.1180 -0.3719 -0.6825
 2855TIP3   OH232759   3.235   3.631  19.321 -0.4111  0.1450  0.0729
 2855TIP3    H132760   3.148   3.671  19.320  0.4366  2.1062  0.5440
 2855TIP3    H232761   3.274   3.657  19.238 -0.9190 -2.4099 -1.0702
 2856TIP3   OH232762   5.576   2.225  18.530 -0.2106 -0.8128 -0.1754
 2856TIP3    H132763   5.584   2.137  18.567  0.4170  0.0336  1.8858
 2856TIP3    H232764   5.652   2.273  18.564 -0.7738  0.6441 -0.8569
 2857TIP3   OH232765   0.633   6.300  18.581  0.2732 -0.2556  0.6939
 2857TIP3    H132766   0.634   6.341  18.494  0.3734 -1.1905  0.2317
 2857TIP3    H232767   0.707   6.340  18.627  1.1173 -0.7547 -0.1662
 2858TIP3   OH232768   2.229   4.211  17.624  0.4720 -0.1604 -0.5498
 2858TIP3    H132769   2.260   4.287  17.574 -1.2314  1.3757  0.6072
 2858TIP3    H232770   2.171   4.248  17.691 -1.1922 -2.5480 -0.5320
 2859TIP3   OH232771   3.667   3.501  19.893  0.7494 -0.3832  0.1576
 2859TIP3    H132772   3.589   3.463  19.934 -1.3562  1.3343 -1.9578
 2859TIP3    H232773   3.694   3.436  19.828 -0.5319  0.0579 -0.8584
 2860TIP3   OH232774   1.321   1.728  19.582  0.3227 -0.0573 -0.1987
 2860TIP3    H132775   1.327   1.749  19.489 -0.3623  0.0631 -0.2224
 2860TIP3    H232776   1.403   1.761  19.620  0.5240  0.0525 -0.7297
 2861TIP3   OH232777   0.932   3.465  18.772  0.2370  0.1126 -0.3127
 2861TIP3    H132778   0.931   3.512  18.689  0.4202  0.5674 -0.0623
 2861TIP3    H232779   0.899   3.528  18.836 -1.1733 -0.6574 -0.2512
 2862TIP3   OH232780   4.037   5.712  17.491 -0.2836 -0.7786 -0.4632
 2862TIP3    H132781   3.979   5.651  17.445 -0.0136 -1.6356  0.2999
 2862TIP3    H232782   4.107   5.657  17.526 -0.5998 -0.2059  1.1616
 2863TIP3   OH232783   3.954   6.464  18.599  0.1227  0.3429  0.3117
 2863TIP3    H132784   4.009   6.390  18.624 -0.4386 -0.2080 -0.0564
 2863TIP3    H232785   3.958   6.467  18.504 -1.0181 -0.1300  0.2344
 2864TIP3   OH232786   6.055   5.322  17.773 -0.1758  0.0555  0.3649
 2864TIP3    H132787   6.022   5.367  17.696  2.7897  0.5880 -0.7218
 2864TIP3    H232788   6.027   5.231  17.762 -0.3001  0.2424 -1.0463
 2865TIP3   OH232789   3.088   4.285  18.586  0.6886 -0.2938 -0.0620
 2865TIP3    H132790   3.042   4.355  18.632 -0.0184 -1.2575  0.7618
 2865TIP3    H232791   3.019   4.221  18.565  1.4576 -1.2026  0.1183
 2866TIP3   OH232792   2.231   2.923  19.210 -0.5954 -0.3082  0.2173
 2866TIP3    H132793   2.277   2.891  19.132 -2.3741 -1.2302 -0.5325
 2866TIP3    H232794   2.277   2.884  19.284  0.9553  0.3557 -0.3442
 2867TIP3   OH232795   1.715   4.781  17.714 -0.2969  0.3852 -0.3934
 2867TIP3    H132796   1.692   4.710  17.654  0.5196  0.0052 -0.2712
 2867TIP3    H232797   1.637   4.836  17.719 -0.9067 -0.4698 -0.5445
 2868TIP3   OH232798   4.549   2.760  17.806 -0.1264  0.0601  0.1531
 2868TIP3    H132799   4.596   2.752  17.723  0.4243  0.2251  0.4399
 2868TIP3    H232800   4.612   2.802  17.865 -0.7032  0.4587  0.4982
 2869TIP3   OH232801   3.334   3.851  19.771 -0.0444 -0.2399 -0.0432
 2869TIP3    H132802   3.242   3.856  19.796  0.2287 -1.1485  1.2915
 2869TIP3    H232803   3.334   3.806  19.687 -0.9409  1.9189 -1.2899
 2870TIP3   OH232804   2.766   0.141  18.202  0.5742  0.3014  0.1363
 2870TIP3    H132805   2.853   0.176  18.221  0.3721  0.0377  1.6167
 2870TIP3    H232806   2.768   0.051  18.234 -0.3160  0.3637  0.3893
 2871TIP3   OH232807   1.037   2.808  16.706 -0.0678 -0.0148 -0.2593
 2871TIP3    H132808   1.017   2.758  16.784 -3.2375  0.3914 -0.6716
 2871TIP3    H232809   1.071   2.743  16.644  0.3005 -0.7495  0.6799
 2872TIP3   OH232810   5.134   6.011  18.138 -0.1910 -0.2306  0.4006
 2872TIP3    H132811   5.189   5.932  18.136 -0.0405 -0.1375  0.7450
 2872TIP3    H232812   5.089   6.005  18.223 -0.9468 -0.4650 -0.0089
 2873TIP3   OH232813   6.727   4.483  16.974  0.3757 -0.2388  0.0485
 2873TIP3    H132814   6.707   4.562  17.023  0.7999 -0.4424  0.5731
 2873TIP3    H232815   6.653   4.425  16.990  0.0119  0.0886 -0.4274
 2874TIP3   OH232816   2.479   2.492  18.351 -0.2030 -0.4914  0.1769
 2874TIP3    H132817   2.431   2.417  18.386  0.3624 -1.7848 -1.6820
 2874TIP3    H232818   2.415   2.538  18.298  0.2559 -1.5907 -1.3971
 2875TIP3   OH232819   0.979   3.550  18.143 -0.3720  0.3471 -0.0308
 2875TIP3    H132820   0.886   3.535  18.157 -0.2964  0.2562  0.4112
 2875TIP3    H232821   1.007   3.478  18.086 -0.6186  0.5064 -0.3517
 2876TIP3   OH232822   5.638   0.636  19.590  0.2799 -0.2593  0.5275
 2876TIP3    H132823   5.696   0.560  19.590 -0.5864 -0.9596 -0.6160
 2876TIP3    H232824   5.697   0.711  19.583  1.0686 -0.9906 -1.5844
 2877TIP3   OH232825   4.228   6.102  17.406  0.1874  0.5325  0.1486
 2877TIP3    H132826   4.303   6.100  17.345 -0.6915 -0.1738 -0.9532
 2877TIP3    H232827   4.168   6.166  17.368  0.4448  1.4813  1.3100
 2878TIP3   OH232828   4.344   5.355  20.160 -0.3846 -0.4794 -0.0127
 2878TIP3    H132829   4.370   5.447  20.170 -0.4997 -0.2635 -1.4441
 2878TIP3    H232830   4.426   5.308  20.149 -0.3882 -0.2064 -1.5245
 2879TIP3   OH232831   6.453   4.636  19.588  0.2163  0.0377 -0.0139
 2879TIP3    H132832   6.449   4.554  19.538 -1.4815 -0.4869  0.9245
 2879TIP3    H232833   6.391   4.694  19.545  1.0813  0.7075 -0.3967
 2880TIP3   OH232834   1.734   4.111  19.210  0.1733  0.1211  0.3457
 2880TIP3    H132835   1.829   4.122  19.220 -0.0483  0.9393  1.8271
 2880TIP3    H232836   1.699   4.200  19.215 -0.7317 -0.2296  0.4331
 2881TIP3   OH232837   4.112   5.538  16.788 -0.2676 -0.0863 -0.1520
 2881TIP3    H132838   4.172   5.496  16.726  0.6710 -0.2979  0.8688
 2881TIP3    H232839   4.063   5.601  16.735 -0.9729 -1.6906 -1.5289
 2882TIP3   OH232840   6.541   4.378  18.263 -0.0284  0.0115 -0.4070
 2882TIP3    H132841   6.456   4.418  18.279 -0.1921  0.0871 -1.3998
 2882TIP3    H232842   6.585   4.439  18.203  0.1814 -0.6905 -0.9844
 2883TIP3   OH232843   2.026   6.018  17.215  0.0492  0.0118  0.0189
 2883TIP3    H132844   2.113   6.025  17.175 -0.3145  0.7082 -0.6795
 2883TIP3    H232845   2.019   6.096  17.271  0.1896 -0.4706  0.7121
 2884TIP3   OH232846   1.400   1.753  17.451 -0.0480 -0.3574  0.1070
 2884TIP3    H132847   1.315   1.790  17.429 -0.0514 -0.8986 -0.8830
 2884TIP3    H232848   1.436   1.811  17.517 -0.8255  0.3495 -0.0783
 2885TIP3   OH232849   4.870   3.963  18.340  0.8193  0.2969  0.2175
 2885TIP3    H132850   4.837   4.032  18.398  0.7183 -0.5807  1.2294
 2885TIP3    H232851   4.933   4.008  18.283 -0.8508  1.6763 -0.6389
 2886TIP3   OH232852   5.793   5.624  20.016  0.3286 -0.2149 -0.2140
 2886TIP3    H132853   5.823   5.537  20.042  0.5373  0.3141  1.4002
 2886TIP3    H232854   5.840   5.685  20.073 -0.9667  0.8682 -0.2297
 2887TIP3   OH232855   1.425   0.513  19.568 -0.2921 -0.0313 -0.4528
 2887TIP3    H132856   1.439   0.420  19.550 -0.3196 -0.1619  0.1744
 2887TIP3    H232857   1.512   0.547  19.588 -0.4433 -0.2028  0.5501
 2888TIP3   OH232858   3.341   5.510  19.038  0.2979  0.0616 -0.2097
 2888TIP3    H132859   3.409   5.448  19.010  0.1012 -0.4623  0.4442
 2888TIP3    H232860   3.265   5.488  18.984  0.3790  0.0576 -0.3226
 2889TIP3   OH232861   2.992   0.425  17.131 -0.1187  0.3378 -0.3871
 2889TIP3    H132862   2.908   0.388  17.158 -0.0164  0.0921 -0.4014
 2889TIP3    H232863   2.974   0.467  17.047 -0.1475 -0.0196 -0.5574
 2890TIP3   OH232864   2.737   4.175  18.000 -0.5542 -0.2348  0.0599
 2890TIP3    H132865   2.826   4.160  17.968 -1.2924 -1.0177 -1.7791
 2890TIP3    H232866   2.748   4.196  18.093  1.6886  1.6814 -0.5439
 2891TIP3   OH232867   6.505   4.756  16.752  0.0019  0.0806 -0.2004
 2891TIP3    H132868   6.428   4.800  16.717  1.3161  1.0256 -2.0915
 2891TIP3    H232869   6.562   4.826  16.783 -0.1826 -0.6404  1.9645
 2892TIP3   OH232870   5.930   1.265  20.215 -0.3623  0.3793  0.4763
 2892TIP3    H132871   5.866   1.300  20.153  0.4132 -0.4442 -0.8192
 2892TIP3    H232872   5.987   1.210  20.163 -0.4183 -1.3595  2.1335
 2893TIP3   OH232873   5.900   1.846  17.234  0.4352 -0.3981  0.2858
 2893TIP3    H132874   5.989   1.831  17.265 -0.7762 -2.1245  3.3657
 2893TIP3    H232875   5.878   1.768  17.184  0.5689 -0.0141 -0.3927
 2894TIP3   OH232876   0.081   5.651  19.075  1.1649  0.4188 -0.5024
 2894TIP3    H132877   0.078   5.618  18.985 -0.9461 -1.3427  0.1006
 2894TIP3    H232878  -0.011   5.669  19.096  1.7427  1.8601  0.9643
 2895TIP3   OH232879   0.822   6.579  19.253  0.3039  0.2598 -0.0854
 2895TIP3    H132880   0.787   6.526  19.326 -0.5127  0.4553 -0.3216
 2895TIP3    H232881   0.896   6.626  19.291  0.4577 -0.3414  0.3757
 2896TIP3   OH232882   0.838   5.198  16.883 -0.0549  0.1565  0.3389
 2896TIP3    H132883   0.910   5.136  16.891 -1.0619 -0.9411  1.3176
 2896TIP3    H232884   0.820   5.202  16.789  0.6844 -0.2540  0.1742
 2897TIP3   OH232885   4.410   0.188  18.678  0.0186  0.1531 -0.0896
 2897TIP3    H132886   4.342   0.130  18.644 -1.6870  2.6290 -1.1871
 2897TIP3    H232887   4.492   0.154  18.640 -1.2396  0.0532 -3.0024
 2898TIP3   OH232888   0.318   0.582  17.244  0.2385  0.4999 -0.6225
 2898TIP3    H132889   0.396   0.636  17.255 -0.2811  0.9089  1.4819
 2898TIP3    H232890   0.304   0.579  17.149  3.7750 -1.0280 -1.2645
 2899TIP3   OH232891   0.205   1.868  17.432  0.6072 -0.9388 -0.5781
 2899TIP3    H132892   0.260   1.927  17.483 -1.2575 -1.2655  2.0210
 2899TIP3    H232893   0.266   1.805  17.393  2.5293  1.8591 -2.4918
 2900TIP3   OH232894   1.193   3.488  17.346 -0.0819  0.4070  0.1131
 2900TIP3    H132895   1.198   3.475  17.251 -0.8793  0.3812  0.0707
 2900TIP3    H232896   1.277   3.456  17.379 -0.4408 -1.1196 -0.4145
 2901TIP3   OH232897   5.110   3.250  16.145  0.9758  0.1107 -0.7296
 2901TIP3    H132898   5.180   3.213  16.092  1.4978  0.9970 -0.6742
 2901TIP3    H232899   5.118   3.345  16.134  1.1779  0.3339  1.0125
 2902TIP3   OH232900   5.712   4.438  18.074 -0.3354 -0.6595  0.0639
 2902TIP3    H132901   5.701   4.375  18.003  0.2173 -0.8845  0.1748
 2902TIP3    H232902   5.722   4.522  18.031  0.5866 -0.8751 -0.1478
 2903TIP3   OH232903   3.934   3.236  20.037 -0.0649  0.1282  0.1080
 2903TIP3    H132904   3.971   3.149  20.052  1.0833  0.9070  2.2842
 2903TIP3    H232905   3.839   3.221  20.037  0.0915 -1.0614  1.0381
 2904TIP3   OH232906   1.357   6.180  18.707 -0.3751 -0.8079  0.2273
 2904TIP3    H132907   1.313   6.097  18.726 -2.2453 -0.0989 -0.7644
 2904TIP3    H232908   1.432   6.181  18.767 -1.1269 -2.5426  1.2857
 2905TIP3   OH232909   0.910   5.848  18.751 -0.2160  0.3574 -0.4223
 2905TIP3    H132910   0.829   5.897  18.735 -2.0314 -1.8666  1.1791
 2905TIP3    H232911   0.935   5.815  18.664 -2.2043 -0.5100 -0.7452
 2906TIP3   OH232912   2.502   3.911  18.451  0.1346  0.7291  0.0559
 2906TIP3    H132913   2.447   3.890  18.376  0.2333 -1.2573  0.4809
 2906TIP3    H232914   2.444   3.957  18.512  0.6914  4.9856 -2.2398
 2907TIP3   OH232915   6.164   3.316  16.547 -0.1320  0.0871 -0.7532
 2907TIP3    H132916   6.195   3.228  16.568 -0.3675  0.3202  0.6645
 2907TIP3    H232917   6.069   3.310  16.554 -0.0909  0.8653  1.2852
 2908TIP3   OH232918   1.842   2.899  17.602 -0.0060 -0.8593  0.4723
 2908TIP3    H132919   1.895   2.909  17.681 -1.0006  1.3559  0.9427
 2908TIP3    H232920   1.763   2.950  17.620 -1.3543 -2.3090 -1.0322
 2909TIP3   OH232921   2.549   2.614  19.863 -0.1465  0.1101  0.0268
 2909TIP3    H132922   2.476   2.555  19.846  1.8427 -2.4038 -0.4548
 2909TIP3    H232923   2.598   2.617  19.781  0.9753  0.7043  0.6865
 2910TIP3   OH232924   6.592   6.689  19.257 -0.4783  1.3148 -0.2110
 2910TIP3    H132925   6.537   6.706  19.333 -0.8485  1.2573 -0.4590
 2910TIP3    H232926   6.617   6.776  19.225  1.4696  1.3411  1.2315
 2911TIP3   OH232927   6.356   4.770  20.054  0.0074 -0.3146  0.2562
 2911TIP3    H132928   6.403   4.717  19.990  0.0737  0.7469 -0.6233
 2911TIP3    H232929   6.343   4.854  20.009  1.1155  0.8828  2.0670
 2912TIP3   OH232930   0.375   5.049  19.006  0.1050  0.3558 -0.8413
 2912TIP3    H132931   0.454   5.010  19.044 -0.0668 -0.1655 -1.0214
 2912TIP3    H232932   0.408   5.121  18.952  0.2823  2.3543  1.6917
 2913TIP3   OH232933   0.894   1.453  18.460 -0.2379 -0.7943  0.4013
 2913TIP3    H132934   0.818   1.488  18.411  0.6616 -0.6995 -0.9923
 2913TIP3    H232935   0.917   1.523  18.521  0.5786  0.5037 -1.2898
 2914TIP3   OH232936   0.503   3.942  18.636  0.1838  0.3725  0.0565
 2914TIP3    H132937   0.438   4.002  18.672 -0.4525 -0.9030  1.0865
 2914TIP3    H232938   0.484   3.939  18.542 -0.0696  1.4007  0.0660
 2915TIP3   OH232939   5.288   0.483  19.929 -0.0851  0.0918  0.5089
 2915TIP3    H132940   5.288   0.416  19.998 -2.2527 -0.2822  0.2266
 2915TIP3    H232941   5.379   0.490  19.901  0.6470 -0.6077  2.5822
 2916TIP3   OH232942   0.208   2.664  18.958  0.4423 -0.3131  0.0089
 2916TIP3    H132943   0.236   2.573  18.953 -1.8892 -0.9996 -2.6934
 2916TIP3    H232944   0.181   2.676  19.049  0.0832 -2.5314  0.2419
 2917TIP3   OH232945   5.397   0.557  19.466  0.2740 -0.2849 -0.0457
 2917TIP3    H132946   5.401   0.490  19.397 -1.7244 -0.9921  0.4633
 2917TIP3    H232947   5.488   0.566  19.495  0.9883 -0.8538 -1.9120
 2918TIP3   OH232948   1.520   5.997  17.818 -0.2001  0.2418  0.2828
 2918TIP3    H132949   1.510   6.091  17.831 -0.0348  0.2455  0.3866
 2918TIP3    H232950   1.436   5.959  17.843 -1.2872  0.6330 -2.4439
 2919TIP3   OH232951   1.255   2.715  17.115  0.1377  0.1188  0.1325
 2919TIP3    H132952   1.230   2.732  17.205  1.4778  0.7452  0.4053
 2919TIP3    H232953   1.230   2.795  17.068 -1.0338 -0.4070 -0.1697
 2920TIP3   OH232954   4.562   5.212  20.124  0.6135 -0.1345 -0.0622
 2920TIP3    H132955   4.577   5.197  20.030 -0.1748 -1.0010 -0.0774
 2920TIP3    H232956   4.642   5.254  20.155  0.7803  0.4309 -1.1783
 2921TIP3   OH232957   1.070   3.405  15.944 -0.4176  0.4385  0.3631
 2921TIP3    H132958   1.135   3.430  15.878 -2.4023  0.0640 -1.8735
 2921TIP3    H232959   1.020   3.484  15.961 -0.5179  0.3004  0.7354
 2922TIP3   OH232960   0.059   4.095  19.304 -0.1098 -0.1114 -0.4556
 2922TIP3    H132961   0.020   4.076  19.389  0.4789  0.7263  0.0072
 2922TIP3    H232962   0.020   4.178  19.278  0.7659  0.3384 -0.3541
 2923TIP3   OH232963   5.549   0.105  20.017 -0.7299  0.0528 -0.0431
 2923TIP3    H132964   5.540   0.187  20.065  2.2991 -0.7053  2.0983
 2923TIP3    H232965   5.608   0.125  19.945  0.2202 -0.2317  0.6314
 2924TIP3   OH232966   6.171   0.483  20.096  0.8984 -0.5583  0.0163
 2924TIP3    H132967   6.225   0.404  20.090  1.4945 -0.2086  0.5416
 2924TIP3    H232968   6.192   0.532  20.017  0.9515 -0.6642 -0.0363
 2925TIP3   OH232969   0.403   3.669  17.054 -0.0635  0.1396 -0.0408
 2925TIP3    H132970   0.429   3.577  17.065  0.2124  0.4778  2.9350
 2925TIP3    H232971   0.486   3.717  17.046  0.0331  0.4802  2.3846
 2926TIP3   OH232972   3.323   0.407  17.995  0.0991 -0.2111 -0.1152
 2926TIP3    H132973   3.374   0.422  17.916 -0.8979  1.1516 -0.5295
 2926TIP3    H232974   3.376   0.445  18.065  0.4059 -0.2964 -0.2976
 2927TIP3   OH232975   1.219   2.932  16.954  0.3079  0.9250 -0.2755
 2927TIP3    H132976   1.233   2.947  16.860  0.8543  2.3061  0.0021
 2927TIP3    H232977   1.283   2.989  16.997  1.0714 -0.7718  0.9364
 2928TIP3   OH232978   1.923   6.299  19.830  0.1741  0.7316 -0.0686
 2928TIP3    H132979   1.931   6.226  19.891  1.1347 -2.2145 -3.3731
 2928TIP3    H232980   2.003   6.349  19.842  0.0959  0.5257  1.4202
 2929TIP3   OH232981   1.049   0.652  19.251 -0.0235  0.2488 -1.2930
 2929TIP3    H132982   1.130   0.686  19.288 -0.0255  0.1608 -1.2077
 2929TIP3    H232983   1.034   0.705  19.172  0.0662  0.3276 -1.2571
 2930TIP3   OH232984   1.079   0.130  19.988  0.2653  0.1198 -0.2234
 2930TIP3    H132985   1.029   0.117  20.069 -0.7167 -0.0611 -0.8355
 2930TIP3    H232986   1.069   0.224  19.969  0.0584  0.0654 -0.3960
 2931TIP3   OH232987   5.967   2.118  16.769  0.2299  1.2194  0.2488
 2931TIP3    H132988   5.895   2.065  16.732 -0.2997  2.3024 -0.3291
 2931TIP3    H232989   5.931   2.206  16.774  1.6000  1.8318 -0.2491
 2932TIP3   OH232990   2.700   4.179  18.785 -0.3615  0.7568  0.2509
 2932TIP3    H132991   2.610   4.206  18.800 -0.3127  1.0311  0.0676
 2932TIP3    H232992   2.728   4.230  18.708 -0.5227 -0.4355 -0.6206
 2933TIP3   OH232993   2.032   6.414  19.410  0.2218 -0.5557  0.4952
 2933TIP3    H132994   2.031   6.492  19.466  1.3612 -0.1429 -0.0322
 2933TIP3    H232995   1.943   6.378  19.418 -1.0352  1.9456 -0.8524
 2934TIP3   OH232996   4.948   5.398  19.254  0.3460 -0.2077 -0.4214
 2934TIP3    H132997   4.974   5.310  19.226 -0.6184 -0.0395 -1.9466
 2934TIP3    H232998   4.853   5.393  19.262  0.1722  0.9354 -1.4986
 2935TIP3   OH232999   5.694   3.955  18.729  0.4802 -0.1832 -0.3471
 2935TIP3    H133000   5.639   4.007  18.789  2.2434  1.2388  0.1029
 2935TIP3    H233001   5.636   3.936  18.655 -0.4683  1.7565 -0.1634
 2936TIP3   OH233002   6.570   0.479  18.699 -0.0470 -0.2130 -1.0639
 2936TIP3    H133003   6.564   0.523  18.614  1.9101 -1.4593 -1.9149
 2936TIP3    H233004   6.635   0.529  18.748  0.0722 -0.4919 -0.9370
 2937TIP3   OH233005   5.912   6.081  20.221  0.2345 -0.1163 -0.1827
 2937TIP3    H133006   5.897   6.087  20.126 -1.2093 -0.1309  0.0353
 2937TIP3    H233007   5.968   6.003  20.230 -0.2145 -0.5521 -0.9719
 2938TIP3   OH233008   2.966   5.652  19.197  0.0159 -0.3393 -0.6382
 2938TIP3    H133009   2.945   5.622  19.109  2.0433 -0.4016 -1.1318
 2938TIP3    H233010   2.998   5.574  19.243 -0.0656 -0.0974 -0.1552
 2939TIP3   OH233011   0.870   6.319  19.455 -0.3260 -0.1606  0.4524
 2939TIP3    H133012   0.802   6.308  19.389  0.4506  2.7394 -0.9452
 2939TIP3    H233013   0.822   6.342  19.535 -1.1051 -1.2580  0.3318
 2940TIP3   OH233014   2.234   4.782  17.379 -0.1949  0.3329 -0.2501
 2940TIP3    H133015   2.258   4.757  17.469 -1.0355  1.7562  0.4187
 2940TIP3    H233016   2.290   4.729  17.323  0.9180 -0.0257  1.1391
 2941TIP3   OH233017   3.759   5.182  20.051  0.2662  0.1642  0.0001
 2941TIP3    H133018   3.827   5.152  19.990  0.0995 -1.2013  0.4554
 2941TIP3    H233019   3.677   5.150  20.013  0.0922 -0.0755  0.5757
 2942TIP3   OH233020   0.086   5.214  19.316 -0.3732 -0.5575 -0.3538
 2942TIP3    H133021   0.022   5.283  19.298  1.0774  0.7147 -0.8680
 2942TIP3    H233022   0.167   5.261  19.334  0.6980 -2.1503 -0.8394
 2943TIP3   OH233023   2.728   4.584  20.435  0.0211  0.1315  0.3469
 2943TIP3    H133024   2.673   4.507  20.447  0.2721  0.0333  0.9002
 2943TIP3    H233025   2.799   4.555  20.378  0.0238 -0.0020  0.4186
 2944TIP3   OH233026   3.898   3.120  19.451  0.4442 -1.0988  0.2126
 2944TIP3    H133027   3.861   3.060  19.386 -1.1099  0.2385 -0.2049
 2944TIP3    H233028   3.878   3.079  19.535  1.0341 -2.0503 -0.0928
 2945TIP3   OH233029   4.204   0.806  18.366  0.2688  0.1736  0.1548
 2945TIP3    H133030   4.281   0.834  18.316  0.1726  0.5527  0.2156
 2945TIP3    H233031   4.240   0.757  18.439  0.3730 -1.2412 -0.8052
 2946TIP3   OH233032   3.023   6.130  19.340 -0.4089  0.4520 -0.3347
 2946TIP3    H133033   3.000   6.048  19.296  0.9882  0.0012 -0.2764
 2946TIP3    H233034   2.962   6.194  19.304 -0.4802 -0.2746 -1.5869
 2947TIP3   OH233035   5.033   4.670  17.739 -0.2262  0.3176  0.2542
 2947TIP3    H133036   4.990   4.615  17.674 -0.9371 -0.8300  1.6480
 2947TIP3    H233037   5.121   4.684  17.704 -0.1317 -1.4598 -0.3133
 2948TIP3   OH233038   3.367   0.703  19.152 -0.5691  0.2954  0.2907
 2948TIP3    H133039   3.326   0.641  19.212 -0.2733 -0.2312 -0.0466
 2948TIP3    H233040   3.356   0.664  19.065  0.9213 -0.0295  0.2125
 2949TIP3   OH233041   1.641   3.066  18.473 -0.0102  0.0343 -0.0597
 2949TIP3    H133042   1.581   2.992  18.467  3.0780 -2.6124 -1.3649
 2949TIP3    H233043   1.640   3.105  18.386  1.4580 -1.2471 -0.7010
 2950TIP3   OH233044   5.908   6.657  17.746 -0.2917  0.3702 -0.3066
 2950TIP3    H133045   5.903   6.744  17.707 -2.4571 -0.3762 -1.9013
 2950TIP3    H233046   5.966   6.608  17.688  1.1434  0.7746  0.7415
 2951TIP3   OH233047   2.334   3.706  16.975 -0.0583  0.4053  0.6596
 2951TIP3    H133048   2.310   3.625  16.929  1.2863 -0.6864  1.7925
 2951TIP3    H233049   2.250   3.743  17.002 -0.7011 -0.7379  0.3101
 2952TIP3   OH233050   0.349   2.417  19.614  0.7764  0.4102  0.7152
 2952TIP3    H133051   0.385   2.338  19.573 -0.3200  0.5637 -0.6572
 2952TIP3    H233052   0.410   2.486  19.590 -0.5938  0.8041 -2.2049
 2953TIP3   OH233053   0.301   0.037  18.234  0.1093 -0.0949 -0.3999
 2953TIP3    H133054   0.344   0.118  18.208 -0.1007  0.7179  1.5982
 2953TIP3    H233055   0.308  -0.020  18.158  2.6511  0.8199 -0.9350
 2954TIP3   OH233056   6.330   1.985  19.628  0.1540  0.4058 -0.3210
 2954TIP3    H133057   6.265   1.991  19.698  0.7869 -1.2633  0.4651
 2954TIP3    H233058   6.310   1.903  19.584  0.7452  0.6638 -1.1011
 2955TIP3   OH233059   3.277   4.796  18.732 -0.4505 -0.3585 -0.7444
 2955TIP3    H133060   3.245   4.842  18.810 -1.7037 -0.9554 -0.8740
 2955TIP3    H233061   3.370   4.817  18.728 -0.2787 -0.5988  1.1075
 2956TIP3   OH233062   2.964   2.148  19.910 -0.5964  0.1817  0.0990
 2956TIP3    H133063   2.946   2.119  19.821 -0.3112 -0.7418  0.3333
 2956TIP3    H233064   3.058   2.168  19.910 -0.7777  1.1073 -0.0486
 2957TIP3   OH233065   2.440   5.521  20.215 -0.9691 -0.0755 -0.2845
 2957TIP3    H133066   2.529   5.484  20.209 -1.2891 -1.0359  0.5786
 2957TIP3    H233067   2.452   5.606  20.257 -0.3994  0.0371 -0.6675
 2958TIP3   OH233068   1.516   3.367  19.766  1.2263  0.3812  0.5786
 2958TIP3    H133069   1.483   3.294  19.714  0.9046 -0.9246  2.5090
 2958TIP3    H233070   1.606   3.342  19.789 -0.1489 -1.7837  4.9148
 2959TIP3   OH233071   6.365   2.404  18.851  0.2219  0.0314  0.1559
 2959TIP3    H133072   6.368   2.483  18.798  0.0159 -0.4063 -0.5173
 2959TIP3    H233073   6.351   2.436  18.940 -1.3260  0.6975 -0.2881
 2960TIP3   OH233074   4.378   6.477  19.209 -0.0292 -0.0920  0.2121
 2960TIP3    H133075   4.426   6.431  19.140 -0.5537  0.7437 -0.7513
 2960TIP3    H233076   4.362   6.410  19.276 -0.3220 -1.1915 -0.9052
 2961TIP3   OH233077   1.324   5.518  19.371 -0.8821  0.0211  0.1563
 2961TIP3    H133078   1.385   5.458  19.328 -1.1209  0.9185 -1.5140
 2961TIP3    H233079   1.366   5.539  19.455 -0.3763 -1.7439  0.3815
 2962TIP3   OH233080   4.379   4.016  17.351  0.1429 -0.0590  0.0987
 2962TIP3    H133081   4.322   4.082  17.313  0.5707  0.2590 -0.0020
 2962TIP3    H233082   4.406   3.961  17.277 -2.4879 -2.1656  0.5449
 2963TIP3   OH233083   0.941   2.684  19.564 -0.3518 -0.1257  0.2391
 2963TIP3    H133084   0.983   2.739  19.630  1.7178  0.1362 -1.1863
 2963TIP3    H233085   0.954   2.732  19.482 -2.0727 -0.8581 -0.5026
 2964TIP3   OH233086   5.555   4.094  17.055  0.3469 -0.1411 -0.1973
 2964TIP3    H133087   5.488   4.161  17.039  0.2255  0.4264  2.2586
 2964TIP3    H233088   5.508   4.021  17.093  0.7597 -0.8453 -1.0236
 2965TIP3   OH233089   3.453   1.098  18.770  0.2363 -0.4793 -0.3246
 2965TIP3    H133090   3.410   1.168  18.721  0.6592 -0.2555 -0.3847
 2965TIP3    H233091   3.395   1.079  18.843  1.7745  2.4580  1.8382
 2966TIP3   OH233092   2.888   2.988  18.492  0.3718  0.8675  0.1423
 2966TIP3    H133093   2.870   2.960  18.403 -0.4744  0.5307  0.4070
 2966TIP3    H233094   2.819   3.051  18.512 -0.2032  0.0034  0.9812
 2967TIP3   OH233095   3.016   4.078  17.042 -0.2436  0.4692 -0.3642
 2967TIP3    H133096   3.020   4.036  16.956  0.8355  1.1632 -0.6704
 2967TIP3    H233097   2.992   4.169  17.023 -0.7894  0.4368  0.1424
 2968TIP3   OH233098   0.269   1.523  18.974 -0.2570 -0.2188  0.2861
 2968TIP3    H133099   0.197   1.518  19.036 -1.0466 -1.0590 -0.6780
 2968TIP3    H233100   0.249   1.600  18.920  0.8623  1.0279  1.5425
 2969TIP3   OH233101   0.648   6.332  18.298  0.2079  0.2486  0.5002
 2969TIP3    H133102   0.742   6.313  18.294  0.2399  0.5450 -0.2037
 2969TIP3    H233103   0.607   6.261  18.250  0.2148  1.0825 -0.7846
 2970TIP3   OH233104   6.025   4.697  18.969 -0.3168 -0.4343 -0.3499
 2970TIP3    H133105   6.090   4.690  19.039 -1.2220 -0.1756  0.5450
 2970TIP3    H233106   6.041   4.620  18.914  1.5338  0.2667 -0.8736
 2971TIP3   OH233107   0.210   2.937  20.320  0.0061  0.4973 -0.4248
 2971TIP3    H133108   0.212   2.963  20.412  0.2849 -0.0406 -0.2758
 2971TIP3    H233109   0.149   2.863  20.318 -1.3430  1.5723 -0.9573
 2972TIP3   OH233110   4.817   1.074  19.371  0.4636  0.5846 -0.6519
 2972TIP3    H133111   4.798   0.990  19.328  0.9624 -1.0370  2.0262
 2972TIP3    H233112   4.759   1.075  19.447 -0.2241  3.1961 -1.1350
 2973TIP3   OH233113   5.195   6.337  18.905  0.3679  0.0721  0.3497
 2973TIP3    H133114   5.168   6.282  18.831 -0.2324  0.9557 -0.1073
 2973TIP3    H233115   5.152   6.298  18.981  0.2087 -0.2761  0.0847
 2974TIP3   OH233116   4.204   4.765  17.586  0.2642 -0.3516  0.0917
 2974TIP3    H133117   4.299   4.761  17.581  0.2166 -0.4974 -1.2633
 2974TIP3    H233118   4.174   4.733  17.501 -0.9944 -0.2060  0.4511
 2975TIP3   OH233119   0.821   2.351  17.035 -0.3184 -0.3375  0.3466
 2975TIP3    H133120   0.886   2.348  16.965  0.2948  2.7448  0.6245
 2975TIP3    H233121   0.870   2.330  17.114  0.3667  1.6109  0.5036
 2976TIP3   OH233122   0.065   2.404  17.340 -0.6067  0.2409 -0.0379
 2976TIP3    H133123   0.082   2.332  17.280  0.2973 -0.7016  1.2857
 2976TIP3    H233124   0.061   2.482  17.284  2.1143 -0.3278 -1.1714
 2977TIP3   OH233125   2.368   1.776  17.016 -0.4914 -0.1551  0.1768
 2977TIP3    H133126   2.445   1.790  16.960  1.5416 -3.6702  1.7647
 2977TIP3    H233127   2.301   1.744  16.956  0.9983 -1.9576 -0.6147
 2978TIP3   OH233128   0.166   4.327  16.870 -0.0794 -0.2245  0.0191
 2978TIP3    H133129   0.147   4.249  16.921  0.4968  0.0873  0.7252
 2978TIP3    H233130   0.108   4.394  16.906 -0.8787 -0.4112 -0.8640
 2979TIP3   OH233131   6.486   2.297  17.305 -0.1106  0.3967 -0.3294
 2979TIP3    H133132   6.536   2.354  17.363  0.7019 -1.0127  0.3975
 2979TIP3    H233133   6.398   2.336  17.302 -0.6917 -0.3147  3.1743
 2980TIP3   OH233134   3.627   6.715  18.314  0.1524  0.0724 -0.6224
 2980TIP3    H133135   3.539   6.751  18.322  0.0744 -0.2614  0.1401
 2980TIP3    H233136   3.624   6.632  18.363  0.9209  0.1296 -0.4587
 2981TIP3   OH233137   0.338   6.330  18.037  0.5868 -0.1107  0.0290
 2981TIP3    H133138   0.250   6.363  18.050  0.7239  0.6459 -0.8422
 2981TIP3    H233139   0.394   6.386  18.090  0.4738 -1.2094  1.3806
 2982TIP3   OH233140   4.142   2.831  19.410 -0.2278 -0.1867 -0.5344
 2982TIP3    H133141   4.195   2.880  19.347 -0.9453 -0.6210 -1.5070
 2982TIP3    H233142   4.152   2.879  19.492  0.7185  0.4060 -0.9712
 2983TIP3   OH233143   2.355   5.451  18.568  0.5969  0.1068 -0.2316
 2983TIP3    H133144   2.286   5.396  18.533  0.7444  1.7577 -3.4639
 2983TIP3    H233145   2.319   5.539  18.568  1.6992  0.6086  1.0334
 2984TIP3   OH233146   3.297   4.189  18.710 -0.0049  0.4157 -0.2319
 2984TIP3    H133147   3.224   4.244  18.680 -1.6209 -1.4228  0.1663
 2984TIP3    H233148   3.303   4.120  18.645  1.5040  0.5996 -0.3175
 2985TIP3   OH233149   1.080   1.337  18.059  0.3251 -0.2428 -0.1147
 2985TIP3    H133150   1.052   1.269  18.121  0.7661 -0.7448 -0.4562
 2985TIP3    H233151   1.134   1.290  17.996  1.1454  0.5480 -0.0088
 2986TIP3   OH233152   1.974   5.762  19.155 -0.4156  0.3531  0.0174
 2986TIP3    H133153   1.895   5.806  19.124 -0.7142 -1.0706 -1.3921
 2986TIP3    H233154   2.021   5.829  19.205 -1.0580  2.1091 -1.6086
 2987TIP3   OH233155   2.491   6.463  17.698  0.3772  0.5119  0.7438
 2987TIP3    H133156   2.485   6.426  17.786 -2.1077 -0.0537  0.3938
 2987TIP3    H233157   2.575   6.509  17.698  0.8727 -0.2321  3.0943
 2988TIP3   OH233158   4.952   2.601  18.552  0.0808  0.0276 -0.1018
 2988TIP3    H133159   5.009   2.524  18.552  1.5935  1.1041 -1.0279
 2988TIP3    H233160   4.949   2.629  18.460 -0.3895  1.0994  0.2206
 2989TIP3   OH233161   5.975   3.967  20.144  0.3070 -0.6499  0.2367
 2989TIP3    H133162   5.886   4.002  20.154 -0.7255 -1.1218 -4.6550
 2989TIP3    H233163   5.963   3.873  20.134  1.5356 -0.8700  0.6560
 2990TIP3   OH233164   1.606   4.055  16.764 -0.4418 -0.0837 -0.0722
 2990TIP3    H133165   1.670   3.984  16.752  0.5247  0.8107 -0.2956
 2990TIP3    H233166   1.650   4.117  16.822 -0.6434  1.1107 -1.1680
 2991TIP3   OH233167   6.585   2.087  18.348  0.1140 -0.2997 -0.0153
 2991TIP3    H133168   6.576   2.176  18.383  0.3062 -0.3985  0.2867
 2991TIP3    H233169   6.679   2.077  18.331 -0.0277 -0.0914 -0.9933
 2992TIP3   OH233170   5.946   1.634  16.704  0.0621 -0.2214 -0.1204
 2992TIP3    H133171   5.961   1.629  16.610 -2.0003 -0.8544 -0.4730
 2992TIP3    H233172   5.978   1.550  16.738  1.1709  0.1656 -0.1743
 2993TIP3   OH233173   6.463   0.302  16.942 -0.1430  0.1960  0.1007
 2993TIP3    H133174   6.451   0.275  16.851  0.3965 -0.7490  0.2910
 2993TIP3    H233175   6.514   0.231  16.981 -2.0836 -0.4193  1.6780
 2994TIP3   OH233176   5.347   1.214  18.298  0.1339  0.6549 -0.0721
 2994TIP3    H133177   5.441   1.232  18.287  0.6026  0.2220  2.4846
 2994TIP3    H233178   5.311   1.298  18.328  0.1621  0.3017  1.0124
 2995TIP3   OH233179   2.339   5.679  17.572 -0.1143 -0.1121  0.4378
 2995TIP3    H133180   2.388   5.599  17.556  0.7081  0.9403 -3.4314
 2995TIP3    H233181   2.259   5.669  17.519 -1.1199  0.7295  1.7334
 2996TIP3   OH233182   3.173   3.899  18.094  0.1010 -0.6306  0.2581
 2996TIP3    H133183   3.161   3.961  18.166 -0.5263  0.5617 -0.8292
 2996TIP3    H233184   3.107   3.831  18.109 -0.9623  0.3352  0.0938
 2997TIP3   OH233185   6.640   5.686  17.913  0.6004  0.3400 -0.3722
 2997TIP3    H133186   6.646   5.600  17.953  0.7744  0.5914  0.1607
 2997TIP3    H233187   6.717   5.733  17.946  0.0464  0.9793  0.0338
 2998TIP3   OH233188   0.993   5.043  19.506 -0.7655 -0.7713  0.4698
 2998TIP3    H133189   1.023   5.068  19.593 -1.5209 -0.9911  0.7973
 2998TIP3    H233190   1.029   5.111  19.448 -1.6500  0.3133  1.1646
 2999TIP3   OH233191   1.060   4.247  19.491  0.0496  0.6043 -0.0612
 2999TIP3    H133192   1.089   4.312  19.556  0.9076 -0.6903  0.8993
 2999TIP3    H233193   0.989   4.200  19.535  1.2844 -0.9368  0.3818
 3000TIP3   OH233194   6.551   6.669  18.110 -0.2056 -0.4166 -0.2267
 3000TIP3    H133195   6.514   6.582  18.096 -2.0458  0.3360 -0.3034
 3000TIP3    H233196   6.492   6.710  18.174  1.0579  0.5246  0.3779
 3001TIP3   OH233197   2.483   0.739  19.993 -0.3966 -0.0159 -1.0241
 3001TIP3    H133198   2.388   0.734  20.007 -0.3329 -0.2829 -0.6720
 3001TIP3    H233199   2.521   0.728  20.081 -0.0098 -0.8675 -1.2884
 3002TIP3   OH233200   5.063   0.289  20.306  0.4638 -0.3551 -0.8307
 3002TIP3    H133201   5.043   0.369  20.355  2.0746 -0.1327 -0.4791
 3002TIP3    H233202   5.000   0.225  20.339  0.1134  0.3687 -0.0439
 3003TIP3   OH233203   5.546   4.708  19.439 -0.1201 -0.1554 -0.8105
 3003TIP3    H133204   5.596   4.668  19.368  1.1412  0.0344 -0.0444
 3003TIP3    H233205   5.557   4.802  19.427 -0.6731 -0.0940 -0.8911
 3004TIP3   OH233206   1.605   2.026  18.880 -0.0415 -0.3097  0.0597
 3004TIP3    H133207   1.587   2.113  18.916  1.0184  0.4171 -1.0539
 3004TIP3    H233208   1.682   2.039  18.825 -0.5174 -1.7225 -1.0113
 3005TIP3   OH233209   0.556   1.369  17.241 -0.0904 -0.3295 -0.4070
 3005TIP3    H133210   0.519   1.308  17.177 -0.1061 -0.4326 -0.3001
 3005TIP3    H233211   0.481   1.421  17.269 -0.1046 -0.3597 -0.3885
 3006TIP3   OH233212   4.759   1.758  19.565 -0.2503  0.2510 -0.1418
 3006TIP3    H133213   4.773   1.669  19.597  0.4100  0.1336 -0.7284
 3006TIP3    H233214   4.666   1.762  19.544 -0.7061  0.3189  1.7210
 3007TIP3   OH233215   1.227   3.244  20.128  0.0543  0.1047  0.3085
 3007TIP3    H133216   1.144   3.222  20.085  0.7971 -0.2710 -0.9996
 3007TIP3    H233217   1.228   3.340  20.131 -0.9394  0.1085  1.4375
 3008TIP3   OH233218   5.533   5.359  17.964 -0.2027 -0.0719 -0.1619
 3008TIP3    H133219   5.443   5.337  17.941 -0.5370  0.2873  0.7858
 3008TIP3    H233220   5.568   5.280  18.005 -0.2464 -0.0446 -0.0736
 3009TIP3   OH233221   1.119   1.156  18.928  0.1261  0.2969 -0.2743
 3009TIP3    H133222   1.071   1.178  19.008 -2.1452  1.1491 -1.7782
 3009TIP3    H233223   1.061   1.095  18.882  0.8669  0.6783 -1.7636
 3010TIP3   OH233224   4.229   6.686  20.004 -0.3312  0.6042 -0.4492
 3010TIP3    H133225   4.158   6.629  20.035  0.0098  0.9255  0.9440
 3010TIP3    H233226   4.215   6.689  19.909 -1.0347 -0.8791 -0.4360
 3011TIP3   OH233227   5.873   3.459  19.588 -0.1872 -0.1592 -0.0861
 3011TIP3    H133228   5.940   3.526  19.599 -0.4683 -0.0950  1.4182
 3011TIP3    H233229   5.792   3.509  19.574 -0.2223 -0.2039 -0.0410
 3012TIP3   OH233230   2.960   5.447  17.707 -0.1021  0.0620 -0.4567
 3012TIP3    H133231   2.941   5.359  17.739 -0.0555  0.5649  1.0402
 3012TIP3    H233232   2.874   5.488  17.696 -0.0974  0.4159  0.6566
 3013TIP3   OH233233   4.051   0.677  17.061 -0.5410 -0.3286 -0.9383
 3013TIP3    H133234   4.108   0.673  17.138 -1.6009 -1.1780 -0.1713
 3013TIP3    H233235   4.085   0.609  17.003  0.5394  0.6116 -1.4440
 3014TIP3   OH233236   3.427   5.942  17.828  0.0954  0.2593  0.4251
 3014TIP3    H133237   3.373   6.013  17.792  1.1033  1.0200  0.3748
 3014TIP3    H233238   3.473   5.906  17.752 -0.2908 -0.3595  0.4761
 3015TIP3   OH233239   6.719   4.121  19.578  0.3324  0.0705  0.0175
 3015TIP3    H133240   6.746   4.196  19.631  0.1636 -0.1285  0.3897
 3015TIP3    H233241   6.634   4.095  19.614  0.5931 -0.5736  0.1809
 3016TIP3   OH233242   3.601   6.279  18.566 -0.3719  0.0816 -0.2256
 3016TIP3    H133243   3.527   6.286  18.506 -1.1057 -0.6828  0.5653
 3016TIP3    H233244   3.650   6.203  18.535 -0.4551  0.0071 -0.1757
 3017TIP3   OH233245   5.825   6.468  20.240  0.3104  0.0866 -0.3177
 3017TIP3    H133246   5.746   6.522  20.246  0.9271  0.9022  1.1711
 3017TIP3    H233247   5.810   6.396  20.301 -0.0453 -0.8394 -1.4619
 3018TIP3   OH233248   3.954   2.372  19.721 -0.2333  0.8670  0.3416
 3018TIP3    H133249   4.035   2.324  19.703 -1.5908 -3.1766  3.6146
 3018TIP3    H233250   3.901   2.359  19.642  0.9466  0.4877 -0.4196
 3019TIP3   OH233251   2.078   3.300  19.676 -0.2809 -0.4852 -0.1967
 3019TIP3    H133252   2.166   3.297  19.713 -1.0060  1.3491  1.9337
 3019TIP3    H233253   2.088   3.351  19.595  0.5870 -0.1551  0.1101
 3020TIP3   OH233254   0.794   3.246  18.041  0.6876  0.3501 -0.2856
 3020TIP3    H133255   0.818   3.164  18.083 -0.9016 -0.1871 -0.3408
 3020TIP3    H233256   0.714   3.226  17.993 -2.2167  2.7753  2.9998
 3021TIP3   OH233257   5.688   5.214  19.074  0.0253 -0.3917  0.0902
 3021TIP3    H133258   5.730   5.189  19.156 -1.3414  0.5167  1.0973
 3021TIP3    H233259   5.667   5.131  19.031  1.4010 -0.8656  0.2971
 3022TIP3   OH233260   5.817   6.061  19.941 -0.7283  0.1173  0.4838
 3022TIP3    H133261   5.881   5.997  19.911  0.8376  0.3653  2.9857
 3022TIP3    H233262   5.776   6.094  19.861  1.2781 -1.0694 -1.1298
 3023TIP3   OH233263   0.772   0.204  19.011  0.5341  0.0693 -0.1742
 3023TIP3    H133264   0.738   0.256  19.084  2.1183 -0.3283  0.8996
 3023TIP3    H233265   0.731   0.118  19.021  1.1457 -0.1433  0.5856
 3024TIP3   OH233266   3.982   5.155  19.912 -0.1909  0.3208 -0.7478
 3024TIP3    H133267   4.061   5.154  19.966 -0.4314  2.9879 -0.2027
 3024TIP3    H233268   4.008   5.202  19.832 -1.4659  2.3363 -0.0368
 3025TIP3   OH233269   4.428   1.314  19.008 -0.0188 -0.3398 -0.3903
 3025TIP3    H133270   4.459   1.237  18.959  1.7841  0.2176 -0.1974
 3025TIP3    H233271   4.364   1.355  18.950  0.5664 -0.8275 -1.4190
 3026TIP3   OH233272   6.400   3.232  20.187 -0.3068 -0.7162 -0.3426
 3026TIP3    H133273   6.366   3.249  20.099 -0.4204 -0.0737 -0.1808
 3026TIP3    H233274   6.443   3.147  20.180 -0.2716 -0.6481 -1.0337
 3027TIP3   OH233275   3.031   5.038  18.202 -0.0848 -0.1507  0.4737
 3027TIP3    H133276   3.000   4.947  18.211 -0.1335 -0.3581 -1.3954
 3027TIP3    H233277   3.076   5.056  18.285 -1.0921 -1.4656  1.3616
 3028TIP3   OH233278   5.709   4.873  18.520 -0.0376 -0.0122  0.6718
 3028TIP3    H133279   5.655   4.931  18.574  0.2941  1.0401 -0.0983
 3028TIP3    H233280   5.789   4.861  18.571  0.8189  2.0156 -0.0778
 3029TIP3   OH233281   2.786   5.639  20.160 -0.2774  0.1224 -0.1326
 3029TIP3    H133282   2.809   5.657  20.068 -0.7032  1.1245 -0.0493
 3029TIP3    H233283   2.861   5.589  20.193  0.2669  0.4753 -0.7958
 3030TIP3   OH233284   5.273   1.388  20.262 -0.4076 -0.3792  0.2968
 3030TIP3    H133285   5.224   1.468  20.241 -1.6196 -1.0999  0.2504
 3030TIP3    H233286   5.208   1.318  20.253  0.7242 -1.4137 -0.0471
 3031TIP3   OH233287   1.233   0.028  19.326 -0.3484  0.2523  0.0546
 3031TIP3    H133288   1.306  -0.029  19.300 -0.6071 -0.2801  0.4809
 3031TIP3    H233289   1.236   0.101  19.264  1.7809  1.2850  1.2476
 3032TIP3   OH233290   6.201   4.879  18.233  0.5266 -0.1543 -0.4470
 3032TIP3    H133291   6.120   4.847  18.272  0.7722 -0.5657 -0.2722
 3032TIP3    H233292   6.229   4.951  18.291 -0.3395  0.7966 -1.1755
 3033TIP3   OH233293   6.059   1.026  18.769  0.0863  0.7470 -0.5461
 3033TIP3    H133294   6.063   1.005  18.863  0.3745  0.3727 -0.6390
 3033TIP3    H233295   6.049   0.941  18.726 -1.6115  1.0381 -0.7711
 3034TIP3   OH233296   0.660   6.633  17.741 -0.8599 -0.4265  0.0591
 3034TIP3    H133297   0.670   6.600  17.830  2.0781 -0.2091 -0.1000
 3034TIP3    H233298   0.661   6.729  17.751  2.5621 -0.3015 -0.3105
 3035TIP3   OH233299   4.466   1.739  17.777  0.0138  0.2849  0.2058
 3035TIP3    H133300   4.478   1.798  17.703 -2.3603 -0.6111 -1.0077
 3035TIP3    H233301   4.494   1.654  17.745  0.7209  0.2111  0.9837
 3036TIP3   OH233302   0.330   2.073  16.193 -1.0203  0.6912 -0.0568
 3036TIP3    H133303   0.268   2.082  16.120 -0.0149 -0.1142 -1.0453
 3036TIP3    H233304   0.416   2.088  16.153 -0.4433  0.1969  0.9620
 3037TIP3   OH233305   0.684   3.755  17.792 -0.4890 -0.2326  0.1576
 3037TIP3    H133306   0.657   3.776  17.881 -0.4291 -2.3524  0.7312
 3037TIP3    H233307   0.768   3.710  17.803 -0.8144 -1.1292 -0.8944
 3038TIP3   OH233308   1.015   0.925  18.147  0.0995  0.9467  0.3529
 3038TIP3    H133309   1.096   0.977  18.144  0.8354 -0.0744  1.5324
 3038TIP3    H233310   1.020   0.869  18.070 -0.2702  2.0009 -0.4467
 3039TIP3   OH233311   4.337   1.182  19.421 -0.5074  0.1197 -0.4586
 3039TIP3    H133312   4.308   1.106  19.370  0.8586 -0.6833 -0.0934
 3039TIP3    H233313   4.338   1.254  19.359 -1.1566 -0.3115 -0.9847
 3040TIP3   OH233314   2.520   1.073  19.352  0.0239  0.3620 -1.0125
 3040TIP3    H133315   2.505   1.019  19.275  1.2744  1.3778 -2.0095
 3040TIP3    H233316   2.533   1.010  19.423 -2.3302 -0.5848 -1.3283
 3041TIP3   OH233317   0.011   2.423  16.944 -0.0846 -0.1145 -0.6057
 3041TIP3    H133318  -0.032   2.357  16.998 -1.4347  0.6335 -0.7331
 3041TIP3    H233319   0.001   2.391  16.854  0.6485 -0.4937 -0.5664
 3042TIP3   OH233320   3.961   4.831  16.851 -1.1319  0.1661  0.2460
 3042TIP3    H133321   3.982   4.815  16.942 -0.0857 -0.3960 -0.0859
 3042TIP3    H233322   4.042   4.865  16.813 -1.4712  0.1105 -0.5438
 3043TIP3   OH233323   6.478   6.296  17.420  0.2119  0.4439  0.1743
 3043TIP3    H133324   6.503   6.206  17.398  1.9452  0.9898 -0.2121
 3043TIP3    H233325   6.522   6.313  17.504 -1.1021  0.5463  0.8655
 3044TIP3   OH233326   5.271   1.120  19.318  0.0580 -0.0517  0.2349
 3044TIP3    H133327   5.175   1.124  19.315  0.1292  1.9606 -0.2407
 3044TIP3    H233328   5.290   1.096  19.409 -0.8745 -0.6058  0.3041
 3045TIP3   OH233329   4.702   3.026  18.957  0.2365  0.0104  0.4523
 3045TIP3    H133330   4.739   2.969  18.890  1.8015  1.0063  0.4067
 3045TIP3    H233331   4.611   3.038  18.930  0.9201  0.7395 -1.8084
 3046TIP3   OH233332   1.475   2.713  16.348  0.4577 -0.0396  0.0765
 3046TIP3    H133333   1.458   2.805  16.327 -1.0336 -0.4614 -0.7661
 3046TIP3    H233334   1.548   2.688  16.292  0.6637  0.5546  0.0813
 3047TIP3   OH233335   4.220   3.402  19.584 -0.0313 -0.1429 -0.2540
 3047TIP3    H133336   4.209   3.320  19.536  0.1476 -0.5632  0.4090
 3047TIP3    H233337   4.208   3.378  19.675  2.2475  0.1147  0.1826
 3048TIP3   OH233338   0.732   5.682  17.322 -0.3069 -0.3037 -0.4135
 3048TIP3    H133339   0.798   5.662  17.388  0.8902 -0.6264 -1.6706
 3048TIP3    H233340   0.761   5.635  17.244 -0.0400  2.4188 -2.0739
 3049TIP3   OH233341   1.739   5.863  19.021 -0.5774  0.6565  0.5537
 3049TIP3    H133342   1.757   5.794  18.957  0.9519  0.1897  1.4241
 3049TIP3    H233343   1.654   5.898  18.996 -0.3354  0.0266 -1.3119
 3050TIP3   OH233344   4.986   0.546  19.964 -0.4076 -0.5194  0.5017
 3050TIP3    H133345   5.078   0.535  19.942 -0.6429 -2.7877  0.4273
 3050TIP3    H233346   4.945   0.464  19.938 -2.5058  0.5076  0.3504
 3051TIP3   OH233347   5.908   5.826  19.515  0.0644 -0.1323  0.4083
 3051TIP3    H133348   5.863   5.779  19.445 -1.9050 -0.1147  1.6020
 3051TIP3    H233349   5.873   5.789  19.596  1.3202  0.7530  1.4133
 3052TIP3   OH233350   5.528   6.572  18.489  0.0574 -0.0358 -0.0600
 3052TIP3    H133351   5.583   6.650  18.493 -0.4940  0.3535  0.1721
 3052TIP3    H233352   5.564   6.521  18.417  2.3971 -1.1230  1.7491
 3053TIP3   OH233353   5.827   0.411  19.624 -0.1211 -0.5197  0.0265
 3053TIP3    H133354   5.845   0.338  19.565  0.0083  0.3286 -1.0242
 3053TIP3    H233355   5.913   0.440  19.654 -0.1432 -0.5552  0.1218
 3054TIP3   OH233356   2.471   0.963  19.698 -0.1995  0.4061  0.1710
 3054TIP3    H133357   2.500   0.920  19.778 -0.1437  0.1479  0.0152
 3054TIP3    H233358   2.552   0.984  19.651 -0.2518 -1.0264 -0.6304
 3055TIP3   OH233359   2.664   2.610  19.606 -0.6968  0.2204  0.1317
 3055TIP3    H133360   2.753   2.642  19.620 -1.3300  2.3284 -0.2864
 3055TIP3    H233361   2.634   2.657  19.528 -2.4353  0.1605  0.7229
 3056TIP3   OH233362   4.564   5.375  17.571 -0.4913  0.1102  0.0598
 3056TIP3    H133363   4.535   5.430  17.644 -1.7505  1.8731 -1.6383
 3056TIP3    H233364   4.566   5.435  17.496  0.7189 -1.6144 -1.3776
 3057TIP3   OH233365   5.879   1.169  18.214 -0.1861  0.0354 -0.0573
 3057TIP3    H133366   5.835   1.218  18.144 -0.4342  0.4096  0.3598
 3057TIP3    H233367   5.854   1.078  18.198 -1.7290  0.3111  0.5929
 3058TIP3   OH233368   5.080   1.896  20.055 -0.0574  0.0711  0.4897
 3058TIP3    H133369   5.118   1.896  19.968  1.5723 -1.4554  1.1290
 3058TIP3    H233370   4.999   1.845  20.046 -0.2554  0.4953 -0.2294
 3059TIP3   OH233371   2.632   4.582  19.404  0.2695  0.7551 -0.0474
 3059TIP3    H133372   2.691   4.605  19.476  0.3531  1.3623 -0.3032
 3059TIP3    H233373   2.684   4.594  19.325  0.3403 -0.4245 -0.2011
 3060TIP3   OH233374   4.314   0.959  19.009  0.2829 -0.4921 -0.4589
 3060TIP3    H133375   4.363   0.952  19.091 -0.1674 -1.6277 -0.2647
 3060TIP3    H233376   4.226   0.928  19.031  0.4714 -1.9608 -1.6198
 3061TIP3   OH233377   3.417   2.802  19.629 -0.2956  0.5603  0.0830
 3061TIP3    H133378   3.345   2.810  19.692 -0.6271  2.7528 -0.5030
 3061TIP3    H233379   3.475   2.875  19.649  2.3570 -1.6514  1.1377
 3062TIP3   OH233380   6.677   3.121  19.766  0.0846  0.0516  0.4697
 3062TIP3    H133381   6.650   3.210  19.786 -0.5314 -0.6408  3.0927
 3062TIP3    H233382   6.632   3.100  19.684  0.9857  2.4059 -0.7127
 3063TIP3   OH233383   3.907   0.652  19.062 -0.0620  0.0767  0.2717
 3063TIP3    H133384   3.817   0.638  19.030 -0.0472  0.1917  0.1787
 3063TIP3    H233385   3.962   0.630  18.986 -0.0545  1.0876 -0.0278
 3064TIP3   OH233386   4.952   5.766  18.682 -0.3086  0.5189 -0.2458
 3064TIP3    H133387   5.035   5.798  18.647  0.9342 -2.3952 -0.2477
 3064TIP3    H233388   4.885   5.806  18.627  1.2480  0.9419 -1.9156
 3065TIP3   OH233389   3.171   1.015  17.732  0.3236  0.3764  0.1553
 3065TIP3    H133390   3.232   1.064  17.676  0.7022 -0.1864  0.0710
 3065TIP3    H233391   3.186   0.924  17.709 -1.2434  0.2693 -0.5809
 3066TIP3   OH233392   0.805   6.498  16.889  0.0370 -0.0452 -0.2673
 3066TIP3    H133393   0.840   6.415  16.857  1.0437  0.0429  0.5598
 3066TIP3    H233394   0.821   6.497  16.983 -0.9813  0.5990 -0.0609
 3067TIP3   OH233395   3.118   1.092  18.784  0.1918 -0.2961 -0.2713
 3067TIP3    H133396   3.142   1.001  18.801 -0.7297 -0.7927 -1.4874
 3067TIP3    H233397   3.026   1.088  18.760  0.0521  1.0127 -0.0232
 3068TIP3   OH233398   6.251   6.056  17.392 -0.1115 -0.4247 -0.3103
 3068TIP3    H133399   6.155   6.059  17.396 -0.0579 -0.0995  0.9219
 3068TIP3    H233400   6.270   5.971  17.351 -0.9208 -0.3377 -0.8956
 3069TIP3   OH233401   0.502   1.727  17.860  0.7087  0.1444 -0.1493
 3069TIP3    H133402   0.501   1.821  17.876 -0.1811  0.0410  0.4337
 3069TIP3    H233403   0.507   1.719  17.764  2.2262  0.7643 -0.1474
 3070TIP3   OH233404   2.480   3.231  16.965 -0.1668  0.3088  0.0308
 3070TIP3    H133405   2.467   3.170  17.038  0.0487  0.6189  0.3294
 3070TIP3    H233406   2.575   3.230  16.951  0.0112  1.6108  0.9420
 3071TIP3   OH233407   1.478   2.237  19.173 -0.5208 -0.2007 -0.5641
 3071TIP3    H133408   1.407   2.174  19.188 -0.1271 -1.1996 -2.5708
 3071TIP3    H233409   1.455   2.279  19.091 -0.4939  1.9573  0.4707
 3072TIP3   OH233410   1.194   3.379  19.813  0.2203  0.0766  0.3314
 3072TIP3    H133411   1.285   3.398  19.792  0.2026  0.8035  0.8506
 3072TIP3    H233412   1.173   3.440  19.884 -0.7775  0.1602 -0.0230
 3073TIP3   OH233413   2.050   4.737  19.616 -0.3736 -0.6364 -0.0105
 3073TIP3    H133414   2.116   4.716  19.550 -0.2058  1.0232 -0.3904
 3073TIP3    H233415   2.002   4.812  19.581  0.0886  0.6639  1.9707
 3074TIP3   OH233416   1.310   1.553  17.650  0.0170 -0.2594 -0.3946
 3074TIP3    H133417   1.237   1.608  17.676  0.8501  0.8200 -0.2551
 3074TIP3    H233418   1.354   1.602  17.580  1.0661 -0.5071  0.0586
 3075TIP3   OH233419   4.283   2.021  17.365  0.7405 -0.0973  0.1982
 3075TIP3    H133420   4.341   1.985  17.298 -0.8780 -0.3038 -1.1701
 3075TIP3    H233421   4.203   1.970  17.356  0.3862  0.0591  2.1502
 3076TIP3   OH233422   4.245   3.925  18.618  0.1124  0.1099 -0.1606
 3076TIP3    H133423   4.254   3.886  18.705  2.1383 -0.1252 -0.4273
 3076TIP3    H233424   4.303   4.001  18.619 -0.2937  0.4523 -1.1230
 3077TIP3   OH233425   5.495   2.165  18.985  0.0413  0.5787  0.7040
 3077TIP3    H133426   5.502   2.076  19.021 -1.2303 -0.7539 -2.0730
 3077TIP3    H233427   5.582   2.182  18.947 -0.5469 -0.7915 -1.4025
 3078TIP3   OH233428   5.161   0.436  19.217  0.3264  0.3664 -0.0000
 3078TIP3    H133429   5.124   0.371  19.278  0.2081  1.6101  1.3057
 3078TIP3    H233430   5.104   0.432  19.141 -0.0773 -0.5867  0.3271
 3079TIP3   OH233431   2.266   6.525  18.555 -0.5088  0.4516 -0.0762
 3079TIP3    H133432   2.201   6.586  18.521 -2.1622 -1.2718 -0.1983
 3079TIP3    H233433   2.330   6.517  18.485 -2.1243 -0.5308 -1.5458
 3080TIP3   OH233434   4.284   2.439  19.058  0.6276 -0.2222  0.0750
 3080TIP3    H133435   4.307   2.485  18.976 -0.9856 -1.0985 -0.9251
 3080TIP3    H233436   4.298   2.504  19.126 -1.3366  1.7400 -1.2654
 3081TIP3   OH233437   4.709   2.735  18.443  0.3073  0.4060  0.2330
 3081TIP3    H133438   4.663   2.653  18.426 -0.5498  0.4502  2.0338
 3081TIP3    H233439   4.768   2.715  18.516  1.0911  1.0706 -0.1961
 3082TIP3   OH233440   2.451   3.600  18.101  0.1770 -0.2375  0.6382
 3082TIP3    H133441   2.527   3.544  18.088 -0.3613 -0.8302 -0.0283
 3082TIP3    H233442   2.378   3.539  18.115 -0.7381  0.2015 -1.8012
 3083TIP3   OH233443   4.526   5.501  17.172 -0.3797 -0.9462 -0.2807
 3083TIP3    H133444   4.583   5.457  17.109 -1.8969 -1.1253 -1.5993
 3083TIP3    H233445   4.439   5.463  17.156 -1.0007 -0.2330  1.2107
 3084TIP3   OH233446   3.395   2.868  19.286  0.6683 -0.0600 -0.0314
 3084TIP3    H133447   3.328   2.800  19.287  1.3813 -0.7948 -0.3042
 3084TIP3    H233448   3.393   2.906  19.374  3.0866 -3.3449  1.7051
 3085TIP3   OH233449   6.567   5.087  18.565 -0.0973  0.2451  0.0182
 3085TIP3    H133450   6.475   5.111  18.570 -0.3527  0.0183 -2.3179
 3085TIP3    H233451   6.584   5.036  18.644 -1.9572  0.3143  0.4980
 3086TIP3   OH233452   3.629   5.521  19.009 -0.7076  0.0495 -0.3010
 3086TIP3    H133453   3.704   5.549  18.956  0.2265 -0.5829  0.6687
 3086TIP3    H233454   3.588   5.603  19.037  0.5183  0.4483  0.4103
 3087TIP3   OH233455   5.421   2.497  19.149 -0.0626 -0.0555  0.4347
 3087TIP3    H133456   5.351   2.543  19.197  0.7203  2.2127 -0.4881
 3087TIP3    H233457   5.472   2.454  19.218 -1.5168 -0.6141  1.2317
 3088TIP3   OH233458   2.039   3.477  17.928 -0.6205 -0.0428 -0.0503
 3088TIP3    H133459   1.982   3.553  17.943 -0.2224 -0.1025  1.9381
 3088TIP3    H233460   2.072   3.490  17.839 -2.3805  0.8771 -0.6216
 3089TIP3   OH233461   1.420   1.722  18.672 -0.2075  0.2429  0.2873
 3089TIP3    H133462   1.428   1.812  18.643 -0.2105  0.2712  0.3747
 3089TIP3    H233463   1.393   1.674  18.593  0.0665  0.2720  0.1716
 3090TIP3   OH233464   4.956   3.075  16.276 -0.3849  0.2195  0.2686
 3090TIP3    H133465   4.949   3.005  16.212  3.9641 -1.2970  1.1225
 3090TIP3    H233466   5.011   3.141  16.234 -2.6623  2.3033  0.2910
 3091TIP3   OH233467   0.257   2.812  18.185 -0.3172  0.4451 -0.6044
 3091TIP3    H133468   0.274   2.837  18.094 -0.1932 -0.3776 -0.8117
 3091TIP3    H233469   0.200   2.882  18.218  0.7292  1.4609 -0.9042
 3092TIP3   OH233470   3.453   1.286  19.135  0.1785 -0.4529  0.4475
 3092TIP3    H133471   3.539   1.314  19.103  0.1134 -0.4209  0.3041
 3092TIP3    H233472   3.433   1.349  19.205 -0.1752  0.1390 -0.1837
 3093TIP3   OH233473   2.983   5.140  19.752 -0.6242  0.0521 -0.1007
 3093TIP3    H133474   2.987   5.085  19.674  0.0468 -0.3686  0.2317
 3093TIP3    H233475   2.955   5.226  19.719 -0.2533 -0.0971 -0.8141
 3094TIP3   OH233476   1.189   1.826  20.004 -0.5314 -0.2828 -0.0079
 3094TIP3    H133477   1.225   1.816  20.092  0.5234 -0.2389 -0.4205
 3094TIP3    H233478   1.263   1.858  19.952 -1.3389  0.4092 -0.7515
 3095TIP3   OH233479   5.898   2.333  17.808 -0.3430 -0.2931 -0.3371
 3095TIP3    H133480   5.824   2.280  17.780 -0.3703 -0.2497 -0.3473
 3095TIP3    H233481   5.888   2.342  17.903 -1.8783  1.9782 -0.6212
 3096TIP3   OH233482   5.770   2.231  19.501 -0.2834  0.4858 -0.2088
 3096TIP3    H133483   5.729   2.303  19.548 -0.0112  0.6103 -0.1561
 3096TIP3    H233484   5.863   2.237  19.524 -0.1262  0.6081 -0.8285
 3097TIP3   OH233485   5.498   0.728  19.214  0.5137  0.2353  1.3414
 3097TIP3    H133486   5.446   0.719  19.294  0.1161  0.7605  1.1519
 3097TIP3    H233487   5.587   0.742  19.245  0.9405 -2.5568  1.6736
 3098TIP3   OH233488   5.436   4.858  18.846  1.0341  0.1544  0.7514
 3098TIP3    H133489   5.392   4.943  18.838  0.0279 -0.4887 -1.3535
 3098TIP3    H233490   5.522   4.879  18.882  0.4849  1.9555  1.1195
 3099TIP3   OH233491   0.235   1.036  17.648  0.3385 -0.1697 -0.0019
 3099TIP3    H133492   0.208   0.946  17.669  0.7088  0.1065  1.8623
 3099TIP3    H233493   0.214   1.086  17.727 -0.5014  1.5518 -1.2487
 3100TIP3   OH233494   6.159   2.275  18.008 -0.0193 -0.7157  0.2433
 3100TIP3    H133495   6.079   2.284  18.059  0.1049 -0.3999  0.3908
 3100TIP3    H233496   6.222   2.238  18.070  0.4108  0.5815  0.6337
 3101TIP3   OH233497   4.931   5.238  18.904 -0.8078 -0.3338 -0.0962
 3101TIP3    H133498   5.001   5.281  18.952 -1.0748  0.0728 -0.0615
 3101TIP3    H233499   4.882   5.310  18.863 -0.7591 -0.6569 -0.7361
 3102TIP3   OH233500   5.414   3.281  17.514  0.0759  0.1376 -0.2331
 3102TIP3    H133501   5.411   3.342  17.588  1.2062 -2.6537  2.2877
 3102TIP3    H233502   5.343   3.219  17.531  1.0250 -1.1750 -0.8917
 3103TIP3   OH233503   6.235   6.200  19.867 -0.0439 -0.8944 -0.1270
 3103TIP3    H133504   6.150   6.243  19.865  1.4171  2.2492 -0.1379
 3103TIP3    H233505   6.241   6.153  19.784 -0.9182  0.6635 -1.1112
 3104TIP3   OH233506   5.851   1.524  19.500  0.3998 -0.0747  0.0154
 3104TIP3    H133507   5.846   1.494  19.409  0.7276 -1.2016  0.3534
 3104TIP3    H233508   5.765   1.506  19.537  0.0023  1.1390 -0.2798
 3105TIP3   OH233509   0.360   3.818  19.353 -0.2986 -0.4619  0.0976
 3105TIP3    H133510   0.453   3.841  19.358  0.2761 -2.2751 -1.4006
 3105TIP3    H233511   0.330   3.855  19.270 -1.4146  1.5625  1.3161
 3106TIP3   OH233512   5.619   3.178  19.979  0.3310  0.6254 -0.1556
 3106TIP3    H133513   5.564   3.196  19.903 -1.5386  1.5635  1.3250
 3106TIP3    H233514   5.661   3.261  19.999 -0.1240  0.7056  0.5144
 3107TIP3   OH233515   5.219   4.893  19.954 -0.5779 -0.3267 -0.7227
 3107TIP3    H133516   5.296   4.835  19.954 -0.1315  0.2008 -2.2466
 3107TIP3    H233517   5.193   4.897  19.862 -1.8123  0.3275 -0.3642
 3108TIP3   OH233518   0.145   5.099  16.868  0.3061  0.3757 -0.7973
 3108TIP3    H133519   0.208   5.148  16.815  0.5514  1.6906  0.6240
 3108TIP3    H233520   0.140   5.148  16.951 -0.4837 -1.2646  0.1858
 3109TIP3   OH233521   2.574   6.322  19.568  0.4689 -0.3763  0.7865
 3109TIP3    H133522   2.562   6.384  19.640  0.3499  0.7279 -0.1578
 3109TIP3    H233523   2.515   6.352  19.500  2.0177 -0.1997 -0.5335
 3110TIP3   OH233524   5.390   0.165  18.651 -0.0258  0.4168 -0.4071
 3110TIP3    H133525   5.345   0.093  18.695  0.7322  0.0964 -0.1385
 3110TIP3    H233526   5.392   0.141  18.559  0.8800 -0.2696 -0.2185
 3111TIP3   OH233527   6.152   0.826  19.688 -0.3121 -0.2426 -0.4493
 3111TIP3    H133528   6.228   0.870  19.724 -1.4122  2.0226 -0.7281
 3111TIP3    H233529   6.078   0.883  19.711 -1.6563 -1.2688 -1.9912
 3112TIP3   OH233530   2.874   1.728  18.301  0.0123 -0.0949  0.0992
 3112TIP3    H133531   2.811   1.791  18.267  0.2698  0.7402  1.1363
 3112TIP3    H233532   2.824   1.677  18.365  0.6501  1.4344  1.9121
 3113TIP3   OH233533   3.250   0.529  17.659 -0.4960  0.1135  0.1772
 3113TIP3    H133534   3.262   0.564  17.570  0.1250 -0.4876  0.0183
 3113TIP3    H233535   3.224   0.438  17.645 -0.7037  0.1068  0.6104
 3114TIP3   OH233536   6.528   4.107  17.927 -0.0611 -0.0064 -0.8571
 3114TIP3    H133537   6.567   4.192  17.947  1.6152 -1.0078  0.3410
 3114TIP3    H233538   6.452   4.101  17.985 -0.1720  0.6455 -0.9255
 3115TIP3   OH233539   3.984   2.565  19.028  0.3765 -0.3771  0.4186
 3115TIP3    H133540   4.056   2.530  19.080  0.1916 -0.7534  0.4251
 3115TIP3    H233541   3.907   2.518  19.059  0.2717 -0.6458 -0.2357
 3116TIP3   OH233542   3.207   0.748  18.696  0.0499  0.0647  0.5131
 3116TIP3    H133543   3.263   0.814  18.655 -0.8662 -0.8552 -2.4201
 3116TIP3    H233544   3.132   0.739  18.637 -2.0324 -0.5233  3.0518
 3117TIP3   OH233545   4.761   2.808  17.967 -0.0927 -0.4262 -0.6268
 3117TIP3    H133546   4.855   2.826  17.961 -0.2006  0.9005  1.0954
 3117TIP3    H233547   4.751   2.722  17.927  1.8813 -0.6885 -0.6498
 3118TIP3   OH233548   3.806   5.263  18.417 -0.1583  0.3987 -0.1588
 3118TIP3    H133549   3.864   5.192  18.389 -1.3729 -0.7421  0.1650
 3118TIP3    H233550   3.836   5.284  18.505 -1.8053 -1.9836  1.0704
 3119TIP3   OH233551   4.453   1.315  18.290 -0.5303 -0.1522  0.4499
 3119TIP3    H133552   4.493   1.400  18.272  1.0313 -1.2850 -2.0018
 3119TIP3    H233553   4.402   1.295  18.212 -0.6866 -1.5622  0.8771
 3120TIP3   OH233554   1.466   5.270  17.328  0.5556  0.1691 -0.3843
 3120TIP3    H133555   1.557   5.284  17.353  0.2135  1.6163  0.1150
 3120TIP3    H233556   1.415   5.316  17.394 -0.4275  2.6857 -2.7238
 3121TIP3   OH233557   4.476   3.678  17.312 -0.1265  0.2878 -0.1177
 3121TIP3    H133558   4.482   3.771  17.289  2.6541 -0.2825 -2.2640
 3121TIP3    H233559   4.411   3.643  17.252 -3.9757  1.2527  3.0276
 3122TIP3   OH233560   3.089   5.715  18.905  0.5534  0.6283  0.1805
 3122TIP3    H133561   3.155   5.777  18.875  0.9141  1.4530  2.4542
 3122TIP3    H233562   3.131   5.629  18.895  0.3802  0.7655 -2.1618
 3123TIP3   OH233563   0.073   2.796  17.446 -0.3580 -0.5761  0.3832
 3123TIP3    H133564   0.023   2.746  17.381  0.1206 -0.6157  0.0359
 3123TIP3    H233565   0.079   2.884  17.408 -2.9861  0.3802  1.9352
 3124TIP3   OH233566   4.348   4.791  18.257 -0.2514 -0.3576 -0.3358
 3124TIP3    H133567   4.400   4.749  18.189  0.8908  0.4908 -0.0226
 3124TIP3    H233568   4.368   4.742  18.337 -2.8398 -2.3924 -0.8297
 3125TIP3   OH233569   6.016   3.533  18.665  0.0055 -0.2217  0.3364
 3125TIP3    H133570   6.053   3.457  18.711  1.4802 -0.2022 -0.7489
 3125TIP3    H233571   6.092   3.578  18.629 -0.7029  2.4647  1.9118
 3126TIP3   OH233572   1.113   5.127  19.739  0.3264 -0.5238 -0.2581
 3126TIP3    H133573   1.205   5.138  19.762  1.0245 -2.0060 -2.0763
 3126TIP3    H233574   1.069   5.202  19.780  2.4022  0.5428  0.1711
 3127TIP3   OH233575   3.710   5.783  19.336  0.1493  0.9440 -0.0377
 3127TIP3    H133576   3.646   5.795  19.406 -1.5753 -1.3492 -1.0995
 3127TIP3    H233577   3.670   5.825  19.259  0.3982  0.4108 -0.4663
 3128TIP3   OH233578   5.476   4.108  19.943 -0.0656 -0.7113  0.3522
 3128TIP3    H133579   5.560   4.124  19.900 -0.5685  0.0300 -0.3928
 3128TIP3    H233580   5.473   4.169  20.016  0.0690 -0.7882  0.4213
 3129TIP3   OH233581   1.484   1.159  20.266 -0.3215 -0.3276  0.0461
 3129TIP3    H133582   1.524   1.075  20.247 -1.2538 -1.3095  2.0794
 3129TIP3    H233583   1.527   1.221  20.207 -0.6018 -2.4083 -2.5195
 3130TIP3   OH233584   1.933   5.184  18.298  0.6404  0.6684  0.4688
 3130TIP3    H133585   1.929   5.269  18.255  0.6878 -0.2274 -1.3898
 3130TIP3    H233586   2.006   5.139  18.255 -1.1413 -1.3426 -0.6473
 3131TIP3   OH233587   2.207   2.460  18.236 -0.0844 -0.0719 -0.1501
 3131TIP3    H133588   2.182   2.552  18.248  2.0800  0.4573  0.6619
 3131TIP3    H233589   2.124   2.413  18.240 -1.0743  1.6490  1.4365
 3132TIP3   OH233590   5.195   1.822  19.821 -0.0367  0.0300  0.4772
 3132TIP3    H133591   5.183   1.732  19.791 -0.4717  0.6085 -1.1616
 3132TIP3    H233592   5.286   1.842  19.801  0.6343 -0.6163  2.5705
 3133TIP3   OH233593   2.534   4.685  17.314 -0.3606 -0.0359  0.1737
 3133TIP3    H133594   2.577   4.646  17.390 -0.5328  0.5510  0.5809
 3133TIP3    H233595   2.527   4.778  17.336 -2.5254 -0.2128  0.4557
 3134TIP3   OH233596   5.274   1.685  20.147  0.3403  0.1728  0.0050
 3134TIP3    H133597   5.201   1.747  20.154  0.8034  0.6913  0.3145
 3134TIP3    H233598   5.345   1.735  20.108  0.2933 -0.5490 -1.0302
 3135TIP3   OH233599   5.337   1.471  19.771 -0.2869  0.0665  0.1115
 3135TIP3    H133600   5.327   1.388  19.724  0.4115  0.5193 -0.8669
 3135TIP3    H233601   5.295   1.536  19.715 -1.4473  0.2809  1.2058
 3136TIP3   OH233602   3.561   4.755  18.075  0.0570 -0.0758 -0.1485
 3136TIP3    H133603   3.508   4.833  18.062  0.5200  0.4347  0.9266
 3136TIP3    H233604   3.645   4.788  18.107  0.0306 -1.0447  0.9715
 3137TIP3   OH233605   0.467   3.906  17.659  0.0047 -0.6921  0.7955
 3137TIP3    H133606   0.472   3.888  17.565 -0.7646  0.9167  0.4122
 3137TIP3    H233607   0.540   3.857  17.697  0.8103 -0.7314 -0.7462
 3138TIP3   OH233608   5.233   2.634  18.773  0.1377  0.5030  0.5752
 3138TIP3    H133609   5.287   2.604  18.700 -2.3460  0.4199 -1.3453
 3138TIP3    H233610   5.273   2.593  18.850  2.6343  0.2991 -0.7222
 3139TIP3   OH233611   5.808   6.156  18.189  0.4135 -0.0687  0.0730
 3139TIP3    H133612   5.859   6.091  18.141  1.1594  0.4838  0.0944
 3139TIP3    H233613   5.840   6.150  18.279  0.8673  0.6710 -0.0257
 3140TIP3   OH233614   2.793   4.133  19.067 -0.1061  0.3369  0.3694
 3140TIP3    H133615   2.731   4.088  19.125  0.1048  0.3388  0.6017
 3140TIP3    H233616   2.773   4.100  18.980 -0.3761  0.2742  0.4541
 3141TIP3   OH233617   4.558   3.046  17.993  0.4977 -0.1868  0.5314
 3141TIP3    H133618   4.635   2.988  17.990  0.1028 -0.7461  1.0409
 3141TIP3    H233619   4.577   3.113  17.927 -0.1438 -2.2724 -1.9528
 3142TIP3   OH233620   1.428   6.584  18.477  0.0850 -0.3209  0.1150
 3142TIP3    H133621   1.510   6.549  18.512  0.2459 -0.5139 -0.4527
 3142TIP3    H233622   1.359   6.539  18.527  0.3128  0.8360  1.5641
 3143TIP3   OH233623   4.485   4.277  17.748 -0.3072  0.4020  0.7047
 3143TIP3    H133624   4.543   4.253  17.676  3.0947  1.4976  2.8286
 3143TIP3    H233625   4.473   4.195  17.797 -2.2648 -0.2468 -0.7547
 3144TIP3   OH233626   6.286   0.818  17.971 -0.6828  0.0205  0.7479
 3144TIP3    H133627   6.313   0.901  18.008 -1.2350  0.4453  0.2231
 3144TIP3    H233628   6.334   0.811  17.888  0.6203 -0.9679  1.5415
 3145TIP3   OH233629   5.932   1.312  17.774 -0.4316 -0.4478  0.0580
 3145TIP3    H133630   5.854   1.266  17.802  0.0883 -1.7703 -0.5931
 3145TIP3    H233631   6.003   1.250  17.787  0.2318 -0.0065 -1.2676
 3146TIP3   OH233632   5.992   5.715  17.627 -0.3046  0.0869 -0.2143
 3146TIP3    H133633   6.080   5.753  17.620  0.0992 -0.6226  0.7848
 3146TIP3    H233634   5.971   5.686  17.539  1.0912 -1.0944 -0.1901
 3147TIP3   OH233635   4.971   4.885  18.524  0.3905  0.5873  0.3812
 3147TIP3    H133636   5.018   4.811  18.563 -1.0923 -0.6516 -0.0885
 3147TIP3    H233637   5.004   4.962  18.570  1.1125 -0.4830  1.7108
 3148TIP3   OH233638   1.032   3.636  19.035 -0.2058  0.0749 -0.4183
 3148TIP3    H133639   0.963   3.668  18.977  0.0075 -1.7084 -1.7639
 3148TIP3    H233640   1.008   3.545  19.053  1.2979 -0.2953 -0.1564
 3149TIP3   OH233641   5.406   2.945  19.422 -0.1246  0.7484  0.3514
 3149TIP3    H133642   5.372   3.034  19.432  0.2511  0.9400 -0.0513
 3149TIP3    H233643   5.328   2.889  19.427 -0.2879  1.0441  1.2824
 3150TIP3   OH233644   3.070   3.559  20.152  0.0482 -0.5772 -0.3834
 3150TIP3    H133645   3.133   3.591  20.088  0.7940 -1.5311 -0.1536
 3150TIP3    H233646   3.118   3.560  20.235 -1.1343  1.3619  0.3470
 3151TIP3   OH233647   1.873   2.049  19.778  0.7294  0.6105  0.2183
 3151TIP3    H133648   1.915   2.128  19.813  2.0142  0.2151 -0.3707
 3151TIP3    H233649   1.884   2.058  19.683 -0.2352  0.3226  0.0757
 3152TIP3   OH233650   1.057   3.330  17.995 -0.2797  0.4075  0.3509
 3152TIP3    H133651   0.964   3.312  18.008 -0.2168 -0.0685  0.1679
 3152TIP3    H233652   1.073   3.310  17.903  0.0911  0.0788  0.4827
 3153TIP3   OH233653   1.865   1.579  18.970  0.0944  0.5257  0.0912
 3153TIP3    H133654   1.833   1.628  18.894 -1.6739  1.3568  1.3057
 3153TIP3    H233655   1.877   1.645  19.038  1.7258 -0.1906  0.5518
 3154TIP3   OH233656   2.308   4.138  19.027  0.6435 -0.3668  0.1255
 3154TIP3    H133657   2.327   4.168  18.938  1.7855 -0.0105  0.4655
 3154TIP3    H233658   2.393   4.110  19.061  0.1532 -0.8468  0.9810
 3155TIP3   OH233659   4.325   2.641  18.177  0.0757  0.2605 -0.2696
 3155TIP3    H133660   4.237   2.605  18.165  1.0311 -3.4138  2.1055
 3155TIP3    H233661   4.330   2.714  18.115 -4.0884 -0.2736 -1.5263
 3156TIP3   OH233662   3.782   4.644  20.275 -0.5594  0.5329  0.2370
 3156TIP3    H133663   3.850   4.697  20.318  1.0140  0.5427 -2.0760
 3156TIP3    H233664   3.829   4.567  20.243 -2.2005 -0.7582  0.7597
 3157TIP3   OH233665   2.976   0.624  19.214  0.1545 -0.2101  0.0043
 3157TIP3    H133666   2.897   0.665  19.249  0.3630  0.2429 -0.0476
 3157TIP3    H233667   3.002   0.560  19.281 -0.0580 -0.1092  0.1833
 3158TIP3   OH233668   5.156   1.260  17.223  0.6617  0.1596  0.2795
 3158TIP3    H133669   5.104   1.180  17.230  1.4735 -0.5735 -1.5959
 3158TIP3    H233670   5.230   1.246  17.282 -0.0064  0.2129  1.1509
 3159TIP3   OH233671   0.181   1.068  18.130 -0.1023  0.1493 -0.0364
 3159TIP3    H133672   0.201   1.018  18.050  0.2278 -0.0763  0.1850
 3159TIP3    H233673   0.112   1.017  18.173  0.7551 -0.5227  0.5681
 3160TIP3   OH233674   0.950   3.042  17.787  0.2813 -0.3253 -0.2936
 3160TIP3    H133675   0.967   3.035  17.881 -0.9867 -1.2508 -0.0975
 3160TIP3    H233676   0.859   3.073  17.782  0.2602 -0.5140 -1.2116
 3161TIP3   OH233677   0.867   3.156  17.520 -0.4190  0.3646  0.3556
 3161TIP3    H133678   0.953   3.168  17.479 -0.0026  0.8927  1.3500
 3161TIP3    H233679   0.886   3.110  17.602 -1.2322 -0.6163  0.0263
 3162TIP3   OH233680   2.963   0.164  19.842 -0.1879  0.1346  0.3107
 3162TIP3    H133681   2.925   0.207  19.918  0.5663  0.0071  0.7708
 3162TIP3    H233682   3.006   0.234  19.793 -1.6170  0.4077 -0.6110
 3163TIP3   OH233683   5.521   4.986  18.356 -0.4407  0.2560  0.8340
 3163TIP3    H133684   5.601   4.949  18.395 -0.3716  0.9516  1.3610
 3163TIP3    H233685   5.495   5.055  18.416 -0.0095  1.7499 -0.6408
 3164TIP3   OH233686   2.814   5.323  18.650 -0.2757 -0.1649  0.1952
 3164TIP3    H133687   2.769   5.247  18.686  1.7316 -1.7619 -0.4528
 3164TIP3    H233688   2.906   5.297  18.647  0.1231  1.1731 -2.7568
 3165TIP3   OH233689   0.515   5.054  17.548 -0.1056 -0.1022  0.8020
 3165TIP3    H133690   0.442   5.061  17.487 -0.6163  1.0584  1.5156
 3165TIP3    H233691   0.593   5.058  17.493 -0.5668 -0.3388  0.1215
 3166TIP3   OH233692   0.487   5.485  17.929 -0.4830 -0.7120  0.2526
 3166TIP3    H133693   0.545   5.542  17.979 -1.9862  1.3583 -0.2137
 3166TIP3    H233694   0.413   5.469  17.987 -1.0394 -0.4170 -0.3528
 3167TIP3   OH233695   0.525   1.977  18.829  0.0803 -0.0329 -0.2876
 3167TIP3    H133696   0.524   2.064  18.790  1.0288 -0.7988 -2.1651
 3167TIP3    H233697   0.579   1.925  18.770  0.9202 -1.5146  1.6495
 3168TIP3   OH233698   2.992   2.983  17.322 -0.1580 -0.3280 -0.2147
 3168TIP3    H133699   2.948   3.064  17.294 -0.2459 -0.5550 -0.7593
 3168TIP3    H233700   3.080   2.989  17.285 -0.6135 -1.1185 -1.4919
 3169TIP3   OH233701   3.740   4.724  16.696  0.9275 -0.0643  0.0430
 3169TIP3    H133702   3.818   4.743  16.748 -0.5612 -0.6058  2.6147
 3169TIP3    H233703   3.710   4.639  16.728 -1.2574  0.5685 -0.2227
 3170TIP3   OH233704   0.359   4.784  19.995 -0.0017 -0.4308  0.7235
 3170TIP3    H133705   0.310   4.822  20.068  0.4086  0.8154  0.3894
 3170TIP3    H233706   0.326   4.695  19.987 -0.1026 -0.5711  2.3814
 3171TIP3   OH233707   0.173   3.867  17.063  0.1145  0.0589 -0.4601
 3171TIP3    H133708   0.242   3.803  17.080  1.2825  1.2927 -0.4145
 3171TIP3    H233709   0.110   3.820  17.008 -0.1711 -1.7893  1.3293
 3172TIP3   OH233710   6.061   1.776  18.251 -0.6326  0.5308  0.9699
 3172TIP3    H133711   6.084   1.868  18.260  2.8138 -0.0725 -0.1360
 3172TIP3    H233712   6.012   1.770  18.169 -0.8937  1.3658  1.0601
 3173TIP3   OH233713   0.751   5.154  19.745 -0.0471  0.0299 -0.4031
 3173TIP3    H133714   0.743   5.248  19.730 -0.3577 -0.0528 -0.7796
 3173TIP3    H233715   0.839   5.143  19.781  0.4484  0.3435 -1.4522
 3174TIP3   OH233716   0.915   4.295  17.946  0.3517  0.2061 -0.2478
 3174TIP3    H133717   0.911   4.256  18.033 -0.9499 -0.8921 -0.7524
 3174TIP3    H233718   0.969   4.235  17.895  1.4191  1.0398 -0.1211
 3175TIP3   OH233719   3.519   6.541  18.062 -0.1574  0.0367 -0.2189
 3175TIP3    H133720   3.587   6.608  18.054  1.1568 -1.4622 -3.3226
 3175TIP3    H233721   3.456   6.561  17.993  1.1755 -2.6696 -2.4534
 3176TIP3   OH233722   2.499   2.953  17.514 -0.3243  0.2979  0.3033
 3176TIP3    H133723   2.520   3.025  17.455  0.8911  0.1192  0.4772
 3176TIP3    H233724   2.521   2.986  17.601  2.3666 -0.9152  0.2180
 3177TIP3   OH233725   6.651   3.457  15.996  0.1823 -0.9564 -0.1728
 3177TIP3    H133726   6.669   3.427  15.907  0.1357  0.3531 -0.6404
 3177TIP3    H233727   6.580   3.399  16.027 -0.0472 -1.1934 -1.1132
 3178TIP3   OH233728   5.194   4.200  18.626 -0.3358 -0.3502  0.2602
 3178TIP3    H133729   5.241   4.164  18.551 -1.5997  1.2805 -1.3887
 3178TIP3    H233730   5.249   4.271  18.658 -1.2562  1.0864 -1.2197
 3179TIP3   OH233731   1.108   5.372  20.090  0.0288  0.0278  0.9510
 3179TIP3    H133732   1.045   5.337  20.153 -0.2005  0.2953  0.8674
 3179TIP3    H233733   1.075   5.344  20.005  0.3403 -0.3350  0.9441
 3180TIP3   OH233734   1.982   6.089  19.616 -0.3185 -0.2359 -0.4367
 3180TIP3    H133735   1.905   6.138  19.590 -0.3007  0.6193  1.0229
 3180TIP3    H233736   2.031   6.149  19.674  1.5779 -0.6450 -1.5261
 3181TIP3   OH233737   0.191   3.241  17.728  0.4820  0.2050 -0.2736
 3181TIP3    H133738   0.187   3.281  17.641 -0.0647  1.1190  0.1635
 3181TIP3    H233739   0.250   3.296  17.778  2.0978 -1.2301 -0.4948
 3182TIP3   OH233740   4.285   4.044  17.646 -0.4368 -0.8537 -0.5456
 3182TIP3    H133741   4.312   4.009  17.561 -0.8729 -0.8870 -0.6728
 3182TIP3    H233742   4.360   4.027  17.703  0.8098  1.2678 -1.4553
 3183TIP3   OH233743   2.967   6.273  17.400 -0.4180 -0.1216  0.3128
 3183TIP3    H133744   2.926   6.279  17.314  0.5669  0.8586 -0.1166
 3183TIP3    H233745   3.010   6.187  17.400 -0.5692 -0.1990 -0.0979
 3184TIP3   OH233746   5.096   3.458  17.786 -0.2392  0.0342  0.0396
 3184TIP3    H133747   5.052   3.497  17.711 -0.3114  1.5845  0.8451
 3184TIP3    H233748   5.042   3.484  17.861 -0.5851 -2.1031  0.5835
 3185TIP3   OH233749   6.054   1.020  19.290  0.1955  0.5302 -0.5228
 3185TIP3    H133750   5.976   1.048  19.338 -0.0323 -1.1637  0.1748
 3185TIP3    H233751   6.116   0.994  19.358  0.2607 -0.9186 -1.0875
 3186TIP3   OH233752   3.608   2.779  19.118  0.3025  0.7225 -0.0379
 3186TIP3    H133753   3.535   2.811  19.172  0.1018 -0.8104  0.6554
 3186TIP3    H233754   3.597   2.683  19.119  1.2392  0.5887 -1.4813
 3187TIP3   OH233755   1.456   2.304  17.224  0.1549  0.5287 -0.4082
 3187TIP3    H133756   1.545   2.336  17.238  0.0702  1.2223 -1.3706
 3187TIP3    H233757   1.404   2.350  17.289  0.5323 -0.1533  0.4087
 3188TIP3   OH233758   4.592   1.094  19.545 -0.0042 -0.1753 -0.3322
 3188TIP3    H133759   4.604   1.131  19.633  1.8079  0.8564 -0.9506
 3188TIP3    H233760   4.513   1.136  19.512 -1.0348 -1.0088  0.9946
 3189TIP3   OH233761   5.281   5.240  17.740 -0.3265  0.3031 -0.7964
 3189TIP3    H133762   5.224   5.196  17.804 -0.2429 -1.2427 -1.7383
 3189TIP3    H233763   5.345   5.174  17.716  0.4646  1.2939 -1.4850
 3190TIP3   OH233764   0.745   6.129  18.938  0.2555 -0.0575 -0.0305
 3190TIP3    H133765   0.804   6.063  18.976  0.1571  0.9910  2.0967
 3190TIP3    H233766   0.796   6.210  18.940  0.0410  0.1496 -1.7271
 3191TIP3   OH233767   6.519   3.120  19.528 -0.5614 -0.7078 -0.0267
 3191TIP3    H133768   6.475   3.088  19.449 -1.9839 -0.7454  0.7428
 3191TIP3    H233769   6.570   3.195  19.499 -0.4794 -1.1586 -1.1033
 3192TIP3   OH233770   1.841   2.111  18.715 -0.2124  0.1333  0.5149
 3192TIP3    H133771   1.872   2.112  18.624  0.1121 -0.3754  0.6147
 3192TIP3    H233772   1.916   2.081  18.766 -0.1615  1.1341  1.0510
 3193TIP3   OH233773   1.901   5.573  18.429  0.3202  0.2313 -0.1409
 3193TIP3    H133774   1.898   5.646  18.491  1.1425  0.6475 -0.5913
 3193TIP3    H233775   1.825   5.587  18.373 -0.7690 -0.4576  1.0921
 3194TIP3   OH233776   2.423   6.225  17.211 -0.3283  0.2436 -0.2519
 3194TIP3    H133777   2.509   6.227  17.169 -0.3964 -1.2868 -0.4972
 3194TIP3    H233778   2.370   6.169  17.155 -1.6787  1.6333 -0.4188
 3195TIP3   OH233779   3.561   4.828  18.746  0.0773 -0.4547  0.1328
 3195TIP3    H133780   3.648   4.864  18.729  0.3589 -0.5850  1.2296
 3195TIP3    H233781   3.570   4.782  18.830 -0.7160 -1.6044 -0.3815
 3196TIP3   OH233782   1.504   5.199  17.988 -0.3755 -0.6166 -0.8541
 3196TIP3    H133783   1.479   5.110  18.010  1.9862 -1.0139  0.4448
 3196TIP3    H233784   1.452   5.254  18.048 -1.6513 -1.0746 -1.4957
 3197TIP3   OH233785   5.558   1.552  19.920  0.2269  0.6728  0.4954
 3197TIP3    H133786   5.563   1.636  19.965  0.6023  0.7482  0.3205
 3197TIP3    H233787   5.480   1.558  19.865  1.0128  1.4351 -0.5658
 3198TIP3   OH233788   2.510   3.867  18.938 -0.2796  0.6524 -0.3642
 3198TIP3    H133789   2.435   3.847  18.882  0.4039  0.6078 -1.2888
 3198TIP3    H233790   2.549   3.782  18.958 -0.4365  0.6799  0.0541
 3199TIP3   OH233791   3.622   2.383  17.545  0.1890  0.1545 -0.0817
 3199TIP3    H133792   3.563   2.397  17.471  0.2868  0.5903 -0.0791
 3199TIP3    H233793   3.685   2.319  17.513  0.3365  0.4758 -0.4355
 3200TIP3   OH233794   1.084   1.887  17.255 -0.1476 -0.0242  0.5282
 3200TIP3    H133795   1.085   1.974  17.295  1.5276  0.4561 -0.4711
 3200TIP3    H233796   0.996   1.854  17.273 -0.3727  1.3021  2.1136
 3201TIP3   OH233797   0.032   4.783  18.950 -0.3350  0.0671  0.4717
 3201TIP3    H133798   0.025   4.851  19.017 -0.9782  1.7100 -1.1923
 3201TIP3    H233799   0.052   4.703  18.999  0.6425  1.4630  2.4779
 3202TIP3   OH233800   1.655   4.359  18.218  0.3260  0.0030  0.0156
 3202TIP3    H133801   1.612   4.287  18.172 -0.4769  1.3146 -1.3748
 3202TIP3    H233802   1.733   4.319  18.258  0.4956 -1.4102 -1.6214
 3203TIP3   OH233803   6.543   4.163  20.209  0.2692 -0.2168  0.0670
 3203TIP3    H133804   6.559   4.108  20.286  1.1455  2.2441  1.7660
 3203TIP3    H233805   6.479   4.228  20.238  1.6677  1.6558 -0.7557
 3204TIP3   OH233806   2.445   5.017  16.994 -0.0527  0.2370 -0.4616
 3204TIP3    H133807   2.374   4.953  17.002  0.1699 -0.0283 -0.5923
 3204TIP3    H233808   2.498   4.985  16.921  0.7860 -0.1336  0.2989
 3205TIP3   OH233809   0.201   6.217  17.488  0.5986  0.2872 -0.1975
 3205TIP3    H133810   0.195   6.168  17.570 -0.0321 -0.3799 -0.6242
 3205TIP3    H233811   0.290   6.202  17.458  0.6282 -0.0172  0.0336
 3206TIP3   OH233812   6.719   6.671  17.630  0.1803  0.4211  0.4815
 3206TIP3    H133813   6.712   6.755  17.677  0.0377  0.7653 -0.1421
 3206TIP3    H233814   6.656   6.678  17.559 -0.6038 -0.6500  1.0446
 3207TIP3   OH233815   4.630   1.263  20.081 -0.6643  0.2930  0.2952
 3207TIP3    H133816   4.647   1.206  20.006  0.1037 -0.7929  1.2626
 3207TIP3    H233817   4.544   1.235  20.114 -0.0606 -0.6855  1.0778
 3208TIP3   OH233818   1.183   2.133  17.984 -0.5372 -0.0713 -0.2244
 3208TIP3    H133819   1.275   2.107  17.975 -0.3235  0.8614 -0.9227
 3208TIP3    H233820   1.138   2.053  18.012  0.4944 -0.5191  0.2117
 3209TIP3   OH233821   0.175   5.015  18.545 -0.1002  0.1987 -0.0779
 3209TIP3    H133822   0.238   4.951  18.510  0.3090  2.2249 -3.5048
 3209TIP3    H233823   0.090   4.984  18.514 -0.0919  0.4530 -0.3586
 3210TIP3   OH233824   4.389   0.402  20.183 -0.0062  0.5073  0.5338
 3210TIP3    H133825   4.473   0.414  20.139 -0.6417  0.4746 -0.7313
 3210TIP3    H233826   4.342   0.339  20.128 -1.0433  0.9021  0.9452
 3211TIP3   OH233827   0.083   6.530  18.568  0.0839 -0.3699  0.1213
 3211TIP3    H133828   0.062   6.587  18.642 -0.4871  0.3519 -0.5852
 3211TIP3    H233829   0.135   6.459  18.607  0.5393  0.4507  1.0678
 3212TIP3   OH233830   2.193   1.342  17.965  0.4917 -0.7593 -0.3998
 3212TIP3    H133831   2.173   1.390  17.884  0.0038 -0.5708 -0.1686
 3212TIP3    H233832   2.281   1.370  17.988  0.2655 -0.0746 -0.3452
 3213TIP3   OH233833   5.899   0.035  20.415 -0.0419 -0.0012  0.1597
 3213TIP3    H133834   5.883  -0.046  20.464  1.3550 -0.1812  0.3737
 3213TIP3    H233835   5.853   0.023  20.332  0.8862 -1.4226 -0.1877
 3214TIP3   OH233836   2.027   5.349  18.090  0.0296 -0.1158  0.5841
 3214TIP3    H133837   2.084   5.281  18.053  1.4807  1.6462 -0.6325
 3214TIP3    H233838   1.945   5.342  18.041  0.6062 -0.2291 -0.3910
 3215TIP3   OH233839   4.039   5.222  18.050 -0.2940 -0.3419  0.0346
 3215TIP3    H133840   4.060   5.306  18.009 -1.0816 -0.4128 -0.5372
 3215TIP3    H233841   4.083   5.225  18.135  0.8728  0.0565 -0.5517
 3216TIP3   OH233842   0.681   4.096  17.753  0.3784  0.1448  0.0207
 3216TIP3    H133843   0.741   4.037  17.799  0.6039  0.8896  0.7019
 3216TIP3    H233844   0.734   4.172  17.731 -0.1854  0.5956  0.1824
 3217TIP3   OH233845   0.057   0.203  18.226 -0.1584  0.3209  0.0868
 3217TIP3    H133846   0.045   0.268  18.295  0.6365  2.1610 -1.4361
 3217TIP3    H233847   0.129   0.148  18.258 -0.1600  0.7979  0.9468
 3218TIP3   OH233848   6.558   5.557  18.381  0.2546 -0.4935 -0.4715
 3218TIP3    H133849   6.569   5.651  18.367  1.1410 -0.5390 -0.1605
 3218TIP3    H233850   6.643   5.528  18.417  0.0598 -1.4437 -0.7512
 3219TIP3   OH233851   0.689   2.666  19.185 -0.1137  0.3902 -0.1547
 3219TIP3    H133852   0.747   2.668  19.109  0.2378 -0.6814  0.0521
 3219TIP3    H233853   0.691   2.574  19.213  1.9084  1.1533  2.7486
 3220TIP3   OH233854   1.809   1.227  17.103 -0.1965 -0.4701  0.2639
 3220TIP3    H133855   1.858   1.300  17.065  2.0306 -0.9607  1.9424
 3220TIP3    H233856   1.740   1.209  17.039  1.7441  0.3640 -2.2834
 3221TIP3   OH233857   0.609   2.201  20.122  0.2165  0.4205  0.5223
 3221TIP3    H133858   0.558   2.155  20.189 -0.4084 -2.6198 -1.8246
 3221TIP3    H233859   0.554   2.198  20.044  0.7056  4.2775 -0.1419
 3222TIP3   OH233860   5.511   3.848  18.554  0.6985 -0.2282 -0.5157
 3222TIP3    H133861   5.527   3.776  18.493  2.0497 -0.6527  0.2830
 3222TIP3    H233862   5.476   3.805  18.632  1.2152  0.0174 -0.1477
 3223TIP3   OH233863   4.713   3.921  18.041 -0.1748 -0.3778 -0.1208
 3223TIP3    H133864   4.770   3.852  18.076  1.4847 -0.4452 -2.6941
 3223TIP3    H233865   4.774   3.987  18.007 -1.6581  0.2928 -1.5960
 3224TIP3   OH233866   0.687   5.493  20.283  0.4601 -0.2462  0.2759
 3224TIP3    H133867   0.650   5.581  20.296  2.0959  0.3483  1.0972
 3224TIP3    H233868   0.727   5.497  20.196 -0.4297 -0.5694 -0.1708
 3225TIP3   OH233869   0.991   5.823  19.654  0.3870  0.0353 -0.0247
 3225TIP3    H133870   1.077   5.798  19.686  0.0906 -1.3849 -0.2688
 3225TIP3    H233871   0.931   5.799  19.725  0.0616 -0.2342 -0.3825
 3226TIP3   OH233872   6.483   4.967  20.212  0.5775 -0.3421  0.0954
 3226TIP3    H133873   6.438   4.883  20.207 -0.2568  0.1440 -0.8103
 3226TIP3    H233874   6.576   4.945  20.203  0.4109 -1.2036  0.3972
 3227TIP3   OH233875   3.528   4.440  20.020 -0.2077  0.8082 -0.0775
 3227TIP3    H133876   3.598   4.390  19.979  0.2801  1.4335 -0.0251
 3227TIP3    H233877   3.453   4.381  20.021 -0.2775  0.7895 -1.9854
 3228TIP3   OH233878   3.851   6.348  19.353 -0.4279 -0.2162  0.1485
 3228TIP3    H133879   3.767   6.335  19.308  0.3193 -0.3925 -1.2245
 3228TIP3    H233880   3.829   6.335  19.446 -1.6911 -1.4905 -0.2684
 3229TIP3   OH233881   2.498   4.387  20.415 -0.1440 -0.0326 -0.4537
 3229TIP3    H133882   2.417   4.343  20.443 -0.7703  1.0997 -0.4362
 3229TIP3    H233883   2.536   4.327  20.350 -1.4173 -0.2133 -1.0697
 3230TIP3   OH233884   1.226   4.918  17.514  0.3250 -0.2154 -0.0748
 3230TIP3    H133885   1.253   4.850  17.576  1.1856  1.1583  1.1236
 3230TIP3    H233886   1.298   4.924  17.451  2.1362  2.1405  2.0309
 3231TIP3   OH233887   3.443   0.587  18.528 -0.1670  0.2466  0.3625
 3231TIP3    H133888   3.512   0.653  18.539  1.0254 -0.8590 -0.1724
 3231TIP3    H233889   3.457   0.525  18.599  0.0017 -0.4958 -0.3065
 3232TIP3   OH233890   0.936   2.464  17.338 -0.5269  0.2809  0.1341
 3232TIP3    H133891   0.856   2.422  17.369 -0.8570  1.7864  1.4363
 3232TIP3    H233892   0.934   2.552  17.376  2.8639 -0.3290  2.1509
 3233TIP3   OH233893   4.322   4.654  17.973  0.3811 -0.4318  0.3047
 3233TIP3    H133894   4.267   4.727  17.947 -0.2967 -2.1123 -3.8642
 3233TIP3    H233895   4.270   4.605  18.036 -1.1367  0.2990 -0.3392
 3234TIP3   OH233896   0.413   3.407  17.037  0.4048 -0.2195  0.3177
 3234TIP3    H133897   0.341   3.421  16.976  1.0019 -0.2814 -0.4248
 3234TIP3    H233898   0.461   3.332  17.000  3.6711  2.6652 -2.0284
 3235TIP3   OH233899   0.011   1.862  17.213 -0.2142  0.1414 -0.4131
 3235TIP3    H133900   0.040   1.789  17.158 -0.0196 -0.4130  0.4060
 3235TIP3    H233901   0.066   1.857  17.291 -1.7024 -0.2306  0.6614
 3236TIP3   OH233902   0.241   2.397  16.517 -0.2998 -0.4360 -0.0921
 3236TIP3    H133903   0.170   2.380  16.578 -0.5155 -0.5802 -0.3802
 3236TIP3    H233904   0.207   2.465  16.459  0.4998  0.8941  0.9581
 3237TIP3   OH233905   3.432   2.561  19.510  0.3136 -0.0956  0.0901
 3237TIP3    H133906   3.506   2.543  19.568  1.1570  1.3973 -0.4653
 3237TIP3    H233907   3.394   2.642  19.545 -0.6128 -0.4564 -0.0652
 3238TIP3   OH233908   2.842   0.063  19.607 -0.1964 -0.2217 -0.0881
 3238TIP3    H133909   2.877   0.101  19.688  1.4871 -3.5990  0.9671
 3238TIP3    H233910   2.916   0.063  19.546 -0.6601 -0.1924 -0.6586
 3239TIP3   OH233911   4.411   0.452  18.703  0.3791  0.9718  0.5049
 3239TIP3    H133912   4.477   0.472  18.636 -0.6709  1.3058 -0.4706
 3239TIP3    H233913   4.405   0.356  18.703  2.3013  0.7841  2.0795
 3240TIP3   OH233914   0.700   3.717  17.499  0.3187 -0.0439 -0.2048
 3240TIP3    H133915   0.775   3.770  17.527 -0.5146  0.8529  0.3985
 3240TIP3    H233916   0.715   3.631  17.539 -0.2141  0.8502  2.0753
 3241TIP3   OH233917   6.370   5.658  16.855  0.0058  0.1349  0.4790
 3241TIP3    H133918   6.388   5.751  16.845  0.1413  0.1491  0.8414
 3241TIP3    H233919   6.306   5.653  16.925  0.2053 -0.0647  0.6502
 3242TIP3   OH233920   0.919   2.480  18.389  0.4338  0.2450 -0.1075
 3242TIP3    H133921   0.880   2.567  18.401  1.0309  1.2526 -4.0701
 3242TIP3    H233922   0.972   2.466  18.467 -0.5824  2.9085  1.1774
 3243TIP3   OH233923   5.694   2.165  19.827  0.3412  0.2520  0.2139
 3243TIP3    H133924   5.613   2.182  19.877 -0.6703 -0.7130 -1.0299
 3243TIP3    H233925   5.726   2.082  19.862 -0.4539 -0.5056 -0.7833
 3244TIP3   OH233926   4.533   5.035  18.727  0.4487 -0.2940  0.0512
 3244TIP3    H133927   4.492   5.115  18.760  0.3949 -0.0281 -0.6428
 3244TIP3    H233928   4.470   5.001  18.662  1.5443  0.3962 -1.4178
 3245TIP3   OH233929   2.518   1.642  19.830  0.7191  0.0334  0.1865
 3245TIP3    H133930   2.440   1.690  19.804  0.3341 -0.5293  0.2687
 3245TIP3    H233931   2.586   1.708  19.841  0.2786  0.5141  0.0110
 3246TIP3   OH233932   5.533   0.881  18.359 -0.5814  0.2783  0.6756
 3246TIP3    H133933   5.507   0.794  18.390 -1.9268 -0.3295 -1.8279
 3246TIP3    H233934   5.512   0.940  18.431 -2.2005 -1.1643  1.4622
 3247TIP3   OH233935   4.585   3.862  19.910 -0.4228 -0.3514 -0.5436
 3247TIP3    H133936   4.605   3.934  19.850  0.7066  1.1140  1.4445
 3247TIP3    H233937   4.564   3.788  19.853  2.2184  0.4547 -2.7874
 3248TIP3   OH233938   0.825   1.917  17.010 -0.0595 -0.5020  0.0811
 3248TIP3    H133939   0.911   1.938  16.974 -0.7751  0.5471 -1.1166
 3248TIP3    H233940   0.763   1.961  16.951 -1.4140 -1.1926  0.9348
 3249TIP3   OH233941   5.412   1.593  17.865 -0.2634  0.2983  0.1920
 3249TIP3    H133942   5.405   1.554  17.952 -0.4504  0.6770  0.3520
 3249TIP3    H233943   5.478   1.662  17.875 -0.0523  0.1325 -0.0492
 3250TIP3   OH233944   2.141   0.197  18.225 -0.0427 -0.0281  0.0764
 3250TIP3    H133945   2.085   0.224  18.152  1.2970  1.0792 -0.5827
 3250TIP3    H233946   2.120   0.258  18.295  1.6170  1.6648 -0.7942
 3251TIP3   OH233947   4.312   3.969  20.004  0.0930  0.6152 -0.0853
 3251TIP3    H133948   4.392   3.917  20.013  0.9557  1.9649  0.3419
 3251TIP3    H233949   4.331   4.030  19.933 -1.1280 -0.0201 -0.9952
 3252TIP3   OH233950   2.694   5.151  18.851 -0.5044  0.0373 -0.1926
 3252TIP3    H133951   2.609   5.107  18.843 -0.1029 -1.0179  0.9642
 3252TIP3    H233952   2.702   5.172  18.945  1.2418 -1.4934  0.0637
 3253TIP3   OH233953   1.261   3.142  19.423 -0.0787 -0.0714  0.2219
 3253TIP3    H133954   1.244   3.052  19.450  1.2861 -0.2190  0.6512
 3253TIP3    H233955   1.318   3.134  19.347 -2.5986  0.3861 -1.8469
 3254TIP3   OH233956   3.654   4.166  19.557 -0.1011 -0.7932 -0.2533
 3254TIP3    H133957   3.704   4.090  19.586  1.3826  0.6308  1.0795
 3254TIP3    H233958   3.673   4.234  19.622 -0.5186  1.0663 -1.9773
 3255TIP3   OH233959   4.308   0.587  18.913  0.5001  0.0375  1.2789
 3255TIP3    H133960   4.213   0.589  18.903  0.4969 -2.4269  0.2775
 3255TIP3    H233961   4.340   0.551  18.830  2.4303  1.7097  1.2032
 3256TIP3   OH233962   2.460   3.857  18.160 -0.4297 -0.5147  0.3560
 3256TIP3    H133963   2.546   3.895  18.141  0.2163 -1.2076  1.7501
 3256TIP3    H233964   2.471   3.763  18.142 -0.5051 -0.8052  1.6907
 3257TIP3   OH233965   4.416   2.799  17.040 -0.4279  0.0061 -0.1338
 3257TIP3    H133966   4.348   2.777  17.103 -1.0426 -1.0077 -1.1170
 3257TIP3    H233967   4.424   2.721  16.984  1.8820 -0.0958  0.2355
 3258TIP3   OH233968   4.092   3.280  19.178 -0.3267 -0.2371  0.1654
 3258TIP3    H133969   4.107   3.368  19.143  1.6338 -0.5471  0.1150
 3258TIP3    H233970   4.004   3.283  19.214 -1.0679  1.1556 -1.6065
 3259TIP3   OH233971   5.982   4.613  18.100  0.2080 -0.1324  0.7626
 3259TIP3    H133972   5.963   4.595  18.008  0.0209 -0.2947  0.8322
 3259TIP3    H233973   5.926   4.688  18.121  0.2957 -0.0570  0.7278
 3260TIP3   OH233974   3.339   0.081  17.085  0.0925 -0.0155  0.6541
 3260TIP3    H133975   3.395   0.043  17.153  0.0171  2.4545  2.2372
 3260TIP3    H233976   3.250   0.066  17.117  0.0440  0.7842  0.9096
 3261TIP3   OH233977   4.179   6.719  18.415 -0.0599  0.3533  0.4525
 3261TIP3    H133978   4.153   6.787  18.478 -0.5011  0.5624  0.0524
 3261TIP3    H233979   4.240   6.663  18.464  0.6276  1.2617  0.6651
 3262TIP3   OH233980   2.907   4.035  18.563 -0.0651 -0.1525 -0.2759
 3262TIP3    H133981   2.858   4.077  18.493  0.6187  1.0924 -0.0551
 3262TIP3    H233982   2.925   3.947  18.531 -1.6899 -0.3612 -0.6986
 3263TIP3   OH233983   2.616   0.399  20.048  0.3061  0.4116 -0.1032
 3263TIP3    H133984   2.594   0.325  19.991  1.7606 -0.2106  0.1027
 3263TIP3    H233985   2.642   0.469  19.987 -0.9664  0.7536 -0.2928
 3264TIP3   OH233986   3.855   0.403  19.832 -0.6264 -1.0824  0.2685
 3264TIP3    H133987   3.867   0.314  19.800 -1.6330 -0.6432 -1.4593
 3264TIP3    H233988   3.764   0.406  19.862 -0.2237 -0.9690  1.5282
 3265TIP3   OH233989   0.137   1.990  20.250  0.3261 -0.2245  0.2360
 3265TIP3    H133990   0.098   1.999  20.163  0.3430  0.4724  0.2896
 3265TIP3    H233991   0.112   2.071  20.295  1.2510 -0.0838  0.5065
 3266TIP3   OH233992   6.713   2.189  20.189 -0.5904 -0.3029 -0.0257
 3266TIP3    H133993   6.639   2.142  20.228 -0.8065 -1.0999 -1.3274
 3266TIP3    H233994   6.736   2.137  20.113  0.3458  0.7674 -0.4948
 3267TIP3   OH233995   2.496   3.113  19.905 -0.0145 -0.0780  0.6749
 3267TIP3    H133996   2.413   3.153  19.934 -1.0390 -0.4645 -1.5033
 3267TIP3    H233997   2.544   3.185  19.863 -0.7940 -0.5190 -1.0780
 3268TIP3   OH233998   1.920   5.522  17.138  0.6546 -0.0406 -0.1777
 3268TIP3    H133999   1.942   5.604  17.095  0.3188 -0.6091 -1.4740
 3268TIP3    H234000   1.973   5.456  17.094 -0.6263 -0.8235 -0.6072
 3269TIP3   OH234001   3.024   4.160  18.027  0.1348 -0.4112  0.5128
 3269TIP3    H134002   3.106   4.113  18.040 -0.1064 -0.9466  0.1456
 3269TIP3    H234003   2.988   4.170  18.115  0.5397 -0.2700  0.6634
 3270TIP3   OH234004   4.200   6.624  17.458  0.6446 -0.4343  0.0034
 3270TIP3    H134005   4.235   6.547  17.413 -1.6701  0.0136 -2.9419
 3270TIP3    H234006   4.126   6.592  17.508  0.7846 -0.3574  0.2639
 3271TIP3   OH234007   0.097   1.212  19.790  0.2578  0.2378 -0.4456
 3271TIP3    H134008   0.144   1.295  19.789 -0.0537  0.4208 -1.9345
 3271TIP3    H234009   0.037   1.217  19.715  1.4147 -1.9913 -1.6098
 3272TIP3   OH234010   1.255   2.978  17.935 -0.0634  0.1428 -0.3796
 3272TIP3    H134011   1.343   2.974  17.897 -0.1960 -2.1940 -0.5885
 3272TIP3    H234012   1.270   2.981  18.029  0.2330  1.3815 -0.4559
 3273TIP3   OH234013   4.434   5.124  17.668 -0.1108 -0.0903  0.3877
 3273TIP3    H134014   4.448   5.214  17.639  0.6340 -0.1190  0.6529
 3273TIP3    H234015   4.350   5.127  17.714 -0.6407  0.2279 -0.5836
 3274TIP3   OH234016   6.616   1.017  18.266 -0.0806 -0.5497  0.4985
 3274TIP3    H134017   6.565   1.021  18.186 -0.3828  1.3366  0.7402
 3274TIP3    H234018   6.623   0.924  18.285 -1.4961 -0.9558 -0.7545
 3275TIP3   OH234019   5.845   0.014  19.939 -0.7469  0.5915  0.2949
 3275TIP3    H134020   5.814   0.096  19.902  0.9280  1.1076 -0.0356
 3275TIP3    H234021   5.938   0.028  19.956 -0.2114 -1.4847 -0.5477
 3276TIP3   OH234022   2.609   3.589  16.987 -0.3654 -0.0575 -0.0331
 3276TIP3    H134023   2.647   3.655  17.045 -0.0362 -0.6143  0.4012
 3276TIP3    H234024   2.515   3.598  16.999 -0.2868 -0.9667  1.5357
 3277TIP3   OH234025   0.027   3.989  17.824 -0.0903 -0.2430  0.0519
 3277TIP3    H134026  -0.054   4.017  17.865 -0.3310 -0.7018 -0.1073
 3277TIP3    H234027   0.038   4.047  17.749  0.7159  1.0712  1.1374
 3278TIP3   OH234028   6.473   3.525  19.191 -0.1376  0.0876  0.0738
 3278TIP3    H134029   6.545   3.468  19.220  0.4350  0.3831 -0.6997
 3278TIP3    H234030   6.433   3.557  19.271 -0.3563 -1.2554  0.5303
 3279TIP3   OH234031   3.745   3.452  18.719 -0.0791 -0.1371 -0.1427
 3279TIP3    H134032   3.671   3.491  18.673  0.8082  0.6775 -0.9432
 3279TIP3    H234033   3.729   3.357  18.714 -2.5955  0.0202  2.3813
 3280TIP3   OH234034   3.187   4.545  18.760 -0.6645 -0.2701 -0.0503
 3280TIP3    H134035   3.241   4.491  18.703  1.5597  1.2971  0.4387
 3280TIP3    H234036   3.217   4.634  18.744 -2.2118  0.5350  1.2486
 3281TIP3   OH234037   2.216   2.085  20.153  0.0267 -0.0302 -0.2784
 3281TIP3    H134038   2.276   2.050  20.086  0.7916  0.6595  0.0274
 3281TIP3    H234039   2.208   2.015  20.217  0.8165 -0.0091 -0.1380
 3282TIP3   OH234040   2.546   4.748  19.906  0.4020 -0.2546 -0.2620
 3282TIP3    H134041   2.583   4.666  19.870 -0.4812 -1.3954  1.3167
 3282TIP3    H234042   2.467   4.720  19.952 -0.9416  1.7704 -1.2064
 3283TIP3   OH234043   6.458   4.102  19.119 -0.0520  0.2297 -0.2363
 3283TIP3    H134044   6.505   4.170  19.167  1.0468  0.0287 -0.9720
 3283TIP3    H234045   6.374   4.093  19.164 -0.1055  1.8677  0.0386
 3284TIP3   OH234046   2.014   2.321  18.998  0.3251  0.0008 -0.1840
 3284TIP3    H134047   2.061   2.240  18.975  1.6496  0.1884  1.6376
 3284TIP3    H234048   1.997   2.313  19.091  0.8473  1.9978  0.1316
 3285TIP3   OH234049   3.685   4.073  18.602  0.4648  0.0097  0.1537
 3285TIP3    H134050   3.639   4.107  18.525  1.0095  0.4220  0.0005
 3285TIP3    H234051   3.690   3.979  18.588  0.2014  0.0374 -0.1247
 3286TIP3   OH234052   5.279   5.721  19.521 -0.2948  0.5785 -0.3394
 3286TIP3    H134053   5.346   5.674  19.571  0.7825  1.4590 -0.9001
 3286TIP3    H234054   5.242   5.655  19.463 -1.4332 -0.4180  1.4352
 3287TIP3   OH234055   3.637   3.532  18.040  0.5994 -0.4188  0.6360
 3287TIP3    H134056   3.551   3.532  18.082  0.1065  0.4996 -0.3286
 3287TIP3    H234057   3.688   3.594  18.092  0.2614  0.0622  0.3986
 3288TIP3   OH234058   2.451   4.964  19.226  0.0169 -0.1192 -0.2398
 3288TIP3    H134059   2.477   5.050  19.261 -0.2739 -0.2325  0.2605
 3288TIP3    H234060   2.396   4.985  19.151  0.8859  0.1252 -0.8244
 3289TIP3   OH234061   0.150   4.161  19.916  0.8093 -0.0673 -0.2051
 3289TIP3    H134062   0.179   4.158  20.007  0.5476 -0.3134 -0.1292
 3289TIP3    H234063   0.172   4.074  19.881  0.3686 -0.1832 -0.2052
 3290TIP3   OH234064   3.526   6.449  19.524  0.0824 -0.4970 -0.0768
 3290TIP3    H134065   3.506   6.526  19.578 -0.5787  0.6378 -1.8292
 3290TIP3    H234066   3.471   6.379  19.560 -0.2804  0.1983  0.7547
 3291TIP3   OH234067   2.242   4.882  18.669  0.6074 -0.1621 -0.6732
 3291TIP3    H134068   2.217   4.972  18.647  1.2598  0.1783 -0.0660
 3291TIP3    H234069   2.228   4.832  18.588  1.1820  0.6754 -1.3027
 3292TIP3   OH234070   2.985   5.803  18.664  0.3655  0.2207  0.4082
 3292TIP3    H134071   3.018   5.890  18.684 -0.0994  0.2932  0.8750
 3292TIP3    H234072   2.984   5.758  18.748  1.1415 -0.4289  0.0861
 3293TIP3   OH234073   3.970   2.939  20.089  0.4672 -0.1702  0.2783
 3293TIP3    H134074   4.061   2.935  20.060 -0.2699 -0.4479 -2.2127
 3293TIP3    H234075   3.960   2.863  20.146  1.5001 -0.8131 -0.3613
 3294TIP3   OH234076   4.745   5.420  18.773 -0.5051  0.0982 -0.0305
 3294TIP3    H134077   4.760   5.376  18.689 -1.6126 -2.0950  0.8341
 3294TIP3    H234078   4.650   5.436  18.774 -0.5491 -0.1634  0.8903
 3295TIP3   OH234079   0.677   6.185  19.905  0.4687  0.2130  0.0690
 3295TIP3    H134080   0.763   6.146  19.920 -0.0934 -1.1188 -0.0477
 3295TIP3    H234081   0.628   6.118  19.858 -1.6323 -0.3139  2.7406
 3296TIP3   OH234082   6.595   6.583  20.014  0.1598 -0.0614 -0.0813
 3296TIP3    H134083   6.550   6.507  20.050 -0.2543  0.4528  0.5310
 3296TIP3    H234084   6.552   6.599  19.930 -0.9216  0.4978  0.5531
 3297TIP3   OH234085   2.451   6.348  19.231 -0.0483 -0.0321 -0.2536
 3297TIP3    H134086   2.522   6.283  19.226  0.1000 -0.1696  2.2275
 3297TIP3    H234087   2.382   6.312  19.175  0.6121 -1.5695 -0.1349
 3298TIP3   OH234088   5.626   0.951  16.782  0.2521  0.3607  0.1958
 3298TIP3    H134089   5.697   0.991  16.833  1.2689 -2.0698  0.8164
 3298TIP3    H234090   5.611   0.867  16.824 -0.5185 -0.7351 -2.1271
 3299TIP3   OH234091   1.622   2.333  20.095  0.1405  0.3033  0.1557
 3299TIP3    H134092   1.589   2.355  20.182 -1.8886 -0.9009 -0.2393
 3299TIP3    H234093   1.675   2.254  20.109 -0.1987  0.1001  0.2987
 3300TIP3   OH234094   1.664   3.630  18.815  0.1641 -0.3646  0.2768
 3300TIP3    H134095   1.660   3.535  18.802 -1.7421  0.0551 -3.9683
 3300TIP3    H234096   1.576   3.654  18.842 -0.1679  0.3653 -1.3347
 3301TIP3   OH234097   3.648   2.195  18.183 -0.0028 -0.1865 -0.6671
 3301TIP3    H134098   3.663   2.284  18.150  1.0801  0.1190  0.5326
 3301TIP3    H234099   3.582   2.206  18.251 -3.0381 -0.9635 -3.2613
 3302TIP3   OH234100   1.956   4.700  18.673  0.1141 -0.2302  0.5526
 3302TIP3    H134101   1.924   4.790  18.659  0.7146 -0.1690 -0.5937
 3302TIP3    H234102   1.952   4.687  18.768 -2.7142 -0.0221  0.5247
 3303TIP3   OH234103   4.896   5.857  18.982  0.2912  0.1291 -0.1186
 3303TIP3    H134104   4.920   5.834  18.892 -0.1449 -0.1408 -0.1710
 3303TIP3    H234105   4.850   5.780  19.015  2.7612 -0.8490  1.2727
 3304TIP3   OH234106   4.136   5.544  19.916 -0.3507  0.0273 -0.0559
 3304TIP3    H134107   4.091   5.597  19.850 -0.6041 -1.0416 -0.7821
 3304TIP3    H234108   4.172   5.471  19.866  0.2538 -0.3164  0.8683
 3305TIP3   OH234109   1.303   1.143  18.628  0.0327 -0.4585 -0.1081
 3305TIP3    H134110   1.226   1.198  18.644  1.4938  1.6491  0.2369
 3305TIP3    H234111   1.359   1.157  18.705  1.1740 -1.1569 -0.7780
 3306TIP3   OH234112   3.731   3.775  18.070 -0.4669 -0.4694  0.0838
 3306TIP3    H134113   3.759   3.817  17.989 -1.2998  2.2632  1.0965
 3306TIP3    H234114   3.808   3.778  18.126 -1.3364  3.0496  1.3351
 3307TIP3   OH234115   3.102   1.368  17.971 -0.1180  0.1616 -0.4875
 3307TIP3    H134116   3.185   1.341  18.009 -0.1232 -0.3771 -0.8509
 3307TIP3    H234117   3.122   1.386  17.879 -0.6267 -1.1309 -0.8695
 3308TIP3   OH234118   5.960   5.053  17.722 -0.2750 -0.3880 -0.3820
 3308TIP3    H134119   6.042   5.060  17.674 -1.3463  0.5634 -2.1995
 3308TIP3    H234120   5.908   5.127  17.690 -0.7324  0.9447  3.0190
 3309TIP3   OH234121   3.401   1.669  18.826  0.5184 -0.2856  0.0849
 3309TIP3    H134122   3.323   1.632  18.785  0.6307 -0.1123 -0.2912
 3309TIP3    H234123   3.371   1.697  18.912  0.4169 -1.1861  0.3522
 3310TIP3   OH234124   0.383   0.444  18.849  0.1351  0.1962  0.4372
 3310TIP3    H134125   0.434   0.384  18.903  0.2884 -0.4445 -0.4132
 3310TIP3    H234126   0.428   0.528  18.858  0.7402 -0.1313  0.5208
 3311TIP3   OH234127   2.443   3.437  18.808 -0.2251 -0.5400  0.1293
 3311TIP3    H134128   2.459   3.346  18.835 -1.5747 -0.8423 -0.0222
 3311TIP3    H234129   2.349   3.448  18.816 -0.1528  0.6624 -0.4740
 3312TIP3   OH234130   5.236   3.867  17.320 -0.0929 -0.1801  0.2220
 3312TIP3    H134131   5.227   3.910  17.235 -1.2547 -1.1457 -0.1606
 3312TIP3    H234132   5.176   3.914  17.378 -2.0514 -1.7653 -0.4172
 3313TIP3   OH234133   5.646   2.264  17.619 -0.4300 -0.0709 -0.5419
 3313TIP3    H134134   5.584   2.253  17.547  3.2514 -0.0659 -4.0852
 3313TIP3    H234135   5.635   2.355  17.646 -4.7718 -1.1060  2.1683
 3314TIP3   OH234136   3.831   6.362  20.190  0.3348  0.3381  0.1789
 3314TIP3    H134137   3.872   6.289  20.144  2.7128  1.5407  0.1800
 3314TIP3    H234138   3.742   6.366  20.156  0.4457 -1.9506 -0.4955
 3315TIP3   OH234139   6.265   0.366  19.577 -0.3949  0.6550  0.3017
 3315TIP3    H134140   6.217   0.447  19.561  0.4873  1.9069  3.2885
 3315TIP3    H234141   6.206   0.315  19.633  0.3168  0.6462  1.0541
 3316TIP3   OH234142   2.278   4.041  18.198 -0.0411  0.1079 -0.1087
 3316TIP3    H134143   2.268   4.083  18.113  1.7190 -0.3400 -0.5781
 3316TIP3    H234144   2.361   3.993  18.192 -0.0965 -0.3014  1.7051
 3317TIP3   OH234145   2.303   3.948  17.801  0.1543  0.8505 -0.5463
 3317TIP3    H134146   2.247   3.967  17.726 -0.6551  0.8281  0.0321
 3317TIP3    H234147   2.346   4.031  17.821  0.2275  0.9011 -0.9128
 3318TIP3   OH234148   5.933   0.351  17.481  0.3535  0.2481  0.4115
 3318TIP3    H134149   6.016   0.308  17.461 -0.3674 -1.3400  0.6893
 3318TIP3    H234150   5.953   0.412  17.552  1.8529  2.0836 -1.4542
 3319TIP3   OH234151   3.915   3.020  17.601  0.2695 -0.2504 -0.2632
 3319TIP3    H134152   3.902   3.091  17.665 -2.6096 -1.1638  0.3003
 3319TIP3    H234153   3.827   2.992  17.578  1.2862 -3.2951 -0.9123
 3320TIP3   OH234154   0.983   3.194  18.429 -0.4453  0.6300 -0.1683
 3320TIP3    H134155   0.902   3.160  18.391 -1.5152  1.0891  1.5711
 3320TIP3    H234156   1.011   3.126  18.491 -0.0810  0.9195 -0.0111
 3321TIP3   OH234157   1.305   3.314  18.129 -0.1888  0.0532  0.3191
 3321TIP3    H134158   1.236   3.318  18.063  0.0477  0.0421  0.0752
 3321TIP3    H234159   1.279   3.380  18.194 -0.4884 -0.0277  0.2858
 3322TIP3   OH234160   0.636   1.263  19.278 -0.3577 -0.1280  0.0370
 3322TIP3    H134161   0.673   1.221  19.355  0.0084 -0.1698 -0.1587
 3322TIP3    H234162   0.541   1.264  19.294 -0.3587 -0.8761  0.1184
 3323TIP3   OH234163   2.458   3.292  19.634 -0.1404 -0.4223  0.1806
 3323TIP3    H134164   2.532   3.350  19.650 -0.2123 -1.0110  3.0828
 3323TIP3    H234165   2.477   3.252  19.549  0.3891  3.0073 -1.5100
 3324TIP3   OH234166   6.515   2.768  20.402  0.0689  0.3058 -0.3233
 3324TIP3    H134167   6.514   2.856  20.366 -0.0974  0.4618  0.0636
 3324TIP3    H234168   6.431   2.730  20.376  0.0098  0.3691 -0.2255
 3325TIP3   OH234169   3.547   0.642  17.260 -0.5251 -0.1108  0.1320
 3325TIP3    H134170   3.634   0.632  17.221 -0.5471 -0.1536  0.0935
 3325TIP3    H234171   3.554   0.598  17.345 -0.8825 -1.2854 -0.4175
 3326TIP3   OH234172   3.898   0.103  19.425 -0.4737  0.0087  0.0450
 3326TIP3    H134173   3.818   0.134  19.466 -0.6410 -0.1876 -0.1291
 3326TIP3    H234174   3.966   0.164  19.454 -0.3387 -0.8254  1.5981
 3327TIP3   OH234175   5.731   0.564  18.638  0.4360 -0.2980 -1.0840
 3327TIP3    H134176   5.760   0.563  18.547 -1.6735 -0.4513 -1.8012
 3327TIP3    H234177   5.659   0.501  18.642 -0.5548  0.8362  0.3177
 3328TIP3   OH234178   3.040   3.979  18.821 -0.3156 -0.2598  0.0990
 3328TIP3    H134179   2.988   4.009  18.747 -0.3300  0.6728  0.4692
 3328TIP3    H234180   3.126   4.020  18.807 -0.1291 -0.5924  0.2665
 3329TIP3   OH234181   6.566   6.149  17.047 -0.0385  0.1346 -0.7544
 3329TIP3    H134182   6.529   6.177  16.963 -0.5320  0.6123 -0.3858
 3329TIP3    H234183   6.591   6.231  17.090 -0.7369 -0.0323 -0.0022
 3330TIP3   OH234184   0.872   5.882  18.088 -0.3078  0.1200  0.4282
 3330TIP3    H134185   0.903   5.852  18.173 -0.7903 -0.2935  0.4662
 3330TIP3    H234186   0.794   5.829  18.071  0.2357 -0.3745 -0.6290
 3331TIP3   OH234187   2.879   5.107  17.306 -0.3423 -0.0132 -0.1364
 3331TIP3    H134188   2.912   5.195  17.292 -0.8385  0.2051  0.0287
 3331TIP3    H234189   2.817   5.092  17.234  0.1358 -0.4299 -0.4686
 3332TIP3   OH234190   6.513   6.344  19.642 -0.1037 -0.3068 -0.8376
 3332TIP3    H134191   6.588   6.396  19.671  0.2898 -1.2625 -0.0690
 3332TIP3    H234192   6.535   6.320  19.552 -0.0093  0.3344 -0.9928
 3333TIP3   OH234193   4.911   1.515  20.112 -0.6522 -0.2269  0.4922
 3333TIP3    H134194   4.845   1.582  20.098  0.9700  1.6447  1.2189
 3333TIP3    H234195   4.982   1.538  20.051 -0.3421 -1.7302  0.2462
 3334TIP3   OH234196   6.417   5.995  17.635  1.0152  0.1016  0.2084
 3334TIP3    H134197   6.383   6.025  17.550  0.7792 -1.8791 -0.4486
 3334TIP3    H234198   6.504   6.035  17.640  0.7310  0.8735 -0.6064
 3335TIP3   OH234199   2.531   3.191  18.880 -0.3287  0.6245 -0.0400
 3335TIP3    H134200   2.619   3.153  18.872 -0.4015  0.5947 -0.7094
 3335TIP3    H234201   2.484   3.159  18.804 -0.4905  1.7965 -0.4500
 3336TIP3   OH234202   3.005   2.235  17.881 -0.3453  0.1544 -0.0571
 3336TIP3    H134203   2.985   2.308  17.939  0.9297  0.6147 -0.1488
 3336TIP3    H234204   2.961   2.256  17.799 -0.6721  0.4073  0.1815
 3337TIP3   OH234205   4.612   4.951  19.090  0.9846 -0.0124 -0.2218
 3337TIP3    H134206   4.706   4.961  19.107  0.9835  1.0098 -0.7612
 3337TIP3    H234207   4.584   5.037  19.058 -0.5128  0.2415  1.6386
 3338TIP3   OH234208   3.075   1.574  18.401  0.3605  0.0055 -0.0872
 3338TIP3    H134209   3.009   1.636  18.370 -0.0857 -0.6704 -0.5075
 3338TIP3    H234210   3.153   1.627  18.414 -0.3297  0.8624  0.6545
 3339TIP3   OH234211   5.032   1.765  17.909  0.2319  0.1780 -0.0060
 3339TIP3    H134212   5.114   1.725  17.936  1.0999  1.8324 -0.0311
 3339TIP3    H234213   4.971   1.745  17.980  0.7437 -0.7858  0.1776
 3340TIP3   OH234214   2.181   6.620  18.828 -0.4786 -0.1858 -0.1702
 3340TIP3    H134215   2.240   6.560  18.874  0.0597  0.4908  0.0198
 3340TIP3    H234216   2.192   6.597  18.736  1.3250  1.0256 -0.2940
 3341TIP3   OH234217   3.179   4.093  19.452  0.2805  0.3121  0.3354
 3341TIP3    H134218   3.153   4.184  19.470 -0.2664  0.3277 -0.4822
 3341TIP3    H234219   3.263   4.083  19.496 -0.4070  0.7163  1.8283
 3342TIP3   OH234220   1.648   3.027  19.791  0.0043  0.3295  0.4077
 3342TIP3    H134221   1.560   3.066  19.790  0.3372  1.2526  2.1690
 3342TIP3    H234222   1.707   3.102  19.788  0.8280 -0.3357 -2.4205
 3343TIP3   OH234223   3.532   3.291  18.230  0.7445  0.5218 -0.2821
 3343TIP3    H134224   3.468   3.363  18.228 -0.3263 -0.1261  3.3799
 3343TIP3    H234225   3.617   3.335  18.230  0.2645  1.5534 -1.9343
 3344TIP3   OH234226   4.537   0.758  19.682  0.0436  0.7384  0.1924
 3344TIP3    H134227   4.631   0.759  19.701  0.0298 -0.2186  0.3420
 3344TIP3    H234228   4.500   0.825  19.740  0.3429 -0.3634  1.6966
 3345TIP3   OH234229   6.615   1.096  19.474  0.2791  0.5476 -0.3314
 3345TIP3    H134230   6.655   1.156  19.411 -0.4159  0.7582 -0.5749
 3345TIP3    H234231   6.596   1.150  19.551  1.2012  0.2740  0.1079
 3346TIP3   OH234232   6.667   5.699  19.523 -0.3641  0.3711  0.0364
 3346TIP3    H134233   6.579   5.682  19.491  0.0573 -4.0095  0.5631
 3346TIP3    H234234   6.725   5.662  19.456  1.0695  2.0803  0.2542
 3347TIP3   OH234235   0.849   5.073  17.797  0.3332 -0.1521 -0.5714
 3347TIP3    H134236   0.824   5.017  17.871 -1.3384  0.6877 -0.4554
 3347TIP3    H234237   0.811   5.030  17.721  0.9635 -0.3348 -0.7887
 3348TIP3   OH234238   1.397   4.110  17.550 -0.0019 -0.4693 -0.1523
 3348TIP3    H134239   1.441   4.155  17.478  0.4462 -1.2727 -0.4023
 3348TIP3    H234240   1.306   4.136  17.544  0.6301  2.4328  1.2752
 3349TIP3   OH234241   1.722   2.619  16.791 -0.0753 -0.2014 -0.3948
 3349TIP3    H134242   1.753   2.697  16.745  1.0930 -0.4178 -0.0188
 3349TIP3    H234243   1.706   2.555  16.722  3.7298 -1.2654 -0.5331
 3350TIP3   OH234244   3.252   3.837  20.272 -0.1067  0.2176  0.7502
 3350TIP3    H134245   3.230   3.747  20.294 -0.0591 -0.1458 -0.6369
 3350TIP3    H234246   3.169   3.885  20.281 -0.2745 -0.0870  0.8319
 3351TIP3   OH234247   1.322   1.179  19.130 -0.4051 -0.4425 -0.6384
 3351TIP3    H134248   1.284   1.165  19.043 -3.6033  0.9150  0.3832
 3351TIP3    H234249   1.389   1.245  19.117 -0.0042 -1.1168 -2.2146
 3352TIP3   OH234250   3.630   3.886  19.637  0.5421 -0.2505  0.1297
 3352TIP3    H134251   3.710   3.900  19.687  0.2885 -1.4760  0.9353
 3352TIP3    H234252   3.636   3.795  19.607  1.0603  0.6406 -2.8197
 3353TIP3   OH234253   4.498   6.486  18.053  0.9681  0.6874 -0.2310
 3353TIP3    H134254   4.434   6.477  18.124 -0.2155 -0.1747 -1.3470
 3353TIP3    H234255   4.461   6.553  17.995  1.8939  1.3505 -0.0689
 3354TIP3   OH234256   4.546   4.189  17.472  0.1293 -0.1032  0.1110
 3354TIP3    H134257   4.482   4.131  17.431  1.9566 -1.1257 -1.4416
 3354TIP3    H234258   4.536   4.272  17.426 -0.4576 -0.0707  0.2877
 3355TIP3   OH234259   5.270   4.747  19.470 -0.7203  0.6722  0.0837
 3355TIP3    H134260   5.355   4.730  19.430  0.9896  1.7710  2.9893
 3355TIP3    H234261   5.285   4.819  19.531 -4.1919  2.2142 -0.6085
 3356TIP3   OH234262   0.005   4.407  18.519  0.2577  0.2583  0.2490
 3356TIP3    H134263  -0.061   4.423  18.451  0.1621 -0.4636  0.1634
 3356TIP3    H234264   0.027   4.314  18.510 -0.5126 -0.1123  1.8677
 3357TIP3   OH234265   3.143   2.708  19.263 -0.1296  0.2615 -0.3326
 3357TIP3    H134266   3.118   2.625  19.304  1.1273 -0.3597 -0.7708
 3357TIP3    H234267   3.094   2.710  19.181 -1.5859  0.8569  0.5084
 3358TIP3   OH234268   2.965   5.175  18.866 -0.0945 -0.1963  0.9203
 3358TIP3    H134269   2.880   5.147  18.834  0.2120  0.1078 -0.2151
 3358TIP3    H234270   3.022   5.098  18.856 -0.2936 -0.4990  1.9765
 3359TIP3   OH234271   5.715   1.879  19.926 -0.4499 -0.5842  0.4835
 3359TIP3    H134272   5.803   1.898  19.961 -0.5838  4.1546 -1.0387
 3359TIP3    H234273   5.731   1.816  19.856  1.6013 -0.5899  0.8715
 3360TIP3   OH234274   4.070   3.876  17.577 -0.1352 -0.8714  0.3358
 3360TIP3    H134275   3.978   3.873  17.604 -1.1482 -2.2533 -2.7851
 3360TIP3    H234276   4.105   3.954  17.620 -2.6075 -0.5884  2.0479
 3361TIP3   OH234277   2.690   2.917  19.480 -0.6040  0.2951 -0.0318
 3361TIP3    H134278   2.779   2.913  19.445 -0.3483  2.2714  0.2842
 3361TIP3    H234279   2.702   2.911  19.575 -0.7808  0.8457  0.0259
 3362TIP3   OH234280   0.018   6.169  16.608  0.5378 -0.3677  0.6999
 3362TIP3    H134281  -0.055   6.230  16.600 -0.4618 -1.5429  0.6346
 3362TIP3    H234282   0.068   6.201  16.683 -1.2677 -0.7620  2.1411
 3363TIP3   OH234283   2.178   3.206  17.241  0.2350 -0.3127  0.3557
 3363TIP3    H134284   2.108   3.156  17.283  1.2655 -0.9474  1.3635
 3363TIP3    H234285   2.137   3.242  17.162 -0.9359 -1.5403  0.3612
 3364TIP3   OH234286   6.373   1.217  19.860  0.3423  0.5557  0.4299
 3364TIP3    H134287   6.371   1.188  19.951  0.3990  2.2571  1.0113
 3364TIP3    H234288   6.299   1.278  19.853 -0.8419 -0.9571 -1.2007
 3365TIP3   OH234289   5.456   4.553  20.309  0.0809  0.2567  0.0442
 3365TIP3    H134290   5.542   4.529  20.344  0.2829 -0.6702 -1.0385
 3365TIP3    H234291   5.406   4.583  20.386  1.3961  0.9414  0.6616
 3366TIP3   OH234292   2.450   3.615  18.419 -0.1030 -0.0425  0.2119
 3366TIP3    H134293   2.495   3.646  18.498  0.9706  1.9374 -1.1051
 3366TIP3    H234294   2.500   3.652  18.346 -2.8136  0.8482 -1.3587
 3367TIP3   OH234295   2.759   5.150  20.362  0.2080 -0.0611 -0.0710
 3367TIP3    H134296   2.748   5.056  20.374  0.6733 -0.0406  0.5070
 3367TIP3    H234297   2.842   5.171  20.404  0.1737  0.5908 -0.3099
 3368TIP3   OH234298   5.136   3.488  18.914 -0.2940 -0.3277 -0.1598
 3368TIP3    H134299   5.132   3.578  18.945 -0.9167  0.2619 -1.8523
 3368TIP3    H234300   5.228   3.476  18.889 -0.2617 -0.1016 -0.1512
 3369TIP3   OH234301   5.836   5.357  18.883  0.2555  0.2295 -0.4102
 3369TIP3    H134302   5.775   5.308  18.938  0.2060  1.9942  1.2125
 3369TIP3    H234303   5.923   5.329  18.914  0.2837 -0.6547 -1.2264
 3370TIP3   OH234304   4.258   4.116  16.808 -0.1128 -0.0306  0.4842
 3370TIP3    H134305   4.322   4.166  16.757 -1.3108  0.0441 -1.0610
 3370TIP3    H234306   4.251   4.033  16.762 -1.2559  0.0460  0.4704
 3371TIP3   OH234307   0.425   5.880  18.829  0.2085 -0.4638  0.6819
 3371TIP3    H134308   0.461   5.862  18.916  1.2343  0.2467  0.4291
 3371TIP3    H234309   0.406   5.974  18.830  0.0799 -0.4798  0.1998
 3372TIP3   OH234310   6.128   0.548  18.257 -0.1853 -0.6264 -0.1013
 3372TIP3    H134311   6.161   0.512  18.340  1.2342  2.8424  1.0305
 3372TIP3    H234312   6.064   0.615  18.284  1.6425  1.8853 -1.5821
 3373TIP3   OH234313   1.431   0.226  19.501 -0.0397  0.0321 -0.3084
 3373TIP3    H134314   1.338   0.247  19.506 -0.0207  0.2608 -0.8535
 3373TIP3    H234315   1.447   0.208  19.408  0.2952 -0.7772 -0.1049
 3374TIP3   OH234316   2.053   2.042  17.746 -0.4547 -0.6008 -0.4013
 3374TIP3    H134317   2.132   1.989  17.756  0.6497  1.1650  0.9640
 3374TIP3    H234318   2.020   2.054  17.835 -1.5461 -0.2609 -0.8253
 3375TIP3   OH234319   5.834   5.019  17.253  0.8087 -0.3255  0.3916
 3375TIP3    H134320   5.837   5.031  17.158  2.7818 -0.6320  0.3632
 3375TIP3    H234321   5.861   5.104  17.289 -0.0764 -0.1661  0.6951
 3376TIP3   OH234322   2.669   4.898  16.864 -0.4972  0.2713  0.1893
 3376TIP3    H134323   2.707   4.934  16.783 -1.0047 -1.9995 -1.1326
 3376TIP3    H234324   2.690   4.805  16.861 -1.2386 -0.0140  2.3099
 3377TIP3   OH234325   0.854   4.089  17.496 -0.3235 -0.2595 -0.2922
 3377TIP3    H134326   0.890   4.178  17.491  2.0143 -1.1081  0.2375
 3377TIP3    H234327   0.767   4.100  17.535  0.5781  1.6484  1.3270
 3378TIP3   OH234328   5.219   6.514  19.542  0.0119 -0.0449  0.1111
 3378TIP3    H134329   5.225   6.500  19.448 -1.3265  0.4161 -0.0650
 3378TIP3    H234330   5.162   6.443  19.573 -0.1228  0.2162  0.4694
 3379TIP3   OH234331   1.201   1.035  18.395 -0.3932  0.0451  0.1862
 3379TIP3    H134332   1.234   1.069  18.478 -1.8505  0.3646  0.6612
 3379TIP3    H234333   1.272   1.050  18.333  0.6829 -0.1123  1.3443
 3380TIP3   OH234334   2.724   5.519  16.803 -0.4899  0.2698 -0.0861
 3380TIP3    H134335   2.772   5.599  16.826 -2.2077  0.8890  1.5424
 3380TIP3    H234336   2.634   5.536  16.831 -0.5622 -2.9604  2.1467
 3381TIP3   OH234337   0.027   1.306  18.722  0.4701 -0.1329 -0.0697
 3381TIP3    H134338   0.056   1.225  18.763  2.5082  0.9781  0.8473
 3381TIP3    H234339  -0.022   1.352  18.790 -0.3964 -0.4170 -0.4848
 3382TIP3   OH234340   1.265   3.932  17.815 -0.1564 -0.5441 -0.1479
 3382TIP3    H134341   1.311   3.883  17.747 -0.6684 -0.1116 -0.8219
 3382TIP3    H234342   1.242   3.866  17.880  3.1640 -0.4826  1.2540
 3383TIP3   OH234343   6.574   0.414  17.708 -0.3846  0.0288  0.1513
 3383TIP3    H134344   6.538   0.348  17.767 -0.5729  0.3064  0.3434
 3383TIP3    H234345   6.645   0.368  17.662 -0.3669 -0.2410  0.4477
 3384TIP3   OH234346   0.887   0.522  18.017  0.2146 -0.0164  0.0769
 3384TIP3    H134347   0.935   0.584  17.962 -0.5172  1.1346  0.7010
 3384TIP3    H234348   0.955   0.463  18.051  0.7566 -0.3851 -1.5445
 3385TIP3   OH234349   4.287   2.038  16.776 -0.7185 -0.2092 -0.6425
 3385TIP3    H134350   4.318   1.964  16.828 -1.0096 -0.2716 -0.5569
 3385TIP3    H234351   4.362   2.098  16.772 -0.2418 -0.8323 -1.3187
 3386TIP3   OH234352   0.937   4.699  19.522  0.7085  0.2022 -0.7873
 3386TIP3    H134353   0.985   4.772  19.561 -1.1231  1.1866 -0.2680
 3386TIP3    H234354   0.980   4.621  19.557  0.4360  1.0503  1.6416
 3387TIP3   OH234355   6.689   3.355  18.900 -0.1408 -0.0889 -0.1502
 3387TIP3    H134356   6.754   3.340  18.832  0.9620  1.0275  0.6200
 3387TIP3    H234357   6.740   3.359  18.981 -1.2111  0.5199  0.5047
 3388TIP3   OH234358   4.385   6.220  18.005 -0.3759 -0.0957 -0.0082
 3388TIP3    H134359   4.439   6.294  18.032 -0.0818  0.3654 -1.7663
 3388TIP3    H234360   4.446   6.146  18.003  0.1242  0.3311 -1.5442
 3389TIP3   OH234361   2.132   6.634  19.184  0.5357  0.4211 -0.3411
 3389TIP3    H134362   2.093   6.550  19.158  0.6644  0.2291  0.0648
 3389TIP3    H234363   2.070   6.669  19.249  0.9759  0.1641  0.2283
 3390TIP3   OH234364   5.106   1.541  18.102  0.1486 -0.3346 -0.2490
 3390TIP3    H134365   5.135   1.544  18.193 -1.0178 -1.0311  0.1613
 3390TIP3    H234366   5.147   1.463  18.066 -0.7979 -1.0543  0.1970
 3391TIP3   OH234367   3.522   2.430  18.045 -0.0608  0.1674 -0.3381
 3391TIP3    H134368   3.536   2.523  18.032 -0.7554  0.3305  0.0322
 3391TIP3    H234369   3.547   2.390  17.962  0.1964  0.6863 -0.5136
 3392TIP3   OH234370   0.932   3.068  19.585  0.4868 -0.5019 -0.2179
 3392TIP3    H134371   1.023   3.055  19.609  0.6450 -0.1845 -0.6349
 3392TIP3    H234372   0.885   2.995  19.627  1.0422 -1.1445 -0.7020
 3393TIP3   OH234373   2.673   2.523  19.191  0.0004  0.2842  0.0272
 3393TIP3    H134374   2.719   2.476  19.260  1.5199  1.6108 -0.0343
 3393TIP3    H234375   2.637   2.601  19.233 -0.3187  0.3708 -0.3867
 3394TIP3   OH234376   1.874   2.533  18.359 -0.9035 -0.0407  0.1832
 3394TIP3    H134377   1.834   2.596  18.299 -1.1068 -0.8343 -0.5332
 3394TIP3    H234378   1.822   2.540  18.439 -2.7176 -1.2481 -0.8168
 3395TIP3   OH234379   3.786   4.558  17.361 -0.2266  0.2633 -0.6289
 3395TIP3    H134380   3.738   4.476  17.350 -0.0218 -0.0128  0.3853
 3395TIP3    H234381   3.728   4.612  17.415 -0.4374  0.8631 -1.4395
 3396TIP3   OH234382   0.707   4.348  17.152  0.3064  0.3903 -0.6641
 3396TIP3    H134383   0.765   4.294  17.098 -0.1931 -0.7812 -0.0671
 3396TIP3    H234384   0.619   4.331  17.118  0.0856  0.4112 -0.1209
 3397TIP3   OH234385   6.264   1.290  18.020 -0.5570  0.3255 -0.2412
 3397TIP3    H134386   6.304   1.377  18.021  2.2102 -0.8245 -1.0767
 3397TIP3    H234387   6.216   1.285  18.103  1.2056  1.7923  0.9485
 3398TIP3   OH234388   1.507   6.152  19.628 -0.3704 -0.5445  0.2268
 3398TIP3    H134389   1.550   6.083  19.577 -3.0531 -1.1604 -1.4012
 3398TIP3    H234390   1.511   6.120  19.719 -0.3484 -2.2175 -0.3143
 3399TIP3   OH234391   6.329   3.556  18.099 -0.3472 -0.0307  0.7212
 3399TIP3    H134392   6.358   3.633  18.051  0.4210  0.0505  1.2818
 3399TIP3    H234393   6.411   3.514  18.128 -0.7162 -1.4992 -0.2423
 3400TIP3   OH234394   1.744   0.232  17.487 -0.1584  0.3781 -0.2048
 3400TIP3    H134395   1.836   0.209  17.497 -0.0911  0.7984  0.1743
 3400TIP3    H234396   1.737   0.321  17.520 -0.8943 -0.0139  0.7735
 3401TIP3   OH234397   3.471   2.588  17.137  0.0222  0.2730 -0.3213
 3401TIP3    H134398   3.397   2.591  17.077  1.2217  1.0539 -1.8453
 3401TIP3    H234399   3.446   2.646  17.209 -1.6048 -0.9781  0.1807
 3402TIP3   OH234400   3.871   6.150  19.974 -0.3711  0.4365  0.3560
 3402TIP3    H134401   3.799   6.188  19.923 -1.9499 -2.2448  0.4329
 3402TIP3    H234402   3.855   6.056  19.973  2.4881 -0.1764  1.4489
 3403TIP3   OH234403   4.755   0.135  19.575 -0.3007  0.2403 -0.1211
 3403TIP3    H134404   4.804   0.211  19.543 -0.3871  0.6309  0.6416
 3403TIP3    H234405   4.821   0.083  19.621 -0.4179  0.3143  0.1326
 3404TIP3   OH234406   5.885   6.066  17.615  0.2480  0.6366  0.8784
 3404TIP3    H134407   5.926   6.055  17.529  1.4076  0.4451  1.4321
 3404TIP3    H234408   5.824   5.993  17.622  0.2430  0.5752  0.2681
 3405TIP3   OH234409   5.328   1.915  17.849 -0.6628 -0.5389  0.2376
 3405TIP3    H134410   5.322   1.821  17.861 -1.2270 -0.4990  0.3042
 3405TIP3    H234411   5.411   1.929  17.803  0.3858 -0.9081  1.9224
 3406TIP3   OH234412   6.713   0.865  19.214 -0.1439  0.2177 -0.0097
 3406TIP3    H134413   6.631   0.859  19.264 -0.3724 -0.5973 -0.4660
 3406TIP3    H234414   6.686   0.902  19.130  0.0976  0.7399  0.1399
 3407TIP3   OH234415   0.184   4.003  18.178 -0.0254  0.5680 -0.0715
 3407TIP3    H134416   0.108   3.952  18.151  0.7832 -0.6951 -0.0240
 3407TIP3    H234417   0.197   4.066  18.107  0.0063 -0.4463 -0.9852
 3408TIP3   OH234418   1.211   1.959  19.101  0.1815 -0.0387 -0.2351
 3408TIP3    H134419   1.178   1.976  19.190  0.4430  1.2134 -0.3588
 3408TIP3    H234420   1.148   2.000  19.043 -0.1961 -1.1902 -0.6733
 3409TIP3   OH234421   6.343   4.867  17.502 -0.0100 -0.1124  0.3593
 3409TIP3    H134422   6.275   4.934  17.499 -1.6981 -1.7765 -0.4974
 3409TIP3    H234423   6.346   4.840  17.594 -1.2648 -0.7277  0.2392
 3410TIP3   OH234424   0.992   3.068  20.057 -0.0675  0.3856 -0.2257
 3410TIP3    H134425   0.909   3.064  20.009 -0.2441 -0.2555  0.1200
 3410TIP3    H234426   1.001   2.982  20.097  0.1165  0.8812  0.8399
 3411TIP3   OH234427   4.868   1.738  19.894 -0.4415  0.6365  0.3934
 3411TIP3    H134428   4.786   1.782  19.918 -0.9513 -0.3301  0.4784
 3411TIP3    H234429   4.894   1.780  19.812 -0.3405  1.8160  1.0006
 3412TIP3   OH234430   0.742   2.405  19.525  0.1170 -0.0956 -0.0324
 3412TIP3    H134431   0.732   2.324  19.575 -1.0601  0.3327  0.4680
 3412TIP3    H234432   0.768   2.471  19.590 -2.0726  0.6123  0.2224
 3413TIP3   OH234433   5.995   5.920  18.331  0.7135  0.1337 -0.4822
 3413TIP3    H134434   5.999   5.920  18.235 -0.1029 -0.0440 -0.5235
 3413TIP3    H234435   5.912   5.877  18.351  1.5475 -1.1570  0.3378
 3414TIP3   OH234436   0.988   6.498  19.722 -0.5554  0.3277  0.1688
 3414TIP3    H134437   0.933   6.521  19.797 -3.8533 -2.2319 -1.1743
 3414TIP3    H234438   0.966   6.563  19.655 -0.7723  0.2127  0.1277
 3415TIP3   OH234439   4.914   4.946  20.204  0.3430  0.1185 -0.3127
 3415TIP3    H134440   4.890   5.037  20.220 -0.6171  0.2175 -2.0789
 3415TIP3    H234441   4.899   4.902  20.288 -1.8309  1.0657 -0.1538
 3416TIP3   OH234442   5.277   5.361  20.159  0.2044  0.1589  0.3951
 3416TIP3    H134443   5.269   5.266  20.153  1.6677 -0.0135  0.6740
 3416TIP3    H234444   5.235   5.384  20.242 -2.5972  0.1386 -0.9268
 3417TIP3   OH234445   0.374   0.011  20.254 -0.1940 -0.0935 -0.2913
 3417TIP3    H134446   0.308   0.062  20.300  1.2717  0.1994  1.6388
 3417TIP3    H234447   0.453   0.064  20.259  0.5537 -1.0688 -1.2400
 3418TIP3   OH234448   4.518   2.300  18.577  0.0811 -0.1991 -0.6997
 3418TIP3    H134449   4.539   2.212  18.608 -0.4711  0.5250  1.9887
 3418TIP3    H234450   4.598   2.330  18.533  0.7216 -1.5706 -0.5051
 3419TIP3   OH234451   5.562   0.709  20.175  0.6190 -0.1314 -0.4176
 3419TIP3    H134452   5.530   0.631  20.131 -1.8146 -1.0195  2.5477
 3419TIP3    H234453   5.506   0.780  20.144 -1.0742 -0.7488  1.0829
 3420TIP3   OH234454   1.737   5.332  17.338 -0.2923  0.3187 -0.0016
 3420TIP3    H134455   1.736   5.349  17.244  1.9594 -1.2897 -0.3894
 3420TIP3    H234456   1.744   5.419  17.378  0.0484  0.9440 -1.3713
 3421TIP3   OH234457   1.295   4.266  16.594 -0.1843  0.0962  0.3448
 3421TIP3    H134458   1.377   4.314  16.582 -1.0009  1.7071  0.9418
 3421TIP3    H234459   1.231   4.333  16.618 -1.5022 -1.2339  0.6992
 3422TIP3   OH234460   3.761   5.368  18.006 -0.0270 -0.1207 -0.7073
 3422TIP3    H134461   3.754   5.429  18.079  1.3399 -0.9265  0.1455
 3422TIP3    H234462   3.853   5.340  18.007  0.2030  0.4024 -3.2114
 3423TIP3   OH234463   5.256   1.928  18.537  0.0456 -0.5219 -0.4304
 3423TIP3    H134464   5.244   1.851  18.594  2.0901 -1.4795 -1.1975
 3423TIP3    H234465   5.200   1.911  18.461  0.6563 -1.3887 -0.6990
 3424TIP3   OH234466   6.020   6.573  18.490 -0.0819 -0.3105  0.2612
 3424TIP3    H134467   6.018   6.655  18.537 -1.6848 -0.8727  1.2369
 3424TIP3    H234468   5.937   6.531  18.510 -0.0429 -1.4107 -1.5956
 3425TIP3   OH234469   2.838   1.142  18.404  0.4906  0.1650  0.4246
 3425TIP3    H134470   2.784   1.202  18.352  1.7942 -1.0788 -2.6086
 3425TIP3    H234471   2.791   1.059  18.401  0.6789  0.0265  1.1269
 3426TIP3   OH234472   3.083   2.161  18.521 -0.2874 -0.2328  0.2355
 3426TIP3    H134473   3.178   2.173  18.513 -0.0373 -0.9541  1.6497
 3426TIP3    H234474   3.059   2.107  18.446  0.3649  0.2218 -0.3122
 3427TIP3   OH234475   1.706   5.122  18.574  0.2053  0.2505 -0.0911
 3427TIP3    H134476   1.631   5.073  18.541  0.4299  0.5743 -1.1158
 3427TIP3    H234477   1.697   5.209  18.534  0.6856  0.5444  0.4246
 3428TIP3   OH234478   1.756   2.227  17.076  0.2844 -0.4590 -0.1421
 3428TIP3    H134479   1.768   2.303  17.133  1.9961 -0.6541 -0.1969
 3428TIP3    H234480   1.834   2.173  17.091  0.6864 -0.6347 -2.5129
 3429TIP3   OH234481   3.457   4.457  17.116  0.3735  0.5245  0.0863
 3429TIP3    H134482   3.495   4.386  17.168 -0.6353  0.6859  1.0934
 3429TIP3    H234483   3.366   4.430  17.102  0.6500  0.4369 -1.7194
 3430TIP3   OH234484   6.479   3.154  18.846  0.6649  0.2274  0.5479
 3430TIP3    H134485   6.540   3.182  18.778 -0.3336 -1.4463 -1.1310
 3430TIP3    H234486   6.521   3.180  18.928  1.8467  2.4508 -0.6615
 3431TIP3   OH234487   2.395   1.354  18.760 -0.2318  0.0814  0.2892
 3431TIP3    H134488   2.389   1.429  18.819 -0.9750 -0.5320  1.0347
 3431TIP3    H234489   2.474   1.308  18.788  0.3740  0.7248 -0.3472
 3432TIP3   OH234490   3.773   0.923  18.316 -0.3813 -0.6321 -0.1151
 3432TIP3    H134491   3.811   0.894  18.232 -0.3895 -1.8484  0.2782
 3432TIP3    H234492   3.701   0.981  18.291  0.8382  0.6170 -0.9094
 3433TIP3   OH234493   4.378   5.147  19.494  0.2813  0.0608 -0.2427
 3433TIP3    H134494   4.315   5.152  19.565  1.4709 -2.8768  1.1838
 3433TIP3    H234495   4.325   5.149  19.414 -1.2265  1.6722  0.7287
 3434TIP3   OH234496   0.623   3.081  17.847  0.0319  0.3585  0.2545
 3434TIP3    H134497   0.536   3.081  17.886  0.1271 -1.1628  0.5540
 3434TIP3    H234498   0.609   3.059  17.755  0.1625 -1.3084  0.5987
 3435TIP3   OH234499   3.249   1.643  19.446  0.1435  0.2844 -0.0268
 3435TIP3    H134500   3.325   1.604  19.402  0.8892 -0.0536  1.4851
 3435TIP3    H234501   3.174   1.602  19.403  0.8534 -0.5533 -0.5178
 3436TIP3   OH234502   5.825   2.042  18.213  0.3400  0.1985 -0.0777
 3436TIP3    H134503   5.890   1.975  18.189  0.5757  0.1406  0.6951
 3436TIP3    H234504   5.875   2.105  18.265 -0.3345 -0.1445  1.0138
 3437TIP3   OH234505   5.569   6.339  20.049 -0.4252 -0.0500  0.1456
 3437TIP3    H134506   5.535   6.250  20.061  0.4460 -0.4223 -0.0555
 3437TIP3    H234507   5.626   6.352  20.125  0.6677 -0.2597 -0.6294
 3438TIP3   OH234508   1.037   0.132  18.900  0.6070  0.5026 -0.2586
 3438TIP3    H134509   1.103   0.138  18.970  0.5149 -0.5231 -0.0694
 3438TIP3    H234510   0.964   0.184  18.932  0.4297 -0.2436  0.5839
 3439TIP3   OH234511   6.188   4.138  19.213 -0.0046  0.9221 -0.5713
 3439TIP3    H134512   6.143   4.088  19.145  1.9308 -1.9711  0.1053
 3439TIP3    H234513   6.118   4.180  19.263 -1.9109 -2.0024 -0.5809
 3440TIP3   OH234514   5.766   3.607  17.751 -0.4041 -0.1286  0.3950
 3440TIP3    H134515   5.830   3.657  17.702 -0.3759  0.4350  0.9951
 3440TIP3    H234516   5.682   3.648  17.730 -0.2224  1.2546  2.1398
 3441TIP3   OH234517   1.681   6.136  18.174  0.2122 -0.0023 -0.1266
 3441TIP3    H134518   1.757   6.173  18.128  1.1408 -1.5680  0.0567
 3441TIP3    H234519   1.710   6.127  18.265 -0.5179  0.2179  0.1325
 3442TIP3   OH234520   3.558   6.534  17.694 -0.0910  0.0264 -0.0459
 3442TIP3    H134521   3.498   6.563  17.763 -1.3620  0.3782 -1.2634
 3442TIP3    H234522   3.645   6.564  17.723 -0.3769 -0.9778  2.0187
 3443TIP3   OH234523   1.352   3.481  19.253 -0.0457  0.0088  0.0942
 3443TIP3    H134524   1.402   3.409  19.292  3.2091  1.2248 -1.4359
 3443TIP3    H234525   1.332   3.451  19.165 -1.3055 -0.0904  0.3925
 3444TIP3   OH234526   2.714   5.162  18.253 -0.0417  0.4119  0.2354
 3444TIP3    H134527   2.793   5.197  18.293  0.1030  0.3269  0.0289
 3444TIP3    H234528   2.643   5.198  18.305  0.1238  0.6636  0.2910
 3445TIP3   OH234529   4.527   4.548  17.838  0.2155  0.4706  0.2152
 3445TIP3    H134530   4.452   4.595  17.873  0.1169  0.5936 -0.1502
 3445TIP3    H234531   4.488   4.472  17.793  0.3880 -0.1292  1.0524
 3446TIP3   OH234532   6.252   3.299  19.956  0.4389 -0.1728  0.4252
 3446TIP3    H134533   6.302   3.362  19.905  1.0870  0.3006  1.5935
 3446TIP3    H234534   6.258   3.218  19.907 -0.7001  0.7176 -1.2902
 3447TIP3   OH234535   0.400   4.823  16.544  0.2016  0.1351  0.2166
 3447TIP3    H134536   0.444   4.874  16.476  0.8733 -0.7822 -0.0567
 3447TIP3    H234537   0.314   4.864  16.553  0.3753  0.7248 -0.6599
 3448TIP3   OH234538   5.459   2.642  17.231  0.1315  0.3388  0.0017
 3448TIP3    H134539   5.406   2.697  17.288 -0.4786  0.4379 -0.6336
 3448TIP3    H234540   5.403   2.566  17.212  0.1709  0.4829 -0.7449
 3449TIP3   OH234541   4.570   5.640  19.287 -0.4589 -0.1319  0.2029
 3449TIP3    H134542   4.508   5.568  19.291  1.3239 -1.9269 -1.6521
 3449TIP3    H234543   4.655   5.600  19.306  0.6724  1.3264 -1.4257
 3450TIP3   OH234544   3.627   3.569  19.248 -0.4726 -0.5048 -0.1446
 3450TIP3    H134545   3.624   3.532  19.336  0.8023 -1.7997 -0.5981
 3450TIP3    H234546   3.583   3.653  19.256  1.4703  0.4116  2.2309
 3451TIP3   OH234547   2.192   5.534  16.948 -0.3203 -0.5606  0.0036
 3451TIP3    H134548   2.143   5.616  16.954  0.9142  0.4540 -2.2476
 3451TIP3    H234549   2.134   5.475  16.899  0.0208  0.0974 -1.2403
 3452TIP3   OH234550   1.218   6.422  18.158  0.7771 -0.1197  0.1130
 3452TIP3    H134551   1.231   6.476  18.079 -1.0142  0.0572 -0.1088
 3452TIP3    H234552   1.208   6.333  18.124 -0.2959 -0.0026  0.0793
 3453TIP3   OH234553   5.968   3.704  18.861  0.4725  0.0792 -0.6723
 3453TIP3    H134554   5.974   3.657  18.778  0.0431  0.2442 -0.8009
 3453TIP3    H234555   5.912   3.650  18.916  1.3604 -0.4054 -0.2176
 3454TIP3   OH234556   0.079   2.905  19.848  0.1017  0.2445 -0.3585
 3454TIP3    H134557   0.035   2.984  19.816 -0.1857 -0.4450 -1.7151
 3454TIP3    H234558   0.085   2.848  19.772  0.5550 -0.9411  0.5371
 3455TIP3   OH234559   4.781   0.802  19.218 -0.1503  0.6022  0.1823
 3455TIP3    H134560   4.793   0.756  19.301 -0.9323 -0.0840 -0.0615
 3455TIP3    H234561   4.818   0.744  19.153 -2.0734 -0.2333 -0.2494
 3456TIP3   OH234562   2.646   5.829  19.772  0.2418 -0.6467  0.1699
 3456TIP3    H134563   2.659   5.788  19.687 -1.3005 -0.9118  0.0285
 3456TIP3    H234564   2.591   5.905  19.753 -1.1740 -1.4023  1.0511
 3457TIP3   OH234565   6.188   6.455  18.278  0.1845 -0.0376 -0.6295
 3457TIP3    H134566   6.252   6.514  18.239 -0.1366  0.5593 -0.2623
 3457TIP3    H234567   6.134   6.511  18.334 -1.2748 -0.3265 -1.6721
 3458TIP3   OH234568   4.869   0.452  17.955 -0.3163 -0.1573 -0.1416
 3458TIP3    H134569   4.845   0.489  18.040 -1.9205 -1.6121  0.1089
 3458TIP3    H234570   4.899   0.363  17.976 -1.1066 -0.6721 -1.1001
 3459TIP3   OH234571   5.634   2.853  18.971  0.2283 -0.2146  0.4756
 3459TIP3    H134572   5.579   2.902  18.909 -0.5650  0.7419  1.8578
 3459TIP3    H234573   5.615   2.761  18.952  1.1750 -0.0249 -1.6870
 3460TIP3   OH234574   3.776   1.056  19.119 -0.0536 -0.1578  0.4146
 3460TIP3    H134575   3.836   1.075  19.046 -0.9614 -0.5521 -0.4516
 3460TIP3    H234576   3.707   1.002  19.080 -0.9602  0.2568  1.4024
 3461TIP3   OH234577   1.818   1.721  18.158 -0.1725 -0.3990 -0.6055
 3461TIP3    H134578   1.729   1.717  18.194  0.1308 -1.9340  0.0708
 3461TIP3    H234579   1.841   1.814  18.161 -0.9236 -0.2227  1.3744
 3462TIP3   OH234580   2.608   4.743  19.140  0.0693 -0.0259 -0.4214
 3462TIP3    H134581   2.535   4.801  19.161 -0.0729  0.3775 -1.8793
 3462TIP3    H234582   2.568   4.662  19.109  0.1903  0.4263 -1.8424
 3463TIP3   OH234583   0.562   4.206  17.974  0.2569  0.2502  0.3408
 3463TIP3    H134584   0.526   4.122  18.005 -1.4453  1.0091  0.5448
 3463TIP3    H234585   0.602   4.184  17.890 -0.7077 -0.6818  0.0939
 3464TIP3   OH234586   1.977   1.228  18.526 -0.4981  0.5325  0.3039
 3464TIP3    H134587   2.032   1.171  18.471 -0.7370  1.8079 -1.3380
 3464TIP3    H234588   2.019   1.226  18.612 -1.0352 -2.8740  0.6552
 3465TIP3   OH234589   6.687   6.160  18.619  0.4326  0.9480 -0.0010
 3465TIP3    H134590   6.611   6.116  18.581  1.6120  0.8810 -2.4515
 3465TIP3    H234591   6.731   6.203  18.545  3.3218  0.1801  1.1016
 3466TIP3   OH234592   3.897   1.034  19.652  0.7125 -0.5657 -0.6563
 3466TIP3    H134593   3.946   0.957  19.623  2.5809  0.8079 -1.3767
 3466TIP3    H234594   3.949   1.108  19.620 -0.8558  0.9976  0.2736
 3467TIP3   OH234595   6.235   1.904  20.346 -0.0349  0.1486  0.2728
 3467TIP3    H134596   6.145   1.932  20.333  0.2662  0.8785 -0.3636
 3467TIP3    H234597   6.230   1.830  20.406 -0.9407  1.0814  1.3915
 3468TIP3   OH234598   1.580   1.646  19.180 -0.2165  0.3106  0.2859
 3468TIP3    H134599   1.585   1.651  19.085 -1.8325  0.0021  0.1628
 3468TIP3    H234600   1.504   1.700  19.204  0.5580  0.9351  1.4729
 3469TIP3   OH234601   4.159   3.770  17.358 -0.4517  0.2618  0.5605
 3469TIP3    H134602   4.138   3.822  17.281 -0.9113  0.1037  0.5806
 3469TIP3    H234603   4.126   3.822  17.432 -0.3930  0.2121  0.6219
 3470TIP3   OH234604   5.500   2.980  18.718  0.5067 -0.3838  0.2818
 3470TIP3    H134605   5.469   3.071  18.723  0.8369  0.0268 -2.9886
 3470TIP3    H234606   5.427   2.932  18.679  1.8294 -0.5192 -2.2541
 3471TIP3   OH234607   6.474   0.178  19.841  0.4635  0.4987  0.0675
 3471TIP3    H134608   6.423   0.222  19.773 -0.7962 -1.4446 -0.3229
 3471TIP3    H234609   6.458   0.230  19.920  1.1792  2.2308 -0.8478
 3472TIP3   OH234610   0.525   4.910  17.782  0.3021  0.1733 -0.4496
 3472TIP3    H134611   0.534   4.957  17.699  0.4850  0.6570 -0.1610
 3472TIP3    H234612   0.564   4.824  17.764 -1.0254 -0.2738 -1.3003
 3473TIP3   OH234613   2.291   3.413  16.606  0.1379 -0.3104 -0.7021
 3473TIP3    H134614   2.225   3.379  16.547 -1.4260  0.9755  0.2157
 3473TIP3    H234615   2.359   3.449  16.549 -0.5375 -0.5684 -1.6837
 3474TIP3   OH234616   4.436   0.597  19.949  0.3753  0.7979  0.2766
 3474TIP3    H134617   4.530   0.614  19.949  0.7564 -1.0331 -1.0691
 3474TIP3    H234618   4.417   0.565  19.861 -1.1610 -0.5576  1.0425
 3475TIP3   OH234619   2.431   0.834  17.334  0.2717 -0.5627 -0.2979
 3475TIP3    H134620   2.501   0.893  17.305  0.4835 -0.1920  0.9077
 3475TIP3    H234621   2.380   0.817  17.255  1.8308 -1.0170 -1.2562
 3476TIP3   OH234622   4.965   6.710  19.664 -0.4052  0.1853 -0.0378
 3476TIP3    H134623   4.985   6.647  19.733  2.3366 -0.2944 -1.1583
 3476TIP3    H234624   4.936   6.656  19.590  1.5239  0.1897 -0.8520
 3477TIP3   OH234625   0.843   5.830  18.377 -0.4644  0.5040  0.1482
 3477TIP3    H134626   0.797   5.914  18.376 -0.4617  0.5030 -0.5254
 3477TIP3    H234627   0.782   5.770  18.419 -1.3978  0.3377 -1.3693
 3478TIP3   OH234628   3.156   2.958  18.370 -0.1267  0.8519 -0.3740
 3478TIP3    H134629   3.147   2.988  18.280 -0.7951  0.7088 -0.3568
 3478TIP3    H234630   3.068   2.965  18.407 -0.0043  0.2143  0.0537
 3479TIP3   OH234631   1.464   4.476  18.444  0.0665  0.2179  0.0437
 3479TIP3    H134632   1.491   4.560  18.408 -1.6256  0.5778 -0.4427
 3479TIP3    H234633   1.404   4.439  18.379  0.7902 -1.3986  0.2317
 3480TIP3   OH234634   4.650   5.346  19.244  0.0735  0.0104  0.8248
 3480TIP3    H134635   4.558   5.352  19.272  0.0230 -2.2370  1.3358
 3480TIP3    H234636   4.650   5.280  19.175  1.2111  0.5771  0.2557
 3481TIP3   OH234637   2.649   3.212  18.225 -0.2197 -0.1294 -0.7422
 3481TIP3    H134638   2.595   3.134  18.216  1.2597 -1.2486 -0.3489
 3481TIP3    H234639   2.670   3.216  18.319  0.4149  0.2329 -0.8883
 3482TIP3   OH234640   1.726   1.563  17.931 -0.1280 -0.0593 -0.0708
 3482TIP3    H134641   1.653   1.619  17.903 -0.8060 -0.7250  0.3019
 3482TIP3    H234642   1.756   1.603  18.013  1.6135  1.6713 -1.4536
 3483TIP3   OH234643   2.170   4.195  18.613  0.1925 -0.1649 -0.6227
 3483TIP3    H134644   2.092   4.197  18.669  0.8849  1.1037  0.3479
 3483TIP3    H234645   2.197   4.103  18.613 -0.7980 -0.4672 -0.2558
 3484TIP3   OH234646   3.315   2.845  18.584 -0.2007 -0.0721 -0.0410
 3484TIP3    H134647   3.244   2.783  18.598 -2.0170  1.5201 -1.7600
 3484TIP3    H234648   3.285   2.902  18.514  1.9384  1.9608  0.5543
 3485TIP3   OH234649   3.791   3.595  18.300 -0.2382 -0.2416  0.6124
 3485TIP3    H134650   3.810   3.505  18.328 -0.9623 -0.6139 -0.0392
 3485TIP3    H234651   3.856   3.614  18.232  0.8864  0.3003  1.8034
 3486TIP3   OH234652   4.926   5.610  17.675  0.2003  0.4470  0.7179
 3486TIP3    H134653   4.861   5.553  17.715  0.6375 -0.2588  0.4385
 3486TIP3    H234654   4.882   5.643  17.596  0.5991 -1.0254 -0.1540
 3487TIP3   OH234655   6.684   1.547  17.335 -0.0582 -0.2392  0.4067
 3487TIP3    H134656   6.602   1.595  17.347 -0.6242 -1.0055 -0.2603
 3487TIP3    H234657   6.709   1.565  17.244  1.1450  0.9315  0.9437
 3488TIP3   OH234658   6.674   3.856  18.698 -0.0963 -0.2764  0.6104
 3488TIP3    H134659   6.700   3.814  18.616  0.5334 -0.5311  0.9339
 3488TIP3    H234660   6.730   3.817  18.764  0.5888  1.1394  0.9071
 3489TIP3   OH234661   4.429   6.132  18.654 -0.0515 -0.0230  0.0049
 3489TIP3    H134662   4.434   6.078  18.732 -0.5408  3.6087  2.8059
 3489TIP3    H234663   4.502   6.194  18.662 -0.3426  0.7399 -2.2471
 3490TIP3   OH234664   5.978   1.883  19.592  0.3066 -0.1601 -0.4022
 3490TIP3    H134665   6.014   1.964  19.629  0.6939 -0.0279 -1.0600
 3490TIP3    H234666   6.040   1.815  19.617  1.1231  0.0880 -1.6488
 3491TIP3   OH234667   1.509   5.388  17.083  0.1008 -0.3906 -0.0342
 3491TIP3    H134668   1.437   5.436  17.044  0.4546 -0.1454 -0.3939
 3491TIP3    H234669   1.472   5.350  17.163 -0.0684  0.8787  0.5239
 3492TIP3   OH234670   1.303   2.649  18.453  0.0189  0.0973 -0.7940
 3492TIP3    H134671   1.268   2.573  18.406  0.4435  0.3061 -1.4627
 3492TIP3    H234672   1.249   2.722  18.424  0.6602  0.3301 -1.4232
 3493TIP3   OH234673   4.969   3.365  18.157  0.1139 -0.0757 -0.1128
 3493TIP3    H134674   5.015   3.281  18.164  1.1840  0.4195 -0.8318
 3493TIP3    H234675   4.878   3.345  18.179  0.8728 -0.8291  2.8595
 3494TIP3   OH234676   5.126   0.595  17.894  0.3513 -0.2610 -0.3174
 3494TIP3    H134677   5.103   0.681  17.931  0.2651 -0.5156  0.2355
 3494TIP3    H234678   5.048   0.541  17.909  1.7355 -1.5869  2.9731
 3495TIP3   OH234679   1.576   1.722  19.728  0.1271  0.1434 -0.0473
 3495TIP3    H134680   1.667   1.731  19.702 -0.1437  1.8402 -0.5199
 3495TIP3    H234681   1.567   1.777  19.806 -0.2353 -0.9592  0.7179
 3496TIP3   OH234682   0.989   3.699  17.324 -0.0840  0.4076  1.1556
 3496TIP3    H134683   1.029   3.613  17.316 -1.1362  0.0650 -0.9235
 3496TIP3    H234684   0.896   3.685  17.309 -0.5799  1.6728  2.6607
 3497TIP3   OH234685   1.469   3.684  17.137  0.0435 -0.7836 -0.2577
 3497TIP3    H134686   1.402   3.621  17.109 -0.9439  0.6018 -1.1875
 3497TIP3    H234687   1.476   3.745  17.064  2.8652 -1.2335 -0.4781
 3498TIP3   OH234688   4.910   4.550  18.393  0.3074 -0.6062 -0.1873
 3498TIP3    H134689   4.935   4.494  18.466 -0.6591 -1.5156 -0.5159
 3498TIP3    H234690   4.842   4.500  18.347  0.2684  0.3259 -1.1929
 3499TIP3   OH234691   6.329   1.474  19.067  0.0691  0.3918  0.1633
 3499TIP3    H134692   6.240   1.492  19.036  0.6678  0.3776 -1.6265
 3499TIP3    H234693   6.317   1.409  19.136 -1.2671 -0.0768 -0.4854
 3500TIP3   OH234694   0.811   0.768  18.201  0.3852 -0.0900  0.7362
 3500TIP3    H134695   0.864   0.847  18.189 -0.4359  0.1944 -1.4517
 3500TIP3    H234696   0.855   0.702  18.148  0.9965 -1.1515  2.4577
 3501TIP3   OH234697   2.082   4.442  18.024 -0.1244 -0.1898 -0.5031
 3501TIP3    H134698   2.177   4.441  18.018 -0.1836 -2.4748 -2.1589
 3501TIP3    H234699   2.052   4.396  17.946 -2.6047  0.2969  0.0672
 3502TIP3   OH234700   5.859   3.077  19.369  0.2255  0.3811  0.2984
 3502TIP3    H134701   5.817   3.030  19.297  1.1496 -0.7425  0.4530
 3502TIP3    H234702   5.919   3.013  19.407  0.2501  1.1700  1.6426
 3503TIP3   OH234703   5.034   4.284  18.040 -0.1498  0.3459 -0.1489
 3503TIP3    H134704   5.125   4.282  18.013 -0.6162  0.1759 -1.7823
 3503TIP3    H234705   5.008   4.376  18.032 -0.3549  0.2570 -0.5462
 3504TIP3   OH234706   1.340   5.105  19.432  0.3415 -0.0098 -0.1667
 3504TIP3    H134707   1.385   5.188  19.414  1.0534 -0.2659  0.3721
 3504TIP3    H234708   1.378   5.075  19.515  0.8599 -1.4036 -0.8761
 3505TIP3   OH234709   3.908   5.638  16.654 -0.1172 -0.1383 -0.2874
 3505TIP3    H134710   3.862   5.721  16.648  0.1453  0.0055 -0.3096
 3505TIP3    H234711   3.902   5.601  16.566 -0.1432 -0.0936 -0.3039
 3506TIP3   OH234712   1.411   3.113  19.673 -0.2257 -0.1405 -0.0901
 3506TIP3    H134713   1.381   3.123  19.583  1.5746  1.7057 -0.5746
 3506TIP3    H234714   1.331   3.112  19.726 -1.2555  2.6042 -1.4219
 3507TIP3   OH234715   4.968   3.199  19.905  0.6780 -0.1534 -0.1066
 3507TIP3    H134716   5.020   3.210  19.985 -1.2919 -2.9075  1.7268
 3507TIP3    H234717   5.023   3.143  19.849  1.3727  0.3859  0.0221
 3508TIP3   OH234718   2.823   3.577  19.568 -0.6168  0.0884 -0.1955
 3508TIP3    H134719   2.812   3.490  19.531  0.6381 -0.0299 -0.3304
 3508TIP3    H234720   2.773   3.575  19.650 -0.2464 -0.9039  0.0237
 3509TIP3   OH234721   4.175   0.457  17.905  0.0733 -0.4884  0.4855
 3509TIP3    H134722   4.146   0.433  17.817 -2.2580 -2.1239  1.5869
 3509TIP3    H234723   4.148   0.548  17.915  1.6402  0.1847 -0.9208
 3510TIP3   OH234724   2.963   0.025  19.152 -0.6310  0.7510  0.4805
 3510TIP3    H134725   2.879  -0.018  19.164 -0.7311  0.9778  0.6076
 3510TIP3    H234726   3.026  -0.031  19.198 -0.4245 -0.3589 -1.0988
 3511TIP3   OH234727   1.009   2.058  19.823 -0.1718  0.5096 -0.2077
 3511TIP3    H134728   1.074   1.996  19.856 -1.5379 -0.8808 -0.0030
 3511TIP3    H234729   0.942   2.061  19.891 -1.4165  0.1491 -1.3687
 3512TIP3   OH234730   2.420   0.530  19.194  0.4430  0.3195  0.0204
 3512TIP3    H134731   2.356   0.461  19.182  0.0735  0.7378 -0.4577
 3512TIP3    H234732   2.454   0.547  19.106 -1.9037  3.0447 -0.5069
 3513TIP3   OH234733   2.838   5.655  17.141 -0.3265  0.5944  0.3376
 3513TIP3    H134734   2.790   5.663  17.059 -0.7472  1.5372  0.6656
 3513TIP3    H234735   2.871   5.743  17.159  0.7530  0.1505  0.5899
 3514TIP3   OH234736   1.907   3.541  18.684 -0.3773  0.4037  0.2816
 3514TIP3    H134737   1.855   3.615  18.715 -0.8908  0.1093  0.1362
 3514TIP3    H234738   1.972   3.580  18.625  0.6133  0.9722  1.6969
 3515TIP3   OH234739   5.090   0.381  17.645  0.8475  0.2792  0.0562
 3515TIP3    H134740   5.184   0.391  17.631  0.8037 -0.3889 -0.8207
 3515TIP3    H234741   5.058   0.341  17.564 -0.0530 -0.2720  0.6656
 3516TIP3   OH234742   2.312   0.271  19.131 -0.2976  0.1528  0.1018
 3516TIP3    H134743   2.226   0.307  19.110 -0.8606 -0.3701  1.3991
 3516TIP3    H234744   2.307   0.180  19.101  0.1799  0.3983 -0.7524
 3517TIP3   OH234745   0.945   6.134  18.656  0.7819  0.1562  0.2564
 3517TIP3    H134746   1.000   6.106  18.730 -0.8909 -0.8966  1.1693
 3517TIP3    H234747   0.860   6.093  18.673  0.0535  0.7357 -1.7427
 3518TIP3   OH234748   3.767   5.715  17.216  0.1633 -0.1124 -0.0445
 3518TIP3    H134749   3.837   5.653  17.234  1.8963  1.4694 -1.0809
 3518TIP3    H234750   3.763   5.721  17.121 -0.6209  0.6595  0.0229
 3519TIP3   OH234751   2.785   4.635  18.003  0.5769 -0.0354  0.3203
 3519TIP3    H134752   2.869   4.591  18.017  1.4562  1.4568 -0.1239
 3519TIP3    H234753   2.779   4.646  17.909 -0.8294 -1.4144  0.2075
 3520TIP3   OH234754   1.232   4.752  19.096  0.1316  0.0484  0.1623
 3520TIP3    H134755   1.280   4.807  19.158 -0.0690 -3.0880  3.4122
 3520TIP3    H234756   1.295   4.685  19.069 -0.8326 -0.8239  0.0046
 3521TIP3   OH234757   2.237   3.568  16.302  0.2649  0.0477  0.0393
 3521TIP3    H134758   2.311   3.523  16.343  0.0500 -0.9183 -0.5972
 3521TIP3    H234759   2.212   3.635  16.365  0.1759 -1.1616  1.3352
 3522TIP3   OH234760   2.045   6.068  19.934  0.4079  0.0577  0.0180
 3522TIP3    H134761   2.104   6.123  19.986  0.6418 -0.2276  0.0521
 3522TIP3    H234762   2.043   5.984  19.980 -1.3767  0.5786  1.0100
 3523TIP3   OH234763   0.578   0.220  17.306  0.3673 -0.0737 -0.6225
 3523TIP3    H134764   0.575   0.292  17.369 -0.5727 -1.1583  0.6459
 3523TIP3    H234765   0.558   0.260  17.222  1.8573  1.4551 -0.2976
 3524TIP3   OH234766   6.150   3.342  18.813 -0.0913 -0.3616  0.3016
 3524TIP3    H134767   6.148   3.355  18.908 -1.3417  1.0848  0.1320
 3524TIP3    H234768   6.150   3.247  18.801 -0.6909 -0.5698  1.7522
 3525TIP3   OH234769   2.310   3.428  16.879  0.0668 -0.1611  0.0235
 3525TIP3    H134770   2.303   3.420  16.784  0.1139  0.9492 -0.0903
 3525TIP3    H234771   2.366   3.355  16.906  1.8374  0.7342 -1.0477
 3526TIP3   OH234772   4.477   0.328  18.312 -0.7381 -0.4566  0.0958
 3526TIP3    H134773   4.383   0.336  18.326 -0.8897 -2.1435  0.2910
 3526TIP3    H234774   4.484   0.283  18.227 -0.1142 -0.2705  0.0472
 3527TIP3   OH234775   2.693   4.851  20.358  0.2673  0.1610 -0.0625
 3527TIP3    H134776   2.711   4.816  20.445 -3.1826 -0.8334  0.3993
 3527TIP3    H234777   2.735   4.789  20.298  1.1509 -0.1304  0.8338
 3528TIP3   OH234778   0.812   2.564  19.764  0.0024  0.2707  0.3031
 3528TIP3    H134779   0.804   2.611  19.847  1.0861  0.3778  0.3514
 3528TIP3    H234780   0.847   2.629  19.703  0.1522 -0.0810  0.0129
 3529TIP3   OH234781   2.906   2.243  17.630 -0.0684  0.2002  0.0325
 3529TIP3    H134782   2.827   2.294  17.610 -1.1908 -1.4433  0.1085
 3529TIP3    H234783   2.884   2.154  17.605  1.5953 -0.3954  0.5699
 3530TIP3   OH234784   1.573   4.320  16.604 -0.1130 -0.7300  0.2755
 3530TIP3    H134785   1.583   4.300  16.511  2.6861  0.3855  0.2678
 3530TIP3    H234786   1.604   4.242  16.649 -1.4157 -1.2479  0.3401
 3531TIP3   OH234787   2.807   1.193  19.678  0.8926 -0.1528  0.1024
 3531TIP3    H134788   2.731   1.249  19.696  1.0110 -0.2130  0.8143
 3531TIP3    H234789   2.815   1.195  19.583 -0.0676 -0.2308  0.0049
 3532TIP3   OH234790   1.182   4.838  16.574  0.4161 -0.3477 -0.0425
 3532TIP3    H134791   1.147   4.818  16.487 -0.2000  0.3576  0.0252
 3532TIP3    H234792   1.190   4.934  16.574 -0.6724 -0.2295  1.0569
 3533TIP3   OH234793   0.466   6.199  17.834 -0.1910 -0.5114  0.2442
 3533TIP3    H134794   0.546   6.247  17.813 -0.1172 -0.7246  0.0426
 3533TIP3    H234795   0.402   6.268  17.855  0.2210 -0.3589  1.0460
 3534TIP3   OH234796   2.083   5.987  18.061  0.4681 -0.3901 -0.5164
 3534TIP3    H134797   2.037   5.907  18.036 -0.0501  0.0724 -1.0764
 3534TIP3    H234798   2.091   5.981  18.156  0.8224 -1.3091 -0.5980
 3535TIP3   OH234799   1.984   5.399  17.730 -0.0261  0.6381  0.4389
 3535TIP3    H134800   1.989   5.384  17.635 -1.6477 -1.2166  0.5662
 3535TIP3    H234801   2.072   5.426  17.755  0.7961 -0.1213 -1.4008
 3536TIP3   OH234802   1.029   2.354  19.726  0.2854 -0.6005 -0.5403
 3536TIP3    H134803   1.084   2.430  19.747  0.1498  0.2437 -2.9622
 3536TIP3    H234804   0.940   2.388  19.722 -0.1629 -1.4704  0.8854
 3537TIP3   OH234805   0.486   1.845  20.008  0.5174 -0.1181 -0.4807
 3537TIP3    H134806   0.425   1.775  20.032  0.7985 -0.1589  0.1307
 3537TIP3    H234807   0.482   1.906  20.081 -2.4276  2.3993 -2.4978
 3538TIP3   OH234808   3.089   1.946  19.460 -0.2739  0.0965  0.0350
 3538TIP3    H134809   3.169   1.932  19.509 -1.2487  0.5205  1.8491
 3538TIP3    H234810   3.038   2.007  19.514 -2.9416 -2.1986  0.3197
 3539TIP3   OH234811   1.143   1.395  20.183  0.4020  0.7757 -0.1209
 3539TIP3    H134812   1.207   1.438  20.128  1.1307  1.9841  1.5959
 3539TIP3    H234813   1.060   1.440  20.164  0.3303  0.2145 -1.2347
 3540TIP3   OH234814   4.470   5.530  18.795 -0.7594 -0.2129  0.3781
 3540TIP3    H134815   4.408   5.456  18.791 -0.5323 -0.3465 -2.0885
 3540TIP3    H234816   4.476   5.560  18.705  0.7221  1.5570  1.0304
 3541TIP3   OH234817   6.129   6.743  17.375  0.1458  0.1667 -0.6939
 3541TIP3    H134818   6.083   6.736  17.459 -0.8531 -2.1979 -1.3494
 3541TIP3    H234819   6.194   6.673  17.378  1.8425  1.6681 -0.9399
 3542TIP3   OH234820   3.892   4.715  17.132 -0.4035  0.2434  0.2725
 3542TIP3    H134821   3.938   4.797  17.147  1.6198 -0.6037 -0.9254
 3542TIP3    H234822   3.894   4.671  17.217 -0.7662  1.0418  0.7083
 3543TIP3   OH234823   1.893   3.580  19.761 -0.1685  0.0767  0.3266
 3543TIP3    H134824   1.839   3.533  19.698  1.7511 -0.2188 -1.2050
 3543TIP3    H234825   1.905   3.517  19.833  0.9706 -1.2067 -0.9232
 3544TIP3   OH234826   4.545   2.236  17.190 -0.4943  0.0793  0.0173
 3544TIP3    H134827   4.537   2.175  17.118 -0.7334 -0.7474  0.7284
 3544TIP3    H234828   4.610   2.300  17.161  0.1314 -0.7995 -0.5320
 3545TIP3   OH234829   0.093   4.448  19.461 -0.2298 -0.8198 -0.3480
 3545TIP3    H134830   0.062   4.358  19.471 -0.3399 -0.5963  1.7786
 3545TIP3    H234831   0.032   4.500  19.512  1.2972  0.1428  0.5700
 3546TIP3   OH234832   1.077   6.390  19.339  0.2109  0.2791 -0.1468
 3546TIP3    H134833   1.134   6.445  19.392  0.4294 -1.0113  1.0188
 3546TIP3    H234834   0.996   6.384  19.389  0.2147 -0.4858 -0.2107
 3547TIP3   OH234835   0.617   0.985  20.100 -0.0230  0.0102  0.0162
 3547TIP3    H134836   0.646   1.051  20.163  0.2766  1.1321 -1.2483
 3547TIP3    H234837   0.569   1.035  20.034 -1.9123 -1.3645  0.2708
 3548TIP3   OH234838   0.403   4.265  16.817  0.3191  0.0536 -0.2842
 3548TIP3    H134839   0.317   4.299  16.841  1.4440  2.1576  1.1071
 3548TIP3    H234840   0.418   4.297  16.728 -0.1878 -0.0558 -0.4117
 3549TIP3   OH234841   6.523   4.299  16.999 -0.1275  0.8854 -1.1639
 3549TIP3    H134842   6.439   4.340  17.021 -0.8827 -1.2771  0.2518
 3549TIP3    H234843   6.499   4.221  16.949  1.0775  0.4890 -1.1445
 3550TIP3   OH234844   2.144   6.042  19.371  0.5096  0.2639  0.5131
 3550TIP3    H134845   2.197   5.962  19.366 -0.0414 -0.1359  1.0041
 3550TIP3    H234846   2.129   6.056  19.464 -0.9658 -0.1205  0.3655
 3551TIP3   OH234847   6.340   0.357  18.721 -0.1593 -0.0905  0.0732
 3551TIP3    H134848   6.428   0.389  18.700  0.4534 -1.0576  1.0774
 3551TIP3    H234849   6.318   0.402  18.802  0.0132 -0.9315  0.5940
 3552TIP3   OH234850   1.935   6.040  18.925 -0.4301  0.0399  0.0314
 3552TIP3    H134851   1.845   6.011  18.938  0.1748 -1.3664  1.3151
 3552TIP3    H234852   1.927   6.134  18.908 -2.1918 -0.2193 -0.8536
 3553TIP3   OH234853   0.623   3.495  18.452 -0.7615 -0.3949 -0.6532
 3553TIP3    H134854   0.538   3.537  18.442 -0.5611  0.1044 -0.2992
 3553TIP3    H234855   0.673   3.555  18.507 -0.2143 -0.7339 -0.7742
 3554TIP3   OH234856   3.686   3.244  17.576 -0.1529  0.3768 -0.4088
 3554TIP3    H134857   3.649   3.313  17.632 -1.3128  1.6485 -2.5696
 3554TIP3    H234858   3.662   3.162  17.619  0.4660  1.2749  1.7709
 3555TIP3   OH234859   5.930   5.759  18.611 -0.7829 -0.5374  0.0746
 3555TIP3    H134860   5.979   5.841  18.604 -2.0275  0.1599 -1.2212
 3555TIP3    H234861   5.981   5.696  18.559 -0.3099 -0.3281  0.2800
 3556TIP3   OH234862   1.835   4.948  19.660  0.0658 -0.0763 -0.5140
 3556TIP3    H134863   1.780   4.921  19.587 -1.2094  0.5261  0.1966
 3556TIP3    H234864   1.784   4.926  19.738  0.6924  0.7746  0.1518
 3557TIP3   OH234865   0.099   5.648  19.346  0.3695 -0.1945  0.2763
 3557TIP3    H134866   0.100   5.667  19.252  0.1452  0.5920  0.4254
 3557TIP3    H234867   0.190   5.627  19.367  0.4344 -0.3023 -0.1055
 3558TIP3   OH234868   3.935   5.249  20.256 -0.1664 -0.1466  0.0340
 3558TIP3    H134869   3.883   5.224  20.180 -0.7950 -1.4404  0.8536
 3558TIP3    H234870   3.871   5.254  20.328  0.7655 -1.4632  0.9944
 3559TIP3   OH234871   6.435   1.489  19.583  0.2836  0.6064 -0.7846
 3559TIP3    H134872   6.419   1.574  19.623 -1.2307  1.1292 -2.3573
 3559TIP3    H234873   6.478   1.510  19.499  0.9713 -0.2732 -0.6741
 3560TIP3   OH234874   0.822   2.060  20.012  0.2562 -0.4848  0.2162
 3560TIP3    H134875   0.889   2.066  20.081 -0.1190 -1.8622  0.7425
 3560TIP3    H234876   0.749   2.111  20.046  0.4506 -0.3167  0.3893
 3561TIP3   OH234877   5.048   5.611  18.369  0.4147 -0.2002  0.2842
 3561TIP3    H134878   4.955   5.634  18.380  0.4098 -0.4731  0.8575
 3561TIP3    H234879   5.062   5.614  18.275 -0.4101 -1.0475  0.1158
 3562TIP3   OH234880   4.830   3.686  19.009  0.0834 -0.2112 -0.6937
 3562TIP3    H134881   4.808   3.650  19.095  0.9372  0.0839 -0.3435
 3562TIP3    H234882   4.831   3.780  19.022 -1.4690 -0.0498 -1.4489
 3563TIP3   OH234883   5.147   0.701  18.869  0.3520  0.0938 -0.0472
 3563TIP3    H134884   5.174   0.734  18.955 -0.6943  0.4217  0.1783
 3563TIP3    H234885   5.217   0.643  18.842  1.5285  1.3204  0.2495
 3564TIP3   OH234886   5.037   4.346  17.633 -0.1767  0.0984  0.1176
 3564TIP3    H134887   4.976   4.273  17.645 -1.0716  0.6570 -0.8386
 3564TIP3    H234888   4.980   4.420  17.611  0.8608  0.6456 -0.7670
 3565TIP3   OH234889   5.507   4.856  20.184 -0.1810 -0.5728 -0.1129
 3565TIP3    H134890   5.428   4.904  20.210  0.0307 -0.0593 -0.4084
 3565TIP3    H234891   5.475   4.787  20.126 -0.5764 -1.2960  0.9487
 3566TIP3   OH234892   0.878   2.988  18.065  0.0218  0.1540  0.2185
 3566TIP3    H134893   0.792   2.949  18.049  1.0453 -1.1951 -2.7970
 3566TIP3    H234894   0.935   2.913  18.082  0.8662  0.9063  0.7420
 3567TIP3   OH234895   1.296   0.936  18.045  0.1149  0.7233  0.2162
 3567TIP3    H134896   1.303   0.841  18.056  2.0377  0.6723 -0.9835
 3567TIP3    H234897   1.351   0.972  18.115  0.0308  0.9081  0.1857
 3568TIP3   OH234898   6.146   5.063  19.755 -0.1587  0.5854  0.0802
 3568TIP3    H134899   6.198   5.130  19.711  0.3787 -0.6218 -1.1709
 3568TIP3    H234900   6.205   5.027  19.821  0.0278  0.3756 -0.2000
 3569TIP3   OH234901   3.368   4.927  17.382  0.4299  0.3042  0.4293
 3569TIP3    H134902   3.408   4.842  17.364 -0.1885 -0.0350  0.6236
 3569TIP3    H234903   3.284   4.905  17.423  0.1418  1.0061  0.2167
 3570TIP3   OH234904   3.462   5.566  18.184 -0.2381  0.0288  0.3914
 3570TIP3    H134905   3.548   5.553  18.224 -1.1069  0.4711  2.5575
 3570TIP3    H234906   3.453   5.661  18.178 -0.3031 -0.0242 -0.5173
 3571TIP3   OH234907   4.709   3.539  18.790  0.2041 -0.2900 -0.0409
 3571TIP3    H134908   4.622   3.568  18.766  0.2990 -0.6252 -0.8019
 3571TIP3    H234909   4.745   3.611  18.842  0.3239  0.8435 -1.6419
 3572TIP3   OH234910   4.551   1.054  18.163 -0.3348 -0.2633 -0.0117
 3572TIP3    H134911   4.508   1.058  18.249 -1.4390 -0.8436 -0.5196
 3572TIP3    H234912   4.495   1.106  18.106  1.5554  2.0009  0.0372
 3573TIP3   OH234913   3.260   5.140  20.080  0.6553  0.1863  0.2135
 3573TIP3    H134914   3.171   5.155  20.046 -0.1313 -0.2552  1.9403
 3573TIP3    H234915   3.249   5.140  20.175  2.3877 -0.6957  0.4509
 3574TIP3   OH234916   1.801   5.917  17.954 -1.0574  0.0526  0.2720
 3574TIP3    H134917   1.803   5.845  17.890  1.5961  0.1865  0.1072
 3574TIP3    H234918   1.778   5.994  17.902 -3.4057 -0.5199  0.3585
 3575TIP3   OH234919   5.144   2.036  17.532  0.5348  0.5134 -0.1086
 3575TIP3    H134920   5.176   2.120  17.502 -1.0457  1.0728 -0.3149
 3575TIP3    H234921   5.148   2.041  17.628  0.0185  1.0220 -0.1053
 3576TIP3   OH234922   2.441   1.841  18.252  0.2121 -0.3985 -0.6098
 3576TIP3    H134923   2.527   1.865  18.216 -0.4295  0.6414 -1.4898
 3576TIP3    H234924   2.416   1.914  18.308  0.2562 -1.0759  0.3199
 3577TIP3   OH234925   3.727   3.656  19.533 -0.0904 -0.0171  0.1510
 3577TIP3    H134926   3.799   3.698  19.580 -0.4195  0.3118  0.3663
 3577TIP3    H234927   3.731   3.564  19.560  0.1933  0.0211  0.2346
 3578TIP3   OH234928   0.820   4.798  16.347  0.4019  0.1145 -0.0033
 3578TIP3    H134929   0.784   4.849  16.274  2.2495  3.0744  0.9836
 3578TIP3    H234930   0.914   4.797  16.330  0.7443 -0.0591  1.7802
 3579TIP3   OH234931   0.246   0.622  16.975 -0.0793 -0.1606  0.3684
 3579TIP3    H134932   0.188   0.648  16.903  0.8297 -0.9381 -0.6797
 3579TIP3    H234933   0.332   0.612  16.934  1.0708  1.9151  2.0521
 3580TIP3   OH234934   2.649   6.605  18.206 -0.2070  0.4133 -0.1993
 3580TIP3    H134935   2.569   6.559  18.231 -0.6861  0.2843 -1.9059
 3580TIP3    H234936   2.713   6.578  18.272 -1.1203 -0.7801  0.2311
 3581TIP3   OH234937   3.340   0.357  20.028 -0.5009  0.0225 -0.0306
 3581TIP3    H134938   3.283   0.339  20.103 -2.1295  0.2260 -1.1630
 3581TIP3    H234939   3.336   0.277  19.976  1.1847 -0.3866  0.3942
 3582TIP3   OH234940   5.162   5.898  18.584 -0.5392 -0.1570  0.5409
 3582TIP3    H134941   5.202   5.813  18.562 -2.9170 -1.9031  2.4269
 3582TIP3    H234942   5.218   5.934  18.653 -0.8110 -1.3978  1.4428
 3583TIP3   OH234943   5.949   5.391  19.363 -0.4559 -0.3323  0.9683
 3583TIP3    H134944   5.925   5.302  19.339  0.4969 -0.7505  1.5506
 3583TIP3    H234945   6.019   5.415  19.302  0.2582 -0.5040  1.7004
 3584TIP3   OH234946   4.594   0.776  18.470  0.0528 -0.0868  0.6160
 3584TIP3    H134947   4.571   0.685  18.483 -1.4093  0.2218  0.3932
 3584TIP3    H234948   4.554   0.799  18.386  0.1268  0.8349  0.8204
 3585TIP3   OH234949   6.101   0.093  19.986 -0.1009  0.5391  0.0331
 3585TIP3    H134950   6.092   0.132  20.073  0.6275 -1.1060  0.8969
 3585TIP3    H234951   6.168   0.025  19.997 -1.5423 -1.2103 -1.2632
 3586TIP3   OH234952   1.648   2.346  19.748 -0.5975 -0.1750 -0.6857
 3586TIP3    H134953   1.630   2.404  19.675 -0.5391  0.3552 -0.2888
 3586TIP3    H234954   1.712   2.283  19.714  0.3944  0.8290 -0.7509
 3587TIP3   OH234955   3.277   1.106  18.213  0.3212  0.1618  0.2562
 3587TIP3    H134956   3.199   1.151  18.244 -0.4250 -1.3833  0.7190
 3587TIP3    H234957   3.280   1.125  18.119  0.0624  1.1960  0.4514
 3588TIP3   OH234958   3.190   4.726  19.241  0.1216 -0.2658 -0.2359
 3588TIP3    H134959   3.212   4.734  19.334  0.3912 -1.1823 -0.2094
 3588TIP3    H234960   3.101   4.691  19.240 -0.5438  1.3464 -0.3436
 3589TIP3   OH234961   0.566   5.775  20.269  0.1682  0.0559  0.6804
 3589TIP3    H134962   0.593   5.783  20.178 -0.6165  1.1067  0.5196
 3589TIP3    H234963   0.559   5.866  20.300 -1.2264 -0.2205  1.2644
 3590TIP3   OH234964   1.991   4.415  20.384  0.2239 -0.4747 -0.1076
 3590TIP3    H134965   1.903   4.383  20.400  0.4153 -1.5159 -1.0397
 3590TIP3    H234966   1.980   4.486  20.320 -0.1038  0.7385  1.2400
 3591TIP3   OH234967   6.531   1.923  17.320 -0.1661 -0.8114 -0.0511
 3591TIP3    H134968   6.520   1.844  17.371 -0.4408 -0.7969 -0.0843
 3591TIP3    H234969   6.605   1.905  17.262  1.2795 -0.2145  1.5207
 3592TIP3   OH234970   4.416   5.485  17.781  0.6575  0.1814  0.2515
 3592TIP3    H134971   4.360   5.539  17.725  1.2110  0.3898 -0.1144
 3592TIP3    H234972   4.376   5.491  17.867 -1.4367 -1.8575 -0.4857
 3593TIP3   OH234973   4.984   4.777  19.426  0.5293 -0.7868  0.0366
 3593TIP3    H134974   5.076   4.760  19.447  0.8902  1.1434  0.1598
 3593TIP3    H234975   4.972   4.870  19.445 -1.1299 -0.7223 -1.1544
 3594TIP3   OH234976   0.741   4.908  19.526 -0.2606 -0.2541 -0.1745
 3594TIP3    H134977   0.791   4.989  19.528  0.6603 -0.8113  1.8339
 3594TIP3    H234978   0.802   4.841  19.556 -1.3464 -1.4944 -0.6225
 3595TIP3   OH234979   2.430   4.205  16.979 -0.1101 -0.6943 -0.6308
 3595TIP3    H134980   2.412   4.208  17.073  0.2528  1.2379 -0.5852
 3595TIP3    H234981   2.502   4.267  16.966 -0.9437 -0.0032 -2.3182
 3596TIP3   OH234982   4.723   0.654  19.901 -0.1776 -0.6343 -0.2075
 3596TIP3    H134983   4.705   0.736  19.947 -0.6179 -0.8321 -0.0310
 3596TIP3    H234984   4.818   0.645  19.905  0.1059  0.8323 -1.8390
 3597TIP3   OH234985   6.546   0.113  17.120 -0.1674 -0.1516 -0.5510
 3597TIP3    H134986   6.565   0.181  17.185 -0.1537  0.3319 -1.0621
 3597TIP3    H234987   6.631   0.072  17.102  0.4097  1.7588 -2.5573
 3598TIP3   OH234988   0.338   4.231  19.704  0.2114  0.0853  0.7131
 3598TIP3    H134989   0.315   4.177  19.629 -0.3268 -1.0172  1.6361
 3598TIP3    H234990   0.255   4.271  19.730  0.9649  3.3832 -1.4097
 3599TIP3   OH234991   6.604   6.440  19.101  0.3965  0.0243 -0.1612
 3599TIP3    H134992   6.699   6.437  19.118  0.5326  0.4264 -0.7843
 3599TIP3    H234993   6.576   6.523  19.139  0.4686  0.3323 -0.7687
 3600TIP3   OH234994   1.503   0.568  17.691 -0.1447  0.1567 -0.3245
 3600TIP3    H134995   1.464   0.503  17.632 -0.7680  0.7793 -0.6042
 3600TIP3    H234996   1.556   0.516  17.752  0.0982 -0.5362 -1.1087
 3601TIP3   OH234997   5.758   0.451  19.239  0.3529  0.6214 -0.1841
 3601TIP3    H134998   5.701   0.495  19.176  0.8093  2.8620  0.8565
 3601TIP3    H234999   5.818   0.519  19.269  0.4083 -0.4201  2.3683
 3602TIP3   OH235000   1.244   0.196  19.089 -0.2470 -0.4322 -0.4278
 3602TIP3    H135001   1.339   0.192  19.101 -0.2629 -1.6330 -0.6017
 3602TIP3    H235002   1.216   0.267  19.148  0.5057 -1.5169  1.3173
 3603TIP3   OH235003   6.391   2.952  20.178  0.2130 -0.4582  0.1452
 3603TIP3    H135004   6.415   2.873  20.130 -0.1572  0.4018 -1.5408
 3603TIP3    H235005   6.296   2.953  20.178  0.1880 -0.8321  1.6154
 3604TIP3   OH235006   0.617   3.869  19.325 -0.5424 -0.2782  0.3483
 3604TIP3    H135007   0.640   3.806  19.256 -1.3106  0.1273 -0.2977
 3604TIP3    H235008   0.631   3.955  19.286 -1.0764 -0.0407  0.6622
 3605TIP3   OH235009   0.751   5.818  19.229  0.1121 -0.2563  0.6066
 3605TIP3    H135010   0.844   5.812  19.208  0.8083  2.4708  2.3948
 3605TIP3    H235011   0.749   5.856  19.317 -2.7011 -2.6046  1.7077
 3606TIP3   OH235012   1.391   1.947  17.931 -0.0823  0.6483  0.0739
 3606TIP3    H135013   1.460   1.889  17.897  0.1862  1.1468 -0.2468
 3606TIP3    H235014   1.312   1.893  17.932  0.3158  0.0574  0.4742
 3607TIP3   OH235015   5.600   3.276  17.246  0.3337 -0.6875 -0.0474
 3607TIP3    H135016   5.529   3.213  17.259 -0.1769 -0.1349 -0.1018
 3607TIP3    H235017   5.610   3.317  17.332 -0.0697 -0.0922 -0.2799
 3608TIP3   OH235018   3.086   1.041  17.167  0.2269  0.4189  0.4140
 3608TIP3    H135019   3.180   1.047  17.153  0.2779  1.6638  1.1417
 3608TIP3    H235020   3.050   1.116  17.119 -0.5944 -0.9849 -1.2924
 3609TIP3   OH235021   5.520   0.390  20.185 -0.2742  0.3999 -0.0607
 3609TIP3    H135022   5.536   0.390  20.280 -1.1192  2.6777  0.1566
 3609TIP3    H235023   5.433   0.352  20.176 -0.1893  0.1689  0.0709
 3610TIP3   OH235024   2.069   5.492  19.203 -0.9592 -0.4646  0.2128
 3610TIP3    H135025   2.015   5.572  19.207 -0.2343  0.0647 -0.2250
 3610TIP3    H235026   2.108   5.485  19.290 -0.3731  0.1377  0.0066
 3611TIP3   OH235027   3.691   5.703  17.963 -0.7359 -0.2257  0.3712
 3611TIP3    H135028   3.632   5.764  18.008 -1.7767 -1.0216  0.1083
 3611TIP3    H235029   3.633   5.642  17.918  0.2871 -0.4009 -0.7663
 3612TIP3   OH235030   1.648   3.471  17.662 -0.1654  0.5292  0.2202
 3612TIP3    H135031   1.654   3.536  17.593  0.5984 -1.0274 -1.2362
 3612TIP3    H235032   1.738   3.449  17.683 -0.4094 -0.9676 -0.2147
 3613TIP3   OH235033   0.034   3.945  20.197 -0.2553 -0.3644 -0.0276
 3613TIP3    H135034   0.035   3.859  20.156  0.3571 -0.8952  1.0484
 3613TIP3    H235035  -0.055   3.953  20.233 -0.8393  0.1649 -1.5226
 3614TIP3   OH235036   6.037   1.537  17.862 -0.1360 -0.2651 -0.0875
 3614TIP3    H135037   6.009   1.463  17.808 -1.3754 -0.8222  1.2442
 3614TIP3    H235038   5.989   1.526  17.944  1.1006  0.9705  0.8509
 3615TIP3   OH235039   2.256   3.899  19.790 -0.2007 -0.0633 -0.5861
 3615TIP3    H135040   2.345   3.922  19.820 -0.0551 -1.9500  0.5778
 3615TIP3    H235041   2.268   3.871  19.700  0.0258  1.7433 -1.1522
 3616TIP3   OH235042   1.744   5.727  19.372  0.4453  0.7084  0.0720
 3616TIP3    H135043   1.726   5.681  19.290  1.8796  1.0871 -0.4828
 3616TIP3    H235044   1.701   5.674  19.439  2.5784 -1.8392 -0.4552
 3617TIP3   OH235045   5.789   3.944  17.164  0.6095 -0.2368  0.1748
 3617TIP3    H135046   5.700   3.981  17.164  0.4336 -0.5823 -1.8181
 3617TIP3    H235047   5.843   4.013  17.203 -0.6392 -0.4567  2.5486
 3618TIP3   OH235048   3.894   4.898  19.115  0.2139 -0.6709 -0.1886
 3618TIP3    H135049   3.894   4.952  19.036  0.5313  0.9299  0.8374
 3618TIP3    H235050   3.912   4.809  19.085  0.9435  0.0027 -1.8354
 3619TIP3   OH235051   4.926   0.599  19.064 -0.2097 -0.0856  0.0922
 3619TIP3    H135052   4.907   0.517  19.018 -1.0948 -0.5065  1.1769
 3619TIP3    H235053   4.982   0.647  19.004  1.2126 -1.9299 -0.1531
 3620TIP3   OH235054   5.642   4.841  19.004  0.4047  0.1561 -0.1607
 3620TIP3    H135055   5.659   4.848  19.098  0.1519  0.8186 -0.1606
 3620TIP3    H235056   5.680   4.757  18.979  0.1067 -0.2180  0.6146
 3621TIP3   OH235057   4.041   3.811  19.544 -0.2037 -0.0897 -0.4425
 3621TIP3    H135058   4.122   3.822  19.593 -0.6735 -0.0163  0.3271
 3621TIP3    H235059   3.975   3.860  19.594 -0.4282  1.1140 -1.8474
 3622TIP3   OH235060   2.429   3.154  19.130 -0.2053  0.3721  0.0348
 3622TIP3    H135061   2.341   3.143  19.096 -0.1465  0.0352 -0.0137
 3622TIP3    H235062   2.483   3.175  19.053 -0.2006  0.3227  0.0240
 3623TIP3   OH235063   4.577   0.435  19.415 -0.4342 -0.2556  0.0492
 3623TIP3    H135064   4.631   0.426  19.337 -2.0046 -0.6869 -1.0472
 3623TIP3    H235065   4.637   0.462  19.484  0.9373  0.4903 -1.3886
 3624TIP3   OH235066   0.270   6.682  20.022  0.0915  0.0390  0.0544
 3624TIP3    H135067   0.317   6.695  20.105  0.6201  1.7865 -0.4647
 3624TIP3    H235068   0.178   6.693  20.046  0.3163  1.8068  0.2427
 3625TIP3   OH235069   6.417   3.820  18.275 -0.3159 -0.3095 -0.0987
 3625TIP3    H135070   6.333   3.856  18.247 -0.4669  0.6445  1.4284
 3625TIP3    H235071   6.478   3.893  18.267  0.4818 -1.1038 -1.5598
 3626TIP3   OH235072   0.240   0.341  19.244  0.2675 -0.0432  0.2216
 3626TIP3    H135073   0.286   0.270  19.288  1.3766 -0.1526 -1.0558
 3626TIP3    H235074   0.260   0.419  19.297  1.6512 -0.1501 -0.1306
 3627TIP3   OH235075   6.296   1.732  19.351  0.0336  0.4727  0.0767
 3627TIP3    H135076   6.362   1.663  19.362  0.3443  0.0500 -3.1793
 3627TIP3    H235077   6.213   1.689  19.370  0.4318  0.0108  0.8125
 3628TIP3   OH235078   6.680   4.043  18.915  0.3317  0.0945 -0.0330
 3628TIP3    H135079   6.655   3.981  18.847  2.0993  0.3246 -0.9233
 3628TIP3    H235080   6.599   4.055  18.966 -1.5584  1.1178 -2.9746
 3629TIP3   OH235081   2.000   4.378  17.478 -0.7462  0.8108  0.1841
 3629TIP3    H135082   1.971   4.432  17.551  0.1095 -0.1817  1.3189
 3629TIP3    H235083   2.093   4.364  17.494 -1.0941 -1.7515  0.5213
 3630TIP3   OH235084   0.779   4.322  17.655  0.0550 -0.1881 -0.1585
 3630TIP3    H135085   0.789   4.368  17.738  0.5106  0.2206 -0.4340
 3630TIP3    H235086   0.711   4.370  17.609 -0.1290 -0.3563 -0.0642
 3631TIP3   OH235087   5.126   6.127  18.713 -0.2054 -0.8595  0.6545
 3631TIP3    H135088   5.158   6.106  18.625 -0.4762 -0.8852  0.5615
 3631TIP3    H235089   5.037   6.091  18.715 -0.1334 -1.0258  1.0022
 3632TIP3   OH235090   5.320   5.845  19.133 -0.2434 -0.2026  0.7208
 3632TIP3    H135091   5.320   5.898  19.053 -0.8179 -0.0053  0.8498
 3632TIP3    H235092   5.357   5.902  19.200  0.9764 -0.6234  0.4422
 3633TIP3   OH235093   0.762   3.658  18.916 -0.2021 -1.2344 -0.0986
 3633TIP3    H135094   0.703   3.640  18.990 -1.5465  0.9897 -0.5094
 3633TIP3    H235095   0.710   3.637  18.839 -0.7305  1.1078 -0.4771
 3634TIP3   OH235096   4.049   1.876  16.730 -0.6859 -0.1958 -0.2410
 3634TIP3    H135097   4.042   1.920  16.645  0.3243 -0.3243 -0.4050
 3634TIP3    H235098   4.142   1.882  16.752 -0.3871 -2.6726 -0.5010
 3635TIP3   OH235099   6.505   5.823  18.734 -0.0269  0.2583  0.7328
 3635TIP3    H135100   6.517   5.877  18.656  0.0980  0.0627  0.6159
 3635TIP3    H235101   6.512   5.884  18.807  0.1580  0.3932  0.6033
 3636TIP3   OH235102   2.527   2.246  19.914 -0.0807  0.1399 -0.2411
 3636TIP3    H135103   2.540   2.152  19.924  0.0724  0.0432 -1.1954
 3636TIP3    H235104   2.545   2.283  20.000 -1.2314 -0.8060  0.4203
 3637TIP3   OH235105   2.984   2.437  18.470  0.2865 -0.3913  0.0889
 3637TIP3    H135106   3.017   2.375  18.405  1.3524 -0.4707  0.6786
 3637TIP3    H235107   2.945   2.382  18.537 -1.2176 -0.2909 -0.6779
 3638TIP3   OH235108   4.927   3.731  19.840  0.6036  0.0751  0.0308
 3638TIP3    H135109   4.924   3.638  19.815  0.8377  0.2080 -0.4964
 3638TIP3    H235110   4.868   3.737  19.915 -0.4789 -0.2330 -0.7677
 3639TIP3   OH235111   5.538   0.964  20.348 -0.1133 -0.8910 -0.0194
 3639TIP3    H135112   5.562   1.049  20.385 -1.4035 -0.8296  0.7430
 3639TIP3    H235113   5.610   0.906  20.374  0.2777 -0.2662  0.3349
 3640TIP3   OH235114   4.930   1.993  18.192 -0.0707  0.3884 -0.4934
 3640TIP3    H135115   5.018   2.021  18.218 -0.3996 -0.2064  1.4255
 3640TIP3    H235116   4.907   1.924  18.254 -2.5367  1.6394  0.1333
 3641TIP3   OH235117   1.910   4.945  18.485 -0.4628  0.6696 -0.5379
 3641TIP3    H135118   1.988   4.977  18.531 -1.0167 -1.0670  1.8023
 3641TIP3    H235119   1.839   5.000  18.517 -0.7034  0.0800 -0.0434
 3642TIP3   OH235120   6.270   6.698  18.451  0.2145  0.2434 -0.2543
 3642TIP3    H135121   6.206   6.754  18.495 -2.1924 -1.9293 -0.7695
 3642TIP3    H235122   6.262   6.720  18.358 -0.7960 -0.9398 -0.4671
 3643TIP3   OH235123   5.725   2.090  17.924 -0.4495  0.2831  0.3757
 3643TIP3    H135124   5.790   2.057  17.985  0.1350  0.1858 -0.2882
 3643TIP3    H235125   5.680   2.012  17.891 -0.6079  0.3186  0.5055
 3644TIP3   OH235126   1.542   3.481  18.210 -0.1279 -0.1012  0.3420
 3644TIP3    H135127   1.612   3.546  18.217  1.9450 -2.2343  0.6541
 3644TIP3    H235128   1.504   3.478  18.298  1.6574 -1.2126  1.1369
 3645TIP3   OH235129   1.780   1.389  18.414  0.5365 -0.6901  0.2319
 3645TIP3    H135130   1.744   1.435  18.490  1.8872  0.5823  0.1529
 3645TIP3    H235131   1.850   1.334  18.451  0.9325 -0.3713 -0.0372
 3646TIP3   OH235132   6.116   1.579  16.985  0.2260 -0.4136 -0.3266
 3646TIP3    H135133   6.048   1.645  16.971 -0.2663 -1.0119 -0.8319
 3646TIP3    H235134   6.178   1.592  16.913  0.4429 -0.1145 -0.0843
 3647TIP3   OH235135   4.305   6.168  19.461 -0.3587  0.0644  0.2315
 3647TIP3    H135136   4.237   6.198  19.400 -0.8488 -0.4876  0.4996
 3647TIP3    H235137   4.309   6.073  19.448  0.5621  0.1210  0.0213
 3648TIP3   OH235138   0.478   2.768  16.824  0.3688 -0.6185 -0.1191
 3648TIP3    H135139   0.517   2.795  16.907 -0.0150 -0.2574 -0.0528
 3648TIP3    H235140   0.501   2.675  16.816  1.2398 -0.4202 -0.0872
 3649TIP3   OH235141   1.926   3.596  19.370 -0.0098 -0.2802 -0.3734
 3649TIP3    H135142   1.945   3.569  19.280 -2.5774 -1.7619 -0.5782
 3649TIP3    H235143   1.994   3.554  19.422  2.2394  1.5730 -1.6505
 3650TIP3   OH235144   1.266   1.489  19.956  0.1020  0.4247  0.1867
 3650TIP3    H135145   1.193   1.521  19.903  0.1338 -0.7047 -0.5507
 3650TIP3    H235146   1.324   1.445  19.894 -0.6298 -2.3393  1.3110
 3651TIP3   OH235147   0.319   2.188  17.902  0.0383 -0.0646 -0.3932
 3651TIP3    H135148   0.228   2.193  17.932  0.3745  0.4460  0.5898
 3651TIP3    H235149   0.361   2.263  17.945  0.9487 -0.3808 -0.7364
 3652TIP3   OH235150   5.257   2.878  18.646  0.2483  0.0867 -0.3417
 3652TIP3    H135151   5.256   2.842  18.558 -0.4995  0.1911 -0.3821
 3652TIP3    H235152   5.224   2.807  18.702  0.5201  0.0913 -0.1718
 3653TIP3   OH235153   4.581   6.360  18.672 -0.3683 -0.0376 -0.6791
 3653TIP3    H135154   4.667   6.398  18.692 -0.9288  1.0173 -0.1712
 3653TIP3    H235155   4.519   6.422  18.709 -1.3570 -0.8270 -0.9818
 3654TIP3   OH235156   3.660   0.293  17.305  0.1015  0.2351  0.0625
 3654TIP3    H135157   3.721   0.349  17.257  0.8034 -0.2727  0.3421
 3654TIP3    H235158   3.659   0.329  17.394  0.4943 -0.1410  0.2229
 3655TIP3   OH235159   1.491   0.871  19.925 -0.4640 -0.1726  0.3324
 3655TIP3    H135160   1.506   0.965  19.923 -1.2569  0.0395  2.1019
 3655TIP3    H235161   1.564   0.836  19.974 -1.6875 -0.0619  2.3359
 3656TIP3   OH235162   5.085   0.700  20.420  0.3627  0.2354  0.1787
 3656TIP3    H135163   5.071   0.636  20.491 -2.7013  1.1238  0.5078
 3656TIP3    H235164   5.043   0.661  20.344  1.0333  0.6060 -0.3898
 3657TIP3   OH235165   1.259   2.742  20.303  0.0571  0.2059  0.0098
 3657TIP3    H135166   1.220   2.827  20.322 -0.8514  0.0974 -1.3076
 3657TIP3    H235167   1.349   2.762  20.277  0.1038  0.6808  0.5270
 3658TIP3   OH235168   4.121   1.109  18.666 -0.2309 -0.2355 -0.2225
 3658TIP3    H135169   4.114   1.058  18.586 -1.1282  1.1316 -1.0558
 3658TIP3    H235170   4.194   1.070  18.714 -0.1197 -1.4980 -1.3795
 3659TIP3   OH235171   0.946   4.552  17.046  0.1095  0.4119 -0.4805
 3659TIP3    H135172   0.991   4.468  17.041  0.2308  0.4810 -0.5859
 3659TIP3    H235173   0.880   4.541  17.114 -0.8625 -0.2315 -1.5088
 3660TIP3   OH235174   3.727   4.434  18.270 -0.0028  0.1823  0.3927
 3660TIP3    H135175   3.697   4.492  18.340 -1.1289  0.2664 -0.1305
 3660TIP3    H235176   3.764   4.493  18.204  2.6874  0.0017  1.6060
 3661TIP3   OH235177   0.186   3.166  20.156  0.3356  0.2403 -0.2188
 3661TIP3    H135178   0.269   3.134  20.122  0.5027 -0.0784  0.4818
 3661TIP3    H235179   0.139   3.087  20.183  0.2160  0.4892  0.3151
 3662TIP3   OH235180   1.213   0.533  19.795  1.2920 -0.4917  0.0307
 3662TIP3    H135181   1.243   0.520  19.706  1.4070  2.6099 -0.4882
 3662TIP3    H235182   1.293   0.534  19.848  1.2731 -1.6629  0.1071
 3663TIP3   OH235183   3.353   4.460  17.465 -0.0263 -0.1829  0.0840
 3663TIP3    H135184   3.335   4.391  17.529  1.6395  0.1126  0.9125
 3663TIP3    H235185   3.279   4.455  17.404 -0.9549 -1.3775  1.2370
 3664TIP3   OH235186   2.990   4.767  18.378 -0.6900 -0.0879 -0.1357
 3664TIP3    H135187   3.013   4.674  18.372  1.3707  0.3965 -0.4795
 3664TIP3    H235188   2.929   4.781  18.306 -0.7006 -1.0787 -0.3412
 3665TIP3   OH235189   4.696   3.268  17.867 -0.4714 -0.1716 -0.1427
 3665TIP3    H135190   4.662   3.244  17.781 -1.2133  0.0422  0.0821
 3665TIP3    H235191   4.784   3.230  17.870 -1.0842 -1.6616 -0.3260
 3666TIP3   OH235192   1.376   3.124  17.082  1.1178  0.3298  0.2408
 3666TIP3    H135193   1.334   3.167  17.157  0.3000  0.3512 -0.2130
 3666TIP3    H235194   1.469   3.127  17.102  0.9638  0.9528  0.9333
 3667TIP3   OH235195   0.216   1.984  16.434 -0.8265 -0.5944 -0.2691
 3667TIP3    H135196   0.252   2.046  16.371 -0.7008  0.3855  0.7302
 3667TIP3    H235197   0.125   1.971  16.405 -0.7540 -0.2061 -0.6816
 3668TIP3   OH235198   2.841   5.901  19.241 -0.3109 -0.2827  0.1304
 3668TIP3    H135199   2.800   5.921  19.156  1.5281 -0.3064 -0.8055
 3668TIP3    H235200   2.876   5.813  19.231  2.0052  0.5853  0.0198
 3669TIP3   OH235201   5.878   6.302  16.654 -0.1200  0.2856  0.5001
 3669TIP3    H135202   5.871   6.224  16.709  1.2334 -1.4284 -1.6158
 3669TIP3    H235203   5.912   6.369  16.713  0.4891 -1.2285  1.9683
 3670TIP3   OH235204   0.482   0.832  18.442 -0.3056  0.1435 -0.2508
 3670TIP3    H135205   0.433   0.863  18.519  1.2483  1.6544  0.2050
 3670TIP3    H235206   0.563   0.798  18.479 -1.3314 -3.3572 -0.8825
 3671TIP3   OH235207   3.659   2.639  19.971 -0.1795 -0.2838  0.5251
 3671TIP3    H135208   3.744   2.612  19.935  0.6194  0.4225  1.7952
 3671TIP3    H235209   3.671   2.632  20.066 -1.3679  0.3691  0.7340
 3672TIP3   OH235210   2.120   0.685  18.878 -0.5627  0.4826 -0.1123
 3672TIP3    H135211   2.064   0.670  18.801 -0.9206  1.3992 -0.0413
 3672TIP3    H235212   2.115   0.779  18.893  0.7531  0.5333  0.1006
 3673TIP3   OH235213   6.103   2.303  18.681  0.4982 -0.0952 -0.1024
 3673TIP3    H135214   6.139   2.359  18.750 -0.8110 -2.6473  2.8843
 3673TIP3    H235215   6.167   2.232  18.673  0.8168  0.3596 -1.8717
 3674TIP3   OH235216   0.896   0.388  18.327  0.4873  0.3042 -0.0171
 3674TIP3    H135217   0.848   0.345  18.398 -0.1822 -0.5923 -0.9783
 3674TIP3    H235218   0.972   0.427  18.369  0.2253 -0.4184  1.1573
 3675TIP3   OH235219   5.612   3.382  16.950 -0.0704  0.4756 -0.0306
 3675TIP3    H135220   5.691   3.432  16.967  0.0520  0.5628 -0.8458
 3675TIP3    H235221   5.591   3.341  17.034  1.6916 -0.7705 -0.1509
 3676TIP3   OH235222   4.007   6.597  19.333 -0.0354 -0.3734 -0.2573
 3676TIP3    H135223   3.965   6.682  19.324  0.4231 -0.2375 -1.3442
 3676TIP3    H235224   3.936   6.537  19.355 -0.3127  0.3323  0.8311
 3677TIP3   OH235225   6.127   1.406  16.688  0.1043 -0.2205 -0.2519
 3677TIP3    H135226   6.168   1.320  16.688  0.8937  0.1421  0.5682
 3677TIP3    H235227   6.199   1.467  16.704 -0.9235  0.2885  3.4969
 3678TIP3   OH235228   4.411   5.434  19.350 -0.0014  0.3118  0.8982
 3678TIP3    H135229   4.364   5.505  19.393 -0.8045  0.6506 -0.4676
 3678TIP3    H235230   4.348   5.362  19.345 -0.7797  1.0676 -1.7439
 3679TIP3   OH235231   3.305   1.085  18.985  0.0682 -0.0975  0.4771
 3679TIP3    H135232   3.345   1.153  19.039  2.2053  0.6791 -1.8978
 3679TIP3    H235233   3.230   1.128  18.944 -1.0054 -0.4240  2.0066
 3680TIP3   OH235234   0.154   5.922  19.234 -0.3544  0.0089  0.2542
 3680TIP3    H135235   0.249   5.919  19.238 -0.2715 -1.2534 -1.4301
 3680TIP3    H235236   0.132   5.872  19.155 -2.3117  1.7468 -0.3982
 3681TIP3   OH235237   3.021   3.778  18.536  0.5937 -0.4104  0.9269
 3681TIP3    H135238   2.953   3.769  18.469  1.3995 -0.3642  0.0879
 3681TIP3    H235239   3.022   3.693  18.581  0.7792 -0.8112  0.1716
 3682TIP3   OH235240   4.839   6.550  19.478 -0.8088 -0.2164  0.4361
 3682TIP3    H135241   4.823   6.493  19.403 -1.4582  0.3939  0.0968
 3682TIP3    H235242   4.753   6.587  19.499 -0.2320  1.5397 -0.1166
 3683TIP3   OH235243   1.332   3.700  17.612  0.4249  0.1225  0.1677
 3683TIP3    H135244   1.366   3.623  17.566 -1.0480 -0.3357 -0.1921
 3683TIP3    H235245   1.326   3.767  17.544  0.6211  0.2114  0.2366
 3684TIP3   OH235246   0.661   0.359  19.270  0.4893 -0.2624  0.0174
 3684TIP3    H135247   0.662   0.438  19.323 -0.1945  0.8806 -1.5988
 3684TIP3    H235248   0.689   0.289  19.330  0.0781  1.0076  1.7520
 3685TIP3   OH235249   4.996   1.036  19.169 -0.2875 -0.5249  0.2921
 3685TIP3    H135250   4.965   1.026  19.259  1.1954  1.0425  1.0605
 3685TIP3    H235251   4.921   1.071  19.121 -0.7466 -0.1966  1.2218
 3686TIP3   OH235252   1.347   1.873  16.719 -0.1170  0.1906  0.7338
 3686TIP3    H135253   1.321   1.785  16.744  0.3411  0.4318  2.1383
 3686TIP3    H235254   1.323   1.880  16.626  1.2705 -1.9548  0.1427
 3687TIP3   OH235255   2.895   1.993  19.122 -0.1606 -0.0687 -0.3517
 3687TIP3    H135256   2.989   1.980  19.108  0.0297  1.3031 -0.4269
 3687TIP3    H235257   2.857   1.906  19.107  1.1317 -0.7389  0.1064
 3688TIP3   OH235258   3.671   1.215  19.606  0.1267 -0.1840  0.1978
 3688TIP3    H135259   3.637   1.162  19.534 -0.1183 -1.0933  0.9642
 3688TIP3    H235260   3.753   1.172  19.631 -0.0318 -0.1544  0.7787
 3689TIP3   OH235261   3.231   1.313  19.929  0.3010 -0.2063 -0.1041
 3689TIP3    H135262   3.143   1.275  19.922 -0.1317  0.8327 -0.6168
 3689TIP3    H235263   3.287   1.254  19.878 -0.1421 -0.7539  0.0321
 3690TIP3   OH235264   3.362   3.674  18.406  0.4527  0.4337  0.2736
 3690TIP3    H135265   3.332   3.765  18.409 -0.7694  0.0213  1.4343
 3690TIP3    H235266   3.436   3.672  18.466 -0.2472  0.4295  1.1558
 3691TIP3   OH235267   0.608   4.644  17.698  0.3656 -0.3190 -0.3465
 3691TIP3    H135268   0.648   4.604  17.775 -0.1605  1.5272  0.9484
 3691TIP3    H235269   0.564   4.571  17.653  0.9994 -1.4949  0.8691
 3692TIP3   OH235270   3.650   4.863  19.987 -0.4596  0.0601  0.4301
 3692TIP3    H135271   3.736   4.893  20.016  0.7197 -2.1905 -0.4819
 3692TIP3    H235272   3.604   4.840  20.068 -0.4950  1.9032  0.9620
 3693TIP3   OH235273   2.872   0.276  19.278 -0.2415 -0.6528  0.1359
 3693TIP3    H135274   2.905   0.252  19.191  1.1626  0.7367  0.2499
 3693TIP3    H235275   2.778   0.293  19.263  0.4249  2.1155 -1.7426
 3694TIP3   OH235276   1.862   2.476  20.009 -0.2688 -0.2081 -0.0925
 3694TIP3    H135277   1.852   2.534  19.933 -0.1978  0.7602  0.6181
 3694TIP3    H235278   1.773   2.454  20.034 -0.2891 -1.8148 -1.3752
 3695TIP3   OH235279   5.622   1.600  18.907 -0.1683 -0.5988  0.2273
 3695TIP3    H135280   5.535   1.631  18.882  0.3677  0.6365 -0.2412
 3695TIP3    H235281   5.663   1.574  18.824  0.5858  0.7449  0.1308
 3696TIP3   OH235282   0.711   2.553  18.134 -0.2064  0.2335  0.0780
 3696TIP3    H135283   0.728   2.488  18.202  1.6827  0.8566  0.2387
 3696TIP3    H235284   0.666   2.504  18.065 -0.3395 -0.8464  0.9059
 3697TIP3   OH235285   1.706   5.620  17.539  1.1422 -0.0681  0.3298
 3697TIP3    H135286   1.654   5.687  17.495  0.5006 -1.5805 -1.3285
 3697TIP3    H235287   1.786   5.614  17.487  1.2621 -0.4799  0.5585
 3698TIP3   OH235288   0.611   1.658  20.605 -0.0404 -0.0271  0.3348
 3698TIP3    H135289   0.520   1.689  20.609  0.5732  1.8222  0.5308
 3698TIP3    H235290   0.606   1.579  20.551 -1.9175 -0.5891  1.2485
 3699TIP3   OH235291   4.989   0.931  17.739  0.1775  0.3565 -0.3522
 3699TIP3    H135292   4.985   0.959  17.831 -1.6275  0.7038 -0.4964
 3699TIP3    H235293   4.986   0.836  17.743 -0.5202  0.3772 -0.0340
 3700TIP3   OH235294   6.710   3.792  19.762  0.2021 -0.3580  0.0733
 3700TIP3    H135295   6.785   3.847  19.739 -0.2645  0.5324  0.6471
 3700TIP3    H235296   6.634   3.838  19.727 -0.0192 -1.7605 -1.3967
 3701TIP3   OH235297   2.659   1.029  18.665  0.3332  1.1444  0.2405
 3701TIP3    H135298   2.754   1.016  18.673  0.5114  0.9338 -1.6815
 3701TIP3    H235299   2.637   0.992  18.580 -1.5615  0.8595  0.7966
 3702TIP3   OH235300   4.177   5.998  18.384  0.6388 -0.3754  0.3770
 3702TIP3    H135301   4.271   6.001  18.398  0.7060  1.5134 -0.2547
 3702TIP3    H235302   4.142   5.959  18.465  2.0257 -2.4687  0.0305
 3703TIP3   OH235303   1.530   5.440  17.665  0.8882  0.8271 -0.6325
 3703TIP3    H135304   1.465   5.492  17.618  0.1513  0.3520 -0.1561
 3703TIP3    H235305   1.597   5.504  17.691 -0.2067  1.6458  0.3076
 3704TIP3   OH235306   0.564   2.270  17.683  0.6026  0.0829  0.2636
 3704TIP3    H135307   0.522   2.188  17.713  0.1737  0.4001  0.5440
 3704TIP3    H235308   0.628   2.290  17.752  1.3226 -0.4730 -0.2307
 3705TIP3   OH235309   0.563   5.722  19.966 -0.1332 -0.4631 -0.0707
 3705TIP3    H135310   0.543   5.632  19.990  0.5719 -0.4588  0.5552
 3705TIP3    H235311   0.480   5.769  19.978 -0.0501 -0.6586  1.3951
 3706TIP3   OH235312   4.879   4.121  17.884  0.1862  0.0700 -0.0556
 3706TIP3    H135313   4.962   4.136  17.931 -0.2314  0.2190  0.6521
 3706TIP3    H235314   4.823   4.193  17.912  0.0897  0.4604 -1.2035
 3707TIP3   OH235315   0.369   0.942  17.289  0.4269  0.7066 -0.4286
 3707TIP3    H135316   0.434   1.011  17.306  0.5351  0.3396  0.7507
 3707TIP3    H235317   0.418   0.873  17.246  0.7299  0.6241  0.0370
 3708TIP3   OH235318   6.019   3.012  19.951 -0.0922  0.4060 -0.5647
 3708TIP3    H135319   5.948   3.047  19.896  0.3541  0.2118 -1.2663
 3708TIP3    H235320   6.010   3.060  20.034  1.1286  3.0011 -1.8209
 3709TIP3   OH235321   0.841   5.997  19.464  0.2086 -0.2567 -0.7247
 3709TIP3    H135322   0.909   6.018  19.400 -0.3019  0.1700 -1.1399
 3709TIP3    H235323   0.879   5.928  19.518  0.0473 -1.8535 -2.5407
 3710TIP3   OH235324   2.812   6.176  19.563 -0.2124  0.1623  0.5153
 3710TIP3    H135325   2.868   6.193  19.488 -1.0467  0.3155 -0.0828
 3710TIP3    H235326   2.739   6.237  19.554 -2.0551 -2.0070 -0.3745
 3711TIP3   OH235327   0.473   0.316  19.084  0.2899  0.1512  0.0355
 3711TIP3    H135328   0.535   0.328  19.156 -0.9294 -2.3923  1.6550
 3711TIP3    H235329   0.390   0.348  19.118  0.2829  1.9658 -1.5156
 3712TIP3   OH235330   5.594   3.641  17.273  0.3999 -0.0644  0.1467
 3712TIP3    H135331   5.611   3.581  17.345 -0.4945 -1.1384 -0.5043
 3712TIP3    H235332   5.501   3.629  17.253  0.5087  0.6041 -0.8486
 3713TIP3   OH235333   0.454   2.956  15.948  0.3671 -0.5047 -0.0439
 3713TIP3    H135334   0.547   2.966  15.931  0.1222 -0.7523 -1.6981
 3713TIP3    H235335   0.429   2.875  15.902 -0.7196 -0.2735  0.1008
 3714TIP3   OH235336   4.172   2.014  18.185  0.0816  0.3383  0.1098
 3714TIP3    H135337   4.158   1.927  18.147  1.6708  0.3307 -0.5580
 3714TIP3    H235338   4.109   2.070  18.139 -1.1708 -0.4893  0.7639
 3715TIP3   OH235339   2.836   1.021  18.118 -0.4819  0.0048 -0.2773
 3715TIP3    H135340   2.790   0.966  18.054  0.8602 -0.8774 -0.5351
 3715TIP3    H235341   2.855   1.102  18.071  0.0190 -0.4260 -0.8315
 3716TIP3   OH235342   6.233   4.196  17.084  0.2317  0.0787  0.1771
 3716TIP3    H135343   6.234   4.261  17.154  0.9429 -0.8140  1.0135
 3716TIP3    H235344   6.222   4.248  17.004  1.0999  1.2499  0.7958
 3717TIP3   OH235345   0.479   3.507  18.993 -0.0025  0.0672 -0.2462
 3717TIP3    H135346   0.480   3.546  18.906 -0.0374 -1.0519 -0.7619
 3717TIP3    H235347   0.425   3.429  18.984 -1.0399  0.5931  1.0864
 3718TIP3   OH235348   2.534   0.567  17.325  0.4863 -0.4537  0.1969
 3718TIP3    H135349   2.508   0.530  17.410 -1.0150 -0.0638 -0.0555
 3718TIP3    H235350   2.469   0.635  17.308  2.6120  1.6834  0.1786
 3719TIP3   OH235351   2.404   2.014  18.785  0.2163 -0.4240  0.1222
 3719TIP3    H135352   2.383   1.961  18.708 -0.7495 -1.8884  1.3519
 3719TIP3    H235353   2.469   1.962  18.833  1.7139  1.0207 -0.2606
 3720TIP3   OH235354   0.249   0.800  18.604 -0.2440 -0.0018  0.1896
 3720TIP3    H135355   0.307   0.776  18.676  0.8144  1.6235 -0.0829
 3720TIP3    H235356   0.165   0.758  18.626 -0.0224  0.6571  2.5020
 3721TIP3   OH235357   5.627   6.636  18.162 -0.1046  0.3119 -0.1444
 3721TIP3    H135358   5.635   6.559  18.220 -3.0651 -0.4103 -0.5452
 3721TIP3    H235359   5.707   6.634  18.109  0.3559 -1.9363  0.5165
 3722TIP3   OH235360   6.134   2.664  17.618  0.0493  0.8952  0.1126
 3722TIP3    H135361   6.208   2.724  17.627 -0.6814  1.7433  0.4750
 3722TIP3    H235362   6.079   2.704  17.551  0.7086 -0.5612 -1.3696
 3723TIP3   OH235363   5.778   4.672  17.356  0.1649 -0.5673 -0.3386
 3723TIP3    H135364   5.778   4.758  17.400  1.2446 -0.8859  0.3122
 3723TIP3    H235365   5.751   4.611  17.425  0.2340 -0.8616 -0.5776
 3724TIP3   OH235366   3.164   5.739  18.244  0.0165  0.0512  0.4771
 3724TIP3    H135367   3.137   5.658  18.201  0.8990 -0.9893  1.7893
 3724TIP3    H235368   3.183   5.799  18.172 -0.4332 -0.9737 -0.5342
 3725TIP3   OH235369   2.940   2.771  18.678  0.2108  0.2698  0.4334
 3725TIP3    H135370   2.898   2.814  18.752  0.2484  1.1307 -0.0307
 3725TIP3    H235371   2.929   2.833  18.605  0.0411 -0.6227 -0.3156
 3726TIP3   OH235372   0.366   0.488  17.526 -0.3927  0.2040 -0.3076
 3726TIP3    H135373   0.339   0.557  17.586  0.8111 -0.0205  0.5256
 3726TIP3    H235374   0.330   0.515  17.441 -1.1815  1.0871  0.2876
 3727TIP3   OH235375   4.645   0.072  18.577 -0.4275  0.3080 -0.0637
 3727TIP3    H135376   4.741   0.076  18.582 -0.4242  0.0160  0.1085
 3727TIP3    H235377   4.627   0.043  18.488 -0.3396 -0.0885  0.0424
 3728TIP3   OH235378   4.264   4.455  18.181  0.5321  0.0320 -0.0572
 3728TIP3    H135379   4.259   4.437  18.275 -1.8103  2.9037  0.4849
 3728TIP3    H235380   4.354   4.484  18.167  1.1134 -1.1009  1.1283
 3729TIP3   OH235381   5.080   5.347  18.465 -0.3182 -0.1215  0.7657
 3729TIP3    H135382   5.071   5.425  18.410 -1.0141 -0.3606  0.5250
 3729TIP3    H235383   5.037   5.371  18.547 -2.5022 -0.9438 -0.0511
 3730TIP3   OH235384   0.544   4.405  17.533  0.1734 -0.1550 -0.0127
 3730TIP3    H135385   0.552   4.316  17.500 -1.6776 -1.1036  1.8341
 3730TIP3    H235386   0.526   4.458  17.456  0.5953 -1.4828 -1.0653
 3731TIP3   OH235387   1.681   4.189  19.560  0.1600  0.3156 -0.7016
 3731TIP3    H135388   1.619   4.143  19.504 -0.2689  0.0860 -0.0599
 3731TIP3    H235389   1.642   4.276  19.572 -0.7914 -0.2757  0.8374
 3732TIP3   OH235390   1.379   5.153  19.807 -0.5017  0.4435  0.1394
 3732TIP3    H135391   1.407   5.209  19.735 -1.3464 -0.6754 -1.1048
 3732TIP3    H235392   1.433   5.180  19.881  1.0149  1.0282 -1.1341
 3733TIP3   OH235393   0.766   1.235  19.959 -0.3228 -0.1727  0.1298
 3733TIP3    H135394   0.752   1.216  20.052 -0.8555  0.3980  0.1772
 3733TIP3    H235395   0.827   1.168  19.929  1.1392  0.5583  1.2834
 3734TIP3   OH235396   0.133   1.714  20.244  0.0262  0.1218  0.2586
 3734TIP3    H135397   0.140   1.808  20.260 -0.5299 -0.1235  2.2323
 3734TIP3    H235398   0.051   1.704  20.195  0.8685  0.7671 -1.3519
 3735TIP3   OH235399   0.487   6.164  18.807 -0.4071 -0.0963  0.1223
 3735TIP3    H135400   0.500   6.213  18.725 -1.8179 -0.1035 -0.1230
 3735TIP3    H235401   0.576   6.153  18.841  0.1062  1.0620 -0.7314
 3736TIP3   OH235402   5.614   1.827  18.196  0.3996  0.6942 -0.1116
 3736TIP3    H135403   5.661   1.898  18.152  0.4337 -0.0524 -1.3001
 3736TIP3    H235404   5.644   1.747  18.153 -1.3345  0.1330 -0.3313
 3737TIP3   OH235405   2.423   5.127  19.919 -0.1203 -0.7481  0.0868
 3737TIP3    H135406   2.465   5.074  19.987 -0.5314  0.3476  1.2625
 3737TIP3    H235407   2.469   5.211  19.924  0.7598 -1.0559 -1.9725
 3738TIP3   OH235408   0.236   4.889  17.811 -0.4974 -0.5283 -0.2778
 3738TIP3    H135409   0.330   4.902  17.821 -0.2785 -1.5512 -0.8128
 3738TIP3    H235410   0.228   4.819  17.746 -1.6511  0.1657 -0.9252
 3739TIP3   OH235411   2.757   6.553  19.155  0.1904 -0.2978  0.2278
 3739TIP3    H135412   2.694   6.618  19.185  1.1884  1.3780 -1.1780
 3739TIP3    H235413   2.744   6.548  19.060  2.0443 -0.0274 -0.0734
 3740TIP3   OH235414   3.795   5.654  18.814 -0.2005 -0.0046  0.2436
 3740TIP3    H135415   3.841   5.600  18.749  1.7623  1.8174  0.0395
 3740TIP3    H235416   3.859   5.720  18.840 -2.5388  2.3719  0.3307
 3741TIP3   OH235417   2.814   6.321  18.602 -0.2873  0.1823 -0.0761
 3741TIP3    H135418   2.777   6.332  18.690  0.0194 -0.5487  0.1511
 3741TIP3    H235419   2.787   6.232  18.576  1.3118 -0.3878  0.1056
 3742TIP3   OH235420   5.438   0.101  17.211  0.2395 -0.2251  0.2373
 3742TIP3    H135421   5.372   0.119  17.279  1.3438  4.2070  0.3868
 3742TIP3    H235422   5.394   0.121  17.129  0.8196  0.9750  0.2038
 3743TIP3   OH235423   6.663   2.708  18.784  1.3038  0.6192 -0.1319
 3743TIP3    H135424   6.715   2.729  18.861  1.3585  2.0440 -0.5257
 3743TIP3    H235425   6.581   2.756  18.797  0.7815 -0.1955 -0.3460
 3744TIP3   OH235426   1.436   4.902  20.127 -0.5872 -0.5565  0.1602
 3744TIP3    H135427   1.363   4.963  20.126  0.8722  1.2781 -1.6821
 3744TIP3    H235428   1.514   4.957  20.120  0.9522 -2.5108  0.8716
 3745TIP3   OH235429   0.412   3.431  17.827 -0.3406  0.6210  0.5276
 3745TIP3    H135430   0.450   3.495  17.887 -1.7881  1.8770  0.1658
 3745TIP3    H235431   0.426   3.468  17.740  1.9697 -1.3013 -0.0357
 3746TIP3   OH235432   1.690   0.418  17.827 -0.3761 -0.0447  0.3138
 3746TIP3    H135433   1.702   0.381  17.914  1.0784 -1.1770 -0.3239
 3746TIP3    H235434   1.774   0.403  17.782 -1.3723 -0.3212 -1.5694
 3747TIP3   OH235435   2.676   5.492  19.039 -0.1683 -0.0698  0.0338
 3747TIP3    H135436   2.597   5.459  18.996 -0.1759 -0.6125  0.4523
 3747TIP3    H235437   2.725   5.534  18.969 -0.7999  0.2242 -0.2422
 3748TIP3   OH235438   3.966   5.363  19.161  0.2365 -0.2649  0.2863
 3748TIP3    H135439   3.963   5.299  19.232 -0.9222 -2.6282 -1.7129
 3748TIP3    H235440   3.891   5.339  19.105  1.0934  1.4602 -1.7106
 3749TIP3   OH235441   5.339   6.432  18.647  0.0196 -0.0727 -0.1620
 3749TIP3    H135442   5.388   6.475  18.577  2.0393 -1.1672  0.4986
 3749TIP3    H235443   5.258   6.402  18.606  1.5691 -1.5857 -2.3220
 3750TIP3   OH235444   4.074   1.999  19.752 -0.0796  0.2194 -0.4050
 3750TIP3    H135445   4.058   2.057  19.677 -0.2250  0.0327 -0.5187
 3750TIP3    H235446   4.056   2.054  19.828 -1.7602 -0.1098 -0.5347
 3751TIP3   OH235447   5.842   6.276  19.383 -0.3846  0.5214 -0.0054
 3751TIP3    H135448   5.770   6.247  19.328 -0.0272 -0.0922 -0.1495
 3751TIP3    H235449   5.901   6.201  19.388 -0.7009  0.3541  1.6982
 3752TIP3   OH235450   0.641   1.769  19.303 -0.4984  0.1968  0.2317
 3752TIP3    H135451   0.617   1.685  19.264 -1.5552  0.3922  0.4361
 3752TIP3    H235452   0.600   1.834  19.246  1.8524  0.7108 -1.0473
 3753TIP3   OH235453   0.996   1.622  18.669  0.1871  0.2696 -0.2854
 3753TIP3    H135454   0.922   1.642  18.727 -0.3603  1.4192 -1.3153
 3753TIP3    H235455   1.073   1.651  18.717 -0.1501  0.2082  0.3019
 3754TIP3   OH235456   1.265   4.345  19.030  0.6415 -0.0675 -0.1644
 3754TIP3    H135457   1.325   4.420  19.021  1.2301 -0.1234  2.4358
 3754TIP3    H235458   1.279   4.314  19.120 -2.7233 -0.6193  0.2814
 3755TIP3   OH235459   5.239   3.088  16.704 -0.0624  0.7859 -0.2602
 3755TIP3    H135460   5.265   3.002  16.670  2.1452  1.1737  0.2935
 3755TIP3    H235461   5.152   3.103  16.666 -0.0714 -1.2253 -1.1890
 3756TIP3   OH235462   6.582   3.574  18.252 -0.3920  0.1475 -0.5573
 3756TIP3    H135463   6.540   3.660  18.246  1.6208  1.1568 -1.4296
 3756TIP3    H235464   6.587   3.556  18.345 -1.8076  0.4588 -0.4030
 3757TIP3   OH235465   4.672   1.959  17.368 -0.4529 -0.2977  0.0741
 3757TIP3    H135466   4.631   1.954  17.454 -1.7853 -0.3420 -0.5411
 3757TIP3    H235467   4.607   1.922  17.308  1.2696 -2.3090 -0.6964
 3758TIP3   OH235468   4.262   2.147  18.711 -0.5775  0.4888  0.2543
 3758TIP3    H135469   4.331   2.182  18.655 -0.9693  1.1010  0.1450
 3758TIP3    H235470   4.303   2.075  18.758 -0.1412  0.2022 -0.5497
 3759TIP3   OH235471   4.774   2.387  18.442  0.3298  0.2264 -0.1545
 3759TIP3    H135472   4.799   2.425  18.527  2.3982 -1.7988  0.2600
 3759TIP3    H235473   4.807   2.449  18.378  0.4236  0.8750  0.5018
 3760TIP3   OH235474   3.246   6.150  17.808  0.0816 -0.3254  0.0884
 3760TIP3    H135475   3.299   6.216  17.763 -0.5510 -0.4933 -0.9432
 3760TIP3    H235476   3.181   6.123  17.743 -1.1829 -0.2435  1.2707
 3761TIP3   OH235477   2.240   3.184  18.313  0.3292 -0.3646 -0.0229
 3761TIP3    H135478   2.258   3.229  18.231 -1.1543 -2.1233 -1.4197
 3761TIP3    H235479   2.290   3.103  18.307 -0.3966 -0.8555  0.4413
 3762TIP3   OH235480   3.769   1.049  19.941 -0.2170 -0.1606 -0.2201
 3762TIP3    H135481   3.691   0.993  19.948  0.1368 -0.7483 -0.7917
 3762TIP3    H235482   3.789   1.049  19.847  0.7167 -0.3701 -0.0290
 3763TIP3   OH235483   4.033   4.798  20.355  0.0349 -0.3347 -0.1315
 3763TIP3    H135484   4.113   4.752  20.326  0.7901  0.9663 -0.1624
 3763TIP3    H235485   4.061   4.849  20.431 -1.3482 -1.7052  1.3865
 3764TIP3   OH235486   0.031   5.953  18.953 -0.2549  0.2281 -0.4556
 3764TIP3    H135487   0.060   6.028  19.005 -1.3681  0.6805 -0.4598
 3764TIP3    H235488  -0.065   5.958  18.956 -0.4710 -2.6791  1.7554
 3765TIP3   OH235489   0.870   6.607  17.438 -0.1967 -0.1178  0.5185
 3765TIP3    H135490   0.925   6.609  17.360  0.9467 -1.2745  1.2673
 3765TIP3    H235491   0.880   6.694  17.476 -0.3835  0.2931 -0.3433
 3766TIP3   OH235492   4.565   2.733  19.066 -0.8949  0.0629 -0.2418
 3766TIP3    H135493   4.651   2.691  19.062  0.3593  2.1992  1.9582
 3766TIP3    H235494   4.533   2.730  18.976  0.1300 -3.3248 -0.6461
 3767TIP3   OH235495   5.191   1.276  17.911  0.3887  0.1666 -0.0184
 3767TIP3    H135496   5.111   1.239  17.949  0.7542 -1.2074 -0.5227
 3767TIP3    H235497   5.160   1.345  17.853 -0.2846  1.0257  1.3031
 3768TIP3   OH235498   1.955   2.581  17.709  0.0618 -0.3927  0.3437
 3768TIP3    H135499   1.919   2.535  17.784 -0.7965 -2.1553 -1.0841
 3768TIP3    H235500   1.992   2.661  17.746  0.2719 -1.5010  2.7116
 3769TIP3   OH235501   1.672   4.252  16.367  0.3348 -0.0317 -0.7393
 3769TIP3    H135502   1.669   4.248  16.271  1.9988  0.0132 -0.8120
 3769TIP3    H235503   1.727   4.178  16.393 -0.7230 -0.5147  0.2575
 3770TIP3   OH235504   1.686   2.264  18.432  0.0356 -0.2588  0.7032
 3770TIP3    H135505   1.734   2.318  18.495  0.1436 -1.6239  1.8538
 3770TIP3    H235506   1.604   2.242  18.477 -0.8584  0.5022 -0.5025
 3771TIP3   OH235507   5.787   3.827  19.408  0.1196 -0.1400  0.0317
 3771TIP3    H135508   5.741   3.767  19.467  1.0799 -0.2667  0.6673
 3771TIP3    H235509   5.839   3.770  19.351  2.8795  0.0588  2.1485
 3772TIP3   OH235510   0.544   5.475  18.244  0.9282  0.2623  0.0524
 3772TIP3    H135511   0.512   5.391  18.278 -0.7364  1.0618  0.5502
 3772TIP3    H235512   0.619   5.496  18.300 -0.4996  0.5508  1.9545
 3773TIP3   OH235513   6.231   0.430  18.970 -0.1341  0.1706 -0.1615
 3773TIP3    H135514   6.185   0.348  18.954  1.1426 -0.5842 -0.0488
 3773TIP3    H235515   6.271   0.419  19.057  2.2404 -0.1836 -1.2190
 3774TIP3   OH235516   3.666   6.535  18.547 -0.5111  0.1275 -0.3753
 3774TIP3    H135517   3.757   6.542  18.517 -0.9342  2.3991 -1.3417
 3774TIP3    H235518   3.652   6.441  18.557  1.8707 -0.3123 -0.3933
 3775TIP3   OH235519   4.247   4.404  17.758 -0.2449 -0.1832 -0.3238
 3775TIP3    H135520   4.204   4.368  17.681  0.0095 -1.2507  0.0193
 3775TIP3    H235521   4.336   4.369  17.755 -0.6000 -1.3275  1.1288
 3776TIP3   OH235522   6.635   5.593  18.839  0.0156  0.4043  0.7948
 3776TIP3    H135523   6.606   5.679  18.809 -0.8312 -0.0078  0.4131
 3776TIP3    H235524   6.692   5.561  18.770 -3.1428 -1.2161 -1.2893
 3777TIP3   OH235525   6.393   0.807  18.424 -0.0751  0.0394  0.5262
 3777TIP3    H135526   6.370   0.783  18.514 -0.8778  0.2738  0.3930
 3777TIP3    H235527   6.427   0.896  18.431 -1.6543  0.6910  0.4166
 3778TIP3   OH235528   0.724   0.365  18.780  0.1686  0.7663  0.2165
 3778TIP3    H135529   0.669   0.311  18.724  0.8972 -0.3028  0.5012
 3778TIP3    H235530   0.754   0.306  18.849  2.2913  1.0835 -0.3385
 3779TIP3   OH235531   3.736   2.477  18.337  0.1091 -0.0288 -0.3184
 3779TIP3    H135532   3.646   2.510  18.329 -0.6281 -1.6307  0.8530
 3779TIP3    H235533   3.775   2.531  18.406  0.1168  0.7595 -0.9220
 3780TIP3   OH235534   1.410   3.015  20.039 -0.4225  0.4060 -0.0733
 3780TIP3    H135535   1.434   2.961  20.114 -2.0122 -1.1915 -0.6536
 3780TIP3    H235536   1.361   3.089  20.076 -2.1691 -0.9465  0.4274
 3781TIP3   OH235537   2.917   2.870  18.191 -0.6905  0.4656 -0.1513
 3781TIP3    H135538   2.955   2.943  18.143 -0.6506  0.9017  0.5352
 3781TIP3    H235539   2.976   2.796  18.175 -0.4344  0.7238 -0.3898
 3782TIP3   OH235540   6.356   4.362  20.304  0.2498 -0.2552  0.3766
 3782TIP3    H135541   6.301   4.437  20.327  1.0770  0.8671 -1.1552
 3782TIP3    H235542   6.307   4.286  20.336 -0.0654  0.9469  3.0571
 3783TIP3   OH235543   6.136   1.945  16.906  0.4382 -0.5721  0.0633
 3783TIP3    H135544   6.086   2.005  16.851  0.6168  0.1641  0.6720
 3783TIP3    H235545   6.194   1.898  16.846 -0.9006 -1.3712 -0.6403
 3784TIP3   OH235546   3.786   2.882  19.896  0.9720 -0.3424 -0.0593
 3784TIP3    H135547   3.840   2.907  19.971 -1.0172  1.2162  0.9775
 3784TIP3    H235548   3.745   2.800  19.923  0.9869 -0.2717  0.1863
 3785TIP3   OH235549   1.482   1.189  19.849 -0.9165 -0.1892 -0.4234
 3785TIP3    H135550   1.484   1.208  19.755 -0.4260  0.0809 -0.3602
 3785TIP3    H235551   1.389   1.185  19.871 -1.0316 -0.1204 -0.8922
 3786TIP3   OH235552   4.112   0.799  17.706  0.1761 -0.1981 -0.3452
 3786TIP3    H135553   4.114   0.794  17.802 -0.1340 -1.3239 -0.3868
 3786TIP3    H235554   4.168   0.727  17.677 -1.3199 -1.1492 -1.0170
 3787TIP3   OH235555   4.881   4.063  19.274  0.1262 -0.2804 -0.2080
 3787TIP3    H135556   4.958   4.037  19.323 -0.8549  0.1843  1.6718
 3787TIP3    H235557   4.864   4.153  19.302 -0.8926 -0.2566 -0.8482
 3788TIP3   OH235558   0.907   1.016  19.893  0.2349 -0.3878 -0.2000
 3788TIP3    H135559   0.968   1.058  19.953 -0.2214 -1.2398  0.8770
 3788TIP3    H235560   0.957   0.944  19.854  0.4136 -0.0692 -0.5672
 3789TIP3   OH235561   6.614   0.665  17.610 -0.6175  0.3234 -0.1172
 3789TIP3    H135562   6.593   0.574  17.632  0.6832 -0.0637 -0.3671
 3789TIP3    H235563   6.634   0.663  17.517 -1.5471  1.0650 -0.3383
 3790TIP3   OH235564   4.496   2.017  19.083 -0.4237  0.1640 -0.3126
 3790TIP3    H135565   4.563   2.083  19.066 -0.0236 -0.5244 -1.5783
 3790TIP3    H235566   4.517   1.982  19.169 -0.6812  1.7054  0.4099
 3791TIP3   OH235567   5.643   3.600  18.681  0.3182 -0.3321 -0.4735
 3791TIP3    H135568   5.710   3.667  18.696  0.0748  0.1056 -1.2633
 3791TIP3    H235569   5.690   3.527  18.640  0.5819 -0.6553  0.3764
 3792TIP3   OH235570   3.699   4.213  18.870 -0.2215 -0.2920  0.2079
 3792TIP3    H135571   3.611   4.244  18.889 -0.1133  0.1906 -0.0729
 3792TIP3    H235572   3.697   4.189  18.777  0.6499  2.2507 -0.5493
 3793TIP3   OH235573   5.000   3.465  19.817 -0.3636 -0.1580  0.4456
 3793TIP3    H135574   4.967   3.387  19.862 -2.4866  0.4112 -0.0152
 3793TIP3    H235575   4.977   3.451  19.725  0.9010  0.2041  0.0531
 3794TIP3   OH235576   5.694   3.976  19.060 -0.1021 -0.5558  0.0632
 3794TIP3    H135577   5.640   4.047  19.023  0.1181 -0.7854 -0.7225
 3794TIP3    H235578   5.663   3.897  19.016  2.5516 -0.3997 -2.4059
 3795TIP3   OH235579   4.183   3.506  17.335  0.0834  0.1729 -0.1740
 3795TIP3    H135580   4.178   3.601  17.339  0.8566  0.1819  0.7408
 3795TIP3    H235581   4.247   3.488  17.266  0.3210  0.3287  0.0048
 3796TIP3   OH235582   5.279   5.258  18.109  0.5728 -0.2672  0.4847
 3796TIP3    H135583   5.275   5.208  18.027 -1.8212  0.9946 -0.2435
 3796TIP3    H235584   5.261   5.194  18.177  2.7174 -1.3611  0.0996
 3797TIP3   OH235585   0.539   3.637  19.939 -0.4444 -0.0978  0.7932
 3797TIP3    H135586   0.518   3.546  19.960  0.6757  0.0904  3.0663
 3797TIP3    H235587   0.625   3.633  19.897 -1.3773 -0.2227 -1.2040
 3798TIP3   OH235588   5.536   3.235  19.710 -0.0214 -0.5066 -0.4009
 3798TIP3    H135589   5.549   3.251  19.617  2.3019 -0.4053 -0.1261
 3798TIP3    H235590   5.492   3.150  19.713 -1.7442  0.2990 -1.5933
 3799TIP3   OH235591   0.804   3.369  16.475  0.9232  0.3663 -0.3534
 3799TIP3    H135592   0.797   3.274  16.480 -0.4101  0.4000 -1.1586
 3799TIP3    H235593   0.812   3.398  16.565 -1.4650 -0.3349  0.1417
 3800TIP3   OH235594   5.085   1.744  17.643  0.6082  0.0899  0.2629
 3800TIP3    H135595   5.075   1.763  17.736  0.3043 -0.0826  0.2672
 3800TIP3    H235596   5.095   1.830  17.602 -3.3822  0.5694 -0.0405
 3801TIP3   OH235597   4.017   2.037  18.714 -0.6080  0.0508 -0.4543
 3801TIP3    H135598   4.014   1.980  18.637  3.7697 -2.8128  1.0833
 3801TIP3    H235599   4.101   2.082  18.708 -1.6982  2.4699  0.9964
 3802TIP3   OH235600   6.031   3.395  17.771  0.0409 -0.4774  0.4240
 3802TIP3    H135601   5.978   3.415  17.848  1.2368 -0.8412  1.3536
 3802TIP3    H235602   6.050   3.302  17.778  0.9102 -0.3235  0.1637
 3803TIP3   OH235603   5.702   0.463  20.012  0.2864  0.2071  0.1828
 3803TIP3    H135604   5.664   0.528  19.952 -0.6001  1.5884  2.1160
 3803TIP3    H235605   5.630   0.439  20.070  1.0816 -1.1592  0.6555
 3804TIP3   OH235606   1.229   0.704  19.470 -0.5526  0.2228  0.0645
 3804TIP3    H135607   1.304   0.648  19.487  0.2023  1.2456  0.2017
 3804TIP3    H235608   1.242   0.779  19.529 -1.6530  0.4369  0.0552
 3805TIP3   OH235609   4.322   2.804  19.754 -0.5973  0.5196  0.4116
 3805TIP3    H135610   4.342   2.840  19.840 -0.9720  3.9565 -0.8115
 3805TIP3    H235611   4.395   2.831  19.698 -1.0925 -0.3426 -0.6960
 3806TIP3   OH235612   0.269   3.714  16.790 -0.0750  0.0931  0.0453
 3806TIP3    H135613   0.287   3.804  16.819 -0.5598  0.3468 -0.4130
 3806TIP3    H235614   0.247   3.667  16.870 -2.6547  1.0943  0.0208
 3807TIP3   OH235615   4.860   5.221  20.269  0.0120  0.2528 -0.1051
 3807TIP3    H135616   4.827   5.236  20.357 -2.2460  1.9224 -1.1186
 3807TIP3    H235617   4.817   5.288  20.216 -2.3981 -3.3593 -3.2893
 3808TIP3   OH235618   3.585   3.282  16.587  0.2135  0.2041 -0.7428
 3808TIP3    H135619   3.650   3.307  16.521  0.5794  0.9313 -0.1202
 3808TIP3    H235620   3.526   3.221  16.541  1.0042 -0.0288 -1.4672
 3809TIP3   OH235621   3.267   3.745  16.915  0.2035  0.1801 -0.2308
 3809TIP3    H135622   3.357   3.773  16.898  0.2235 -0.1021 -0.5873
 3809TIP3    H235623   3.262   3.655  16.883 -0.7325  0.8194 -2.0289
 3810TIP3   OH235624   4.740   0.874  20.093 -0.2343 -0.0635  0.3047
 3810TIP3    H135625   4.806   0.937  20.066  1.5725 -1.2999  1.5975
 3810TIP3    H235626   4.674   0.925  20.140 -0.2223  1.1864 -0.9868
 3811TIP3   OH235627   1.997   0.121  18.663  0.4137  0.3035  0.5353
 3811TIP3    H135628   1.916   0.103  18.710  0.0137 -2.3612 -0.9808
 3811TIP3    H235629   2.062   0.134  18.732 -1.0725  1.4699  1.7770
 3812TIP3   OH235630   2.024   1.161  16.880 -0.4874  0.5451  0.3717
 3812TIP3    H135631   2.067   1.213  16.812 -1.6204  0.2764 -0.5915
 3812TIP3    H235632   1.974   1.225  16.931 -1.0456  0.5456 -0.1632
 3813TIP3   OH235633   4.719   5.063  17.925  0.0143 -0.1484  0.5654
 3813TIP3    H135634   4.802   5.033  17.887 -0.3123 -0.7700  0.3183
 3813TIP3    H235635   4.665   4.984  17.929 -0.8506  0.3938 -0.0320
 3814TIP3   OH235636   2.553   1.796  18.967 -0.2204 -0.3264 -0.3544
 3814TIP3    H135637   2.536   1.708  19.000  2.0658 -0.5455  0.4384
 3814TIP3    H235638   2.540   1.854  19.043  2.9029 -0.5925  0.5374
 3815TIP3   OH235639   2.383   0.608  18.845 -0.1899  0.2484  0.5152
 3815TIP3    H135640   2.443   0.679  18.867 -0.7506  1.1706 -0.7987
 3815TIP3    H235641   2.298   0.637  18.879 -0.2821 -0.1457  0.6293
 3816TIP3   OH235642   6.429   2.873  17.544  0.6836  0.1890 -0.3106
 3816TIP3    H135643   6.481   2.945  17.510  1.0777 -0.2830 -0.7064
 3816TIP3    H235644   6.443   2.876  17.639  2.9655 -1.0898 -0.5417
 3817TIP3   OH235645   2.400   5.766  17.831  0.3692 -0.4234  0.4322
 3817TIP3    H135646   2.364   5.715  17.759  0.4742  0.6961 -0.4410
 3817TIP3    H235647   2.367   5.723  17.910 -0.3555 -1.2353 -0.2925
 3818TIP3   OH235648   0.973   0.620  17.762 -0.3902 -0.1524 -0.8949
 3818TIP3    H135649   1.003   0.536  17.729 -0.8593 -0.2896 -0.9735
 3818TIP3    H235650   0.895   0.640  17.711 -1.1948 -0.4207  0.1823
 3819TIP3   OH235651   1.214   0.890  20.025 -0.1673  0.0478  0.1961
 3819TIP3    H135652   1.293   0.889  19.972 -0.5341  2.4505 -0.5202
 3819TIP3    H235653   1.222   0.969  20.079 -0.4638 -1.5678  2.7795
 3820TIP3   OH235654   4.696   4.694  19.682 -0.3815  0.0479  0.6923
 3820TIP3    H135655   4.638   4.694  19.758 -1.4207 -0.2785 -0.0772
 3820TIP3    H235656   4.649   4.745  19.616 -0.5551 -1.5899 -0.5020
 3821TIP3   OH235657   5.735   0.438  17.722 -0.2976 -0.6188  0.3698
 3821TIP3    H135658   5.699   0.486  17.797  1.6090  1.1586  0.2661
 3821TIP3    H235659   5.830   0.442  17.736  0.0008 -2.4298 -0.8886
 3822TIP3   OH235660   2.863   5.196  17.785 -0.0455 -0.6740 -0.9378
 3822TIP3    H135661   2.940   5.146  17.810  0.9096  0.4049 -1.5889
 3822TIP3    H235662   2.805   5.191  17.861  0.2507 -2.2674 -0.7832
 3823TIP3   OH235663   3.546   3.410  16.828  0.3329 -0.4449  0.5871
 3823TIP3    H135664   3.561   3.356  16.751 -0.2050 -0.9989  0.8617
 3823TIP3    H235665   3.633   3.441  16.854  0.7117 -1.6440  0.7663
 3824TIP3   OH235666   3.386   6.481  19.879 -0.1727  0.2245 -0.8942
 3824TIP3    H135667   3.307   6.533  19.896 -1.2814 -0.8188 -2.6414
 3824TIP3    H235668   3.437   6.535  19.819 -1.1952 -0.4891 -2.4843
 3825TIP3   OH235669   3.934   4.730  18.403 -0.1076 -0.2415  0.1039
 3825TIP3    H135670   3.959   4.752  18.313 -0.5889  1.4221  0.3475
 3825TIP3    H235671   3.847   4.690  18.394 -0.5205  0.6870 -0.1067
 3826TIP3   OH235672   2.634   5.314  16.994 -0.1079 -0.0032  0.5396
 3826TIP3    H135673   2.589   5.274  16.920 -1.9348  2.2345  0.3302
 3826TIP3    H235674   2.693   5.378  16.954 -0.1901  0.3450  0.9640
 3827TIP3   OH235675   5.644   0.482  17.994 -0.0111 -0.3103  0.1355
 3827TIP3    H135676   5.633   0.391  18.020  1.0627 -0.1743  1.1341
 3827TIP3    H235677   5.638   0.531  18.076  0.7246  0.3900 -0.2208
 3828TIP3   OH235678   2.820   5.690  19.896 -0.3981  0.6163 -0.2567
 3828TIP3    H135679   2.754   5.743  19.850 -2.1635 -0.6020  0.7261
 3828TIP3    H235680   2.903   5.713  19.854 -1.3866  2.4728 -1.3355
 3829TIP3   OH235681   5.766   1.045  19.005  0.3810  0.1434  0.3923
 3829TIP3    H135682   5.788   1.029  18.913 -1.0753  1.6181 -0.2528
 3829TIP3    H235683   5.676   1.015  19.015 -0.0714  1.5498  0.8622
 3830TIP3   OH235684   0.737   3.540  19.382 -0.0775 -0.2741 -0.4680
 3830TIP3    H135685   0.789   3.464  19.408  0.3094  0.2420  0.3062
 3830TIP3    H235686   0.735   3.595  19.460  1.5802  1.6106 -1.6768
 3831TIP3   OH235687   0.283   1.458  17.247 -0.3455  0.5309 -0.0403
 3831TIP3    H135688   0.190   1.469  17.270 -0.0008  2.8960  0.4752
 3831TIP3    H235689   0.289   1.488  17.156 -0.1041  0.3778 -0.0736
 3832TIP3   OH235690   2.216   2.641  19.656  0.0009  0.4279  0.1579
 3832TIP3    H135691   2.271   2.583  19.710 -0.5806 -0.4980 -0.2195
 3832TIP3    H235692   2.193   2.713  19.714 -0.8959 -0.7236  1.2847
 3833TIP3   OH235693   5.323   5.489  17.620 -0.2922  0.3564  0.1237
 3833TIP3    H135694   5.377   5.487  17.542 -0.6986 -0.2206 -0.1483
 3833TIP3    H235695   5.316   5.398  17.647 -1.9288  0.2891 -0.4147
 3834TIP3   OH235696   1.079   6.240  18.447  0.7146 -0.3028 -0.3179
 3834TIP3    H135697   1.163   6.205  18.477  1.3804  1.7572  0.3887
 3834TIP3    H235698   1.017   6.215  18.516  0.9312 -1.0616 -0.3951
 3835TIP3   OH235699   3.411   1.324  18.372  0.0685 -0.4439  0.4875
 3835TIP3    H135700   3.401   1.401  18.429  2.1202 -0.7562  1.3630
 3835TIP3    H235701   3.348   1.261  18.407 -1.5694  0.7451 -0.1776
 3836TIP3   OH235702   5.351   3.797  18.766  0.1336  0.4578  0.1046
 3836TIP3    H135703   5.377   3.883  18.800  0.9561  0.4727 -0.5285
 3836TIP3    H235704   5.262   3.785  18.798  0.1985  1.3174  0.6443
 3837TIP3   OH235705   1.077   6.132  19.358 -0.4815 -0.5628  0.0300
 3837TIP3    H135706   1.044   6.218  19.330 -1.4351 -0.2864  1.8330
 3837TIP3    H235707   1.155   6.153  19.411 -0.5626 -0.8278  0.2547
 3838TIP3   OH235708   1.739   0.516  17.511 -0.2283 -0.5247  0.3267
 3838TIP3    H135709   1.686   0.541  17.587  0.9284 -0.9179  1.2871
 3838TIP3    H235710   1.822   0.561  17.524 -0.0301 -0.5675 -0.7393
 3839TIP3   OH235711   1.469   6.676  19.187 -0.0874 -0.0186 -0.5636
 3839TIP3    H135712   1.470   6.735  19.111 -0.1695  0.7040 -0.0212
 3839TIP3    H235713   1.561   6.666  19.211 -0.0005 -0.8605 -1.2096
 3840TIP3   OH235714   5.986   4.267  18.595 -0.5038 -0.0477  0.1314
 3840TIP3    H135715   6.011   4.246  18.505 -1.3952 -1.2998  0.1488
 3840TIP3    H235716   5.908   4.321  18.587 -0.0081  0.6739  0.1411
 3841TIP3   OH235717   6.159   6.511  19.254 -0.3171  0.2431 -0.8446
 3841TIP3    H135718   6.218   6.484  19.324 -0.9296  0.0031 -0.4090
 3841TIP3    H235719   6.211   6.569  19.199  0.1423  0.5196 -0.1274
 3842TIP3   OH235720   0.641   5.557  18.580  0.3258  0.1349  0.1072
 3842TIP3    H135721   0.731   5.540  18.609  1.2003  2.1381 -1.1918
 3842TIP3    H235722   0.591   5.482  18.613  1.7155  0.6878  4.0879
 3843TIP3   OH235723   3.202   1.870  17.817 -0.3379  0.1555 -0.2006
 3843TIP3    H135724   3.150   1.901  17.891 -1.2212 -1.3227 -0.1645
 3843TIP3    H235725   3.235   1.785  17.845  0.0503 -0.0236 -1.1621
 3844TIP3   OH235726   0.068   6.225  19.792 -0.0313 -0.1308 -0.5003
 3844TIP3    H135727   0.114   6.206  19.710  0.9777  0.5410 -0.1045
 3844TIP3    H235728   0.070   6.320  19.800 -2.4355  0.0238 -0.9814
 3845TIP3   OH235729   2.890   2.719  17.738  0.3619  0.2405 -0.0141
 3845TIP3    H135730   2.905   2.669  17.657  2.3912 -0.4571  0.7394
 3845TIP3    H235731   2.866   2.807  17.708  2.1602  0.3137 -1.4186
 3846TIP3   OH235732   3.427   2.450  19.895 -0.0771 -0.0322 -1.2722
 3846TIP3    H135733   3.421   2.375  19.836  0.9928 -0.0378 -1.4033
 3846TIP3    H235734   3.499   2.503  19.860 -0.1295  0.5111 -0.5901
 3847TIP3   OH235735   4.787   2.698  17.580 -0.2704  0.3012 -0.3396
 3847TIP3    H135736   4.795   2.792  17.594  0.2972  0.3083 -0.6868
 3847TIP3    H235737   4.876   2.665  17.583 -0.4841 -0.2572 -0.0344
 3848TIP3   OH235738   5.743   4.009  17.628 -0.4889 -0.1341  0.0344
 3848TIP3    H135739   5.678   3.945  17.601 -1.0335  0.9181 -1.2479
 3848TIP3    H235740   5.698   4.063  17.693 -0.9769  0.7054 -0.9839
 3849TIP3   OH235741   3.837   6.244  17.564  0.6576  0.1318 -0.0462
 3849TIP3    H135742   3.744   6.225  17.549  0.6850  0.4374 -0.6280
 3849TIP3    H235743   3.882   6.163  17.538  0.5963  0.1777 -0.2981
 3850TIP3   OH235744   6.567   0.747  19.917  0.0761  0.4529  0.4038
 3850TIP3    H135745   6.611   0.823  19.878  0.9013  0.0228  0.4544
 3850TIP3    H235746   6.493   0.784  19.964  1.6906  1.5260  2.2944
 3851TIP3   OH235747   0.053   4.835  18.003  0.7294 -0.2374 -0.4148
 3851TIP3    H135748   0.086   4.860  18.089 -1.6572 -0.6609  0.7229
 3851TIP3    H235749   0.128   4.842  17.945  2.7009 -1.0210  1.8884
 3852TIP3   OH235750   3.961   5.486  17.307  0.1059 -0.0825  0.1896
 3852TIP3    H135751   3.926   5.449  17.226 -0.3826  0.5582  0.0998
 3852TIP3    H235752   3.917   5.439  17.377 -0.3406  0.1586  0.0769
 3853TIP3   OH235753   6.667   3.444  19.380 -0.2290  0.0295  0.0723
 3853TIP3    H135754   6.589   3.441  19.435 -2.3885  0.1036 -2.7889
 3853TIP3    H235755   6.679   3.537  19.361 -1.0125 -0.1649 -1.5068
 3854TIP3   OH235756   6.203   5.612  20.147 -0.2791 -0.6861  0.0713
 3854TIP3    H135757   6.276   5.606  20.086 -1.3634  0.2284 -1.3846
 3854TIP3    H235758   6.220   5.544  20.212  1.7457 -0.6280 -0.3258
 3855TIP3   OH235759   2.184   5.664  18.561 -0.0325  0.2967  0.0056
 3855TIP3    H135760   2.101   5.672  18.608  0.1067  1.5880  0.0513
 3855TIP3    H235761   2.198   5.750  18.521  1.2246  0.0640 -0.0973
 3856TIP3   OH235762   6.450   4.335  19.768  0.1240 -0.3657  0.4990
 3856TIP3    H135763   6.438   4.421  19.808 -0.7040 -0.4960  0.5614
 3856TIP3    H235764   6.493   4.283  19.836 -2.4225 -0.9553  1.7666
 3857TIP3   OH235765   6.389   4.438  19.204  0.4106 -0.6458 -0.1772
 3857TIP3    H135766   6.402   4.434  19.298 -0.5491  1.1243  0.0790
 3857TIP3    H235767   6.475   4.461  19.169  0.3803  0.4856  0.4539
 3858TIP3   OH235768   2.753   3.393  18.722 -0.6112 -0.2442  0.1359
 3858TIP3    H135769   2.757   3.460  18.790 -1.7760 -1.0699  1.0809
 3858TIP3    H235770   2.737   3.311  18.770 -2.7714 -0.6818 -1.1767
 3859TIP3   OH235771   1.442   4.001  19.050  0.0671  0.1011 -0.2618
 3859TIP3    H135772   1.388   3.924  19.032 -0.1697 -0.0620  1.0873
 3859TIP3    H235773   1.413   4.065  18.985 -2.1404  0.1936  0.7269
 3860TIP3   OH235774   5.595   1.434  19.131  0.5138  0.1678 -0.0830
 3860TIP3    H135775   5.509   1.464  19.160 -0.0162 -0.5230 -0.8837
 3860TIP3    H235776   5.601   1.464  19.040  1.5813  1.1442  0.2790
 3861TIP3   OH235777   3.080   5.423  18.872  0.7649 -0.0573 -0.1669
 3861TIP3    H135778   3.134   5.439  18.795 -0.5898 -2.2274 -1.6923
 3861TIP3    H235779   3.050   5.332  18.862  0.1082 -0.2525  2.6643
 3862TIP3   OH235780   3.556   1.945  19.625  0.2711 -0.2424  0.1522
 3862TIP3    H135781   3.488   1.879  19.641  0.8994 -0.9516 -0.0428
 3862TIP3    H235782   3.636   1.905  19.657  0.4651  0.9796  1.2817
 3863TIP3   OH235783   6.359   3.019  18.613  0.3915  0.2125  0.4374
 3863TIP3    H135784   6.330   2.995  18.525  1.9650 -1.2691  0.2731
 3863TIP3    H235785   6.278   3.037  18.661 -0.8639 -3.1430 -0.1559
 3864TIP3   OH235786   1.329   1.511  19.270 -0.3296 -0.1591 -0.0779
 3864TIP3    H135787   1.397   1.471  19.215  2.1821  0.7307  2.1877
 3864TIP3    H235788   1.361   1.600  19.287 -3.0868  1.0049 -0.4930
 3865TIP3   OH235789   1.739   6.018  19.780  0.0195  0.2255 -0.6949
 3865TIP3    H135790   1.829   6.036  19.753 -0.6980 -0.0785 -3.6273
 3865TIP3    H235791   1.735   6.046  19.871  3.3045 -0.6246 -0.1707
 3866TIP3   OH235792   6.663   2.735  17.828  0.7647 -0.1719  0.5599
 3866TIP3    H135793   6.677   2.661  17.768  0.7723  0.7724 -0.6498
 3866TIP3    H235794   6.683   2.700  17.915 -0.2946 -1.8924  0.1672
 3867TIP3   OH235795   5.430   5.996  17.117 -0.3168 -0.5402 -0.1204
 3867TIP3    H135796   5.488   5.995  17.041 -0.3886 -0.8748 -0.1741
 3867TIP3    H235797   5.418   6.089  17.138  0.4104 -0.4750  0.0256
 3868TIP3   OH235798   5.614   1.817  17.874  0.1867  0.7480  0.1923
 3868TIP3    H135799   5.678   1.819  17.802  2.0094 -1.0587  1.6525
 3868TIP3    H235800   5.651   1.756  17.937 -2.1213  1.0872  1.9962
 3869TIP3   OH235801   4.300   1.690  19.093  0.0206 -0.0890  0.0443
 3869TIP3    H135802   4.266   1.776  19.118  0.4971 -0.3634  1.8103
 3869TIP3    H235803   4.224   1.631  19.103  0.3930 -0.3356  1.8310
 3870TIP3   OH235804   3.272   0.602  17.368  0.2721  0.0591  0.3632
 3870TIP3    H135805   3.343   0.575  17.310  1.2922 -1.1325  2.0523
 3870TIP3    H235806   3.268   0.697  17.360  1.8583  0.1131  0.0055
 3871TIP3   OH235807   2.496   0.010  18.513  0.0037  0.0647 -0.0388
 3871TIP3    H135808   2.557   0.083  18.503 -1.9054  1.6777 -0.4766
 3871TIP3    H235809   2.535  -0.045  18.582  1.3985  1.5848  0.4429
 3872TIP3   OH235810   2.315   6.698  19.403  0.1899  0.3073 -0.7051
 3872TIP3    H135811   2.259   6.705  19.326  1.2584 -0.7993 -1.6329
 3872TIP3    H235812   2.294   6.612  19.441  0.6616  0.2318 -0.5991
 3873TIP3   OH235813   3.332   3.582  17.141  0.4809 -0.0055 -0.0385
 3873TIP3    H135814   3.240   3.573  17.115  0.3334 -0.7871  0.7119
 3873TIP3    H235815   3.361   3.662  17.098 -0.3549 -0.1139 -0.8460
 3874TIP3   OH235816   5.568   0.418  17.520  0.0934 -0.4290  0.2665
 3874TIP3    H135817   5.547   0.329  17.548 -0.0056 -0.0876  1.3109
 3874TIP3    H235818   5.619   0.454  17.592 -1.3672  0.9437  0.6745
 3875TIP3   OH235819   6.459   6.425  18.685  0.1164  0.2005  0.1069
 3875TIP3    H135820   6.475   6.372  18.763  2.1049 -0.1032 -0.4485
 3875TIP3    H235821   6.364   6.430  18.678 -0.1536  0.7413  2.8646
 3876TIP3   OH235822   3.108   4.167  20.039 -0.0134  0.3393 -0.6283
 3876TIP3    H135823   3.070   4.118  19.966 -0.6218  0.3632 -0.3297
 3876TIP3    H235824   3.043   4.161  20.109  0.6907  0.0639  0.0161
 3877TIP3   OH235825   3.054   5.777  19.777  0.1439 -0.5767  0.6280
 3877TIP3    H135826   3.101   5.860  19.787  0.5409 -0.1434 -3.2891
 3877TIP3    H235827   3.121   5.710  19.791  0.6405 -0.1234  0.4743
 3878TIP3   OH235828   2.669   4.303  17.510  0.1920 -0.4023  0.4094
 3878TIP3    H135829   2.598   4.329  17.569 -0.0759 -0.9002  0.3070
 3878TIP3    H235830   2.742   4.283  17.568  0.0251 -0.5913  0.5557
 3879TIP3   OH235831   2.484   3.499  19.345  0.6002  0.0113 -0.2015
 3879TIP3    H135832   2.424   3.494  19.270  0.2305 -1.1166  0.1592
 3879TIP3    H235833   2.571   3.501  19.305  0.3663  2.2604 -0.7611
 3880TIP3   OH235834   5.688   4.439  17.508 -0.3569 -0.4536  0.2814
 3880TIP3    H135835   5.633   4.450  17.430 -0.6075  0.2516  0.5492
 3880TIP3    H235836   5.741   4.361  17.489 -0.4639 -0.3324 -0.5594
 3881TIP3   OH235837   2.573   3.778  19.313 -0.0071 -0.6538  0.1424
 3881TIP3    H135838   2.553   3.828  19.392  0.9526  0.6363 -0.4048
 3881TIP3    H235839   2.517   3.700  19.320 -0.9574  0.0923  1.4057
 3882TIP3   OH235840   3.592   6.295  17.964  0.2172 -0.0605 -0.6679
 3882TIP3    H135841   3.587   6.388  17.989 -0.3256 -0.0065 -0.9744
 3882TIP3    H235842   3.504   6.261  17.980  0.3405 -0.4569 -0.8241
 3883TIP3   OH235843   3.017   0.998  19.650  0.2520 -0.1304  0.1194
 3883TIP3    H135844   2.987   1.002  19.559  1.0580  0.3522 -0.1325
 3883TIP3    H235845   3.004   1.087  19.684 -0.8353 -0.5109  0.7458
 3884TIP3   OH235846   1.201   6.270  17.438  0.2491 -0.0359  0.2091
 3884TIP3    H135847   1.130   6.246  17.379  1.5046 -1.1113 -0.9270
 3884TIP3    H235848   1.213   6.364  17.424 -0.5414  0.0395 -0.0135
 3885TIP3   OH235849   3.895   2.682  17.036  0.2517  0.4293 -0.4440
 3885TIP3    H135850   3.966   2.647  17.090 -0.3574 -2.0230 -1.0748
 3885TIP3    H235851   3.908   2.641  16.950 -0.8074  1.4809 -1.1436
 3886TIP3   OH235852   6.339   5.074  18.873 -0.1139  0.2803 -0.4051
 3886TIP3    H135853   6.434   5.071  18.863 -0.2148 -1.1118 -1.2135
 3886TIP3    H235854   6.324   5.101  18.963  1.0690 -1.2378  0.2691
 3887TIP3   OH235855   0.660   4.495  19.941 -0.2160 -0.7384  0.4832
 3887TIP3    H135856   0.592   4.478  20.006 -0.8858  1.2832  0.3829
 3887TIP3    H235857   0.616   4.485  19.856 -0.0448 -0.6881  0.3864
 3888TIP3   OH235858   0.784   5.135  18.195 -0.0405 -0.1497  0.6046
 3888TIP3    H135859   0.742   5.104  18.115  0.5868 -0.4262  0.3769
 3888TIP3    H235860   0.723   5.199  18.232 -2.0490 -2.6156  1.8377
 3889TIP3   OH235861   5.971   6.704  19.284 -0.2246  0.5381  0.4767
 3889TIP3    H135862   6.020   6.623  19.269  1.5231  1.6787 -0.4402
 3889TIP3    H235863   5.899   6.679  19.341  1.0271 -1.4075  1.3093
 3890TIP3   OH235864   3.874   5.513  16.922  0.0149 -0.6703  0.2636
 3890TIP3    H135865   3.833   5.600  16.926  0.2426 -0.5707  0.5340
 3890TIP3    H235866   3.922   5.512  16.840  1.6294  0.2113  1.1356
 3891TIP3   OH235867   6.628   2.734  19.162 -0.2282  0.1738  0.9729
 3891TIP3    H135868   6.567   2.661  19.151  1.1075 -1.4891  3.4599
 3891TIP3    H235869   6.577   2.812  19.140 -2.0084 -1.3924 -0.8760
 3892TIP3   OH235870   5.716   4.046  16.481 -0.1158 -0.7012  0.3214
 3892TIP3    H135871   5.657   4.025  16.408  1.4364  0.1692 -1.2679
 3892TIP3    H235872   5.663   4.101  16.539 -0.2597  2.3148 -2.3614
 3893TIP3   OH235873   1.740   4.114  20.011  0.2436 -0.2592  0.0554
 3893TIP3    H135874   1.814   4.103  20.071  0.4018  1.3712  0.2040
 3893TIP3    H235875   1.767   4.185  19.952 -1.6007  1.1939  0.8266
 3894TIP3   OH235876   3.915   5.111  17.733 -0.1273 -0.2267  0.0969
 3894TIP3    H135877   3.888   5.047  17.800 -1.9925  0.2420 -0.1544
 3894TIP3    H235878   3.862   5.189  17.752  0.0795  0.2723 -1.2825
 3895TIP3   OH235879   3.733   1.920  18.390  0.0981  0.0643  0.4166
 3895TIP3    H135880   3.686   1.838  18.401  0.4471  0.0354  1.9965
 3895TIP3    H235881   3.679   1.985  18.434  0.6844  0.3475  0.7317
 3896TIP3   OH235882   2.041   5.024  18.959 -0.8908  0.3921 -0.2204
 3896TIP3    H135883   2.085   4.939  18.962 -0.4008  0.6261 -0.6068
 3896TIP3    H235884   1.949   5.003  18.947 -0.7717 -0.0886 -0.3097
 3897TIP3   OH235885   5.267   0.047  20.011 -0.2029 -0.0568  0.6160
 3897TIP3    H135886   5.247  -0.028  19.954 -1.2447  0.0873  0.7741
 3897TIP3    H235887   5.362   0.058  20.003 -0.2206 -0.5212 -0.5024
 3898TIP3   OH235888   5.881   1.169  19.472 -0.8535  0.6445  0.2056
 3898TIP3    H135889   5.842   1.222  19.402  0.1437  1.6214  0.3492
 3898TIP3    H235890   5.958   1.219  19.499  0.0393 -0.8060  0.4801
 3899TIP3   OH235891   2.375   2.149  17.937 -0.2378  0.1149  0.2915
 3899TIP3    H135892   2.468   2.137  17.918 -0.2777 -0.5247  0.5033
 3899TIP3    H235893   2.373   2.181  18.027 -0.2773 -1.0634  0.7276
 3900TIP3   OH235894   2.563   3.634  18.653 -0.4931  0.2741  0.6594
 3900TIP3    H135895   2.621   3.684  18.711 -0.2492  0.8204 -0.0533
 3900TIP3    H235896   2.572   3.543  18.684  0.9752  0.2939  0.3876
 3901TIP3   OH235897   2.790   3.376  16.666 -0.1726  0.1615  0.3891
 3901TIP3    H135898   2.813   3.288  16.638  1.6946  0.5093  0.7135
 3901TIP3    H235899   2.738   3.412  16.593 -1.0546 -1.2148  0.3084
 3902TIP3   OH235900   6.588   3.478  17.887 -0.3348 -0.5470  0.2314
 3902TIP3    H135901   6.530   3.477  17.810 -0.2084  1.3186  0.0723
 3902TIP3    H235902   6.609   3.570  17.900  1.7789 -1.0673  0.9265
 3903TIP3   OH235903   2.340   5.999  18.404 -0.6196  0.5080  0.3493
 3903TIP3    H135904   2.403   5.943  18.449 -1.3663  1.0562  2.1503
 3903TIP3    H235905   2.390   6.076  18.377  0.4181 -0.9271 -2.1543
 3904TIP3   OH235906   1.583   5.173  17.721 -0.6833 -0.4008 -0.0261
 3904TIP3    H135907   1.553   5.184  17.811  0.5835 -0.5687  0.4356
 3904TIP3    H235908   1.577   5.261  17.683  0.5377  0.0739  0.8119
 3905TIP3   OH235909   1.717   1.493  19.409  0.3864  0.4126 -0.7119
 3905TIP3    H135910   1.760   1.426  19.357  0.9217 -0.3198  0.6123
 3905TIP3    H235911   1.654   1.533  19.350  1.2256 -0.1147 -2.0114
 3906TIP3   OH235912   6.584   5.646  17.646  0.5711  0.4744  0.0996
 3906TIP3    H135913   6.672   5.612  17.631  1.2083  1.7385  0.8440
 3906TIP3    H235914   6.581   5.663  17.740 -0.3038  0.9011  0.0031
 3907TIP3   OH235915   1.868   3.270  17.994 -0.1261 -0.4517 -0.0484
 3907TIP3    H135916   1.924   3.347  17.982  0.0068 -0.4060  0.8258
 3907TIP3    H235917   1.901   3.207  17.930  0.8805 -0.4002  0.3938
 3908TIP3   OH235918   4.809   4.186  18.505 -0.4011 -0.0279 -0.3916
 3908TIP3    H135919   4.846   4.250  18.445 -0.8176  1.1989  0.6312
 3908TIP3    H235920   4.791   4.234  18.586 -0.5408 -1.4685  0.4847
 3909TIP3   OH235921   4.050   2.787  17.492 -0.2380 -0.0795 -0.3842
 3909TIP3    H135922   4.033   2.692  17.492  1.0071 -0.3416  1.0878
 3909TIP3    H235923   4.019   2.816  17.577 -0.2151  0.7693 -0.6625
 3910TIP3   OH235924   0.175   2.712  18.676  0.1537 -0.1628 -0.2956
 3910TIP3    H135925   0.201   2.682  18.763 -0.0608  0.3424 -0.0503
 3910TIP3    H235926   0.082   2.691  18.671 -0.4613  2.0671  0.6101
 3911TIP3   OH235927   2.806   4.533  17.446 -0.7854 -0.2499  0.0319
 3911TIP3    H135928   2.826   4.572  17.531  0.5827  0.3433 -0.5226
 3911TIP3    H235929   2.797   4.439  17.464  1.8290 -0.4885  0.5423
 3912TIP3   OH235930   0.041   5.987  17.921  0.4370 -0.2949  0.5788
 3912TIP3    H135931   0.064   5.900  17.955  0.7733 -0.4479 -0.0243
 3912TIP3    H235932  -0.001   6.031  17.994  1.4783 -0.4823  1.3153
 3913TIP3   OH235933   0.053   1.736  19.834 -0.1552  0.1473  0.2389
 3913TIP3    H135934   0.127   1.755  19.892 -0.9238 -0.3013  1.4033
 3913TIP3    H235935  -0.019   1.717  19.894 -0.8744 -0.7123 -0.8808
 3914TIP3   OH235936   2.228   6.115  17.779 -0.3411  0.2482 -0.2588
 3914TIP3    H135937   2.203   6.063  17.856 -0.9854  0.5164 -0.2847
 3914TIP3    H235938   2.323   6.127  17.789 -0.5862  1.2695  1.1270
 3915TIP3   OH235939   3.137   2.901  17.554 -0.2577 -0.3935  0.5362
 3915TIP3    H135940   3.073   2.928  17.487 -0.2968 -0.1710  0.6632
 3915TIP3    H235941   3.191   2.835  17.510  0.8995  1.0789 -0.3234
 3916TIP3   OH235942   5.815   5.087  19.294  0.5814 -0.0395  0.3181
 3916TIP3    H135943   5.757   5.051  19.361  0.0765  0.0057 -0.0919
 3916TIP3    H235944   5.870   5.013  19.268 -0.7132 -0.6624 -0.8016
 3917TIP3   OH235945   5.361   0.361  18.252 -0.3894 -0.2226  0.3483
 3917TIP3    H135946   5.281   0.380  18.202  0.9135  2.9996 -0.7512
 3917TIP3    H235947   5.391   0.277  18.217 -1.8254 -0.1540 -1.2127
 3918TIP3   OH235948   3.193   3.419  18.835  0.0838  0.2583 -0.4223
 3918TIP3    H135949   3.207   3.428  18.740 -0.3560 -1.0540 -0.6257
 3918TIP3    H235950   3.280   3.407  18.871  0.2558  0.7710 -0.6521
 3919TIP3   OH235951   4.496   4.785  18.904  0.3035 -0.8924  0.0051
 3919TIP3    H135952   4.518   4.836  18.982  0.5090 -0.2430 -0.4721
 3919TIP3    H235953   4.513   4.844  18.831 -0.7991 -1.1742 -0.4950
 3920TIP3   OH235954   1.963   1.990  16.349 -0.0953 -0.0393 -0.0525
 3920TIP3    H135955   1.893   2.041  16.310 -0.4893 -1.9201 -1.9885
 3920TIP3    H235956   1.976   1.916  16.289  2.8469 -0.3251  0.7693
 3921TIP3   OH235957   1.258   2.476  17.336  0.2934  0.3446  0.7012
 3921TIP3    H135958   1.178   2.459  17.386  0.4277 -0.4537  0.6522
 3921TIP3    H235959   1.315   2.522  17.398 -0.6119  1.9517  0.3965
 3922TIP3   OH235960   6.287   6.434  19.501 -0.3398  0.2700  0.3803
 3922TIP3    H135961   6.371   6.400  19.533  1.0961  2.1943 -1.0294
 3922TIP3    H235962   6.260   6.498  19.567  0.3349  1.0225 -0.0444
 3923TIP3   OH235963   3.660   0.180  19.597 -0.0031  0.3972 -0.2921
 3923TIP3    H135964   3.662   0.274  19.579 -1.0045  0.2230 -1.4997
 3923TIP3    H235965   3.580   0.149  19.552 -0.5287 -0.7700  1.3576
 3924TIP3   OH235966   0.978   4.634  17.689  0.1276 -0.4775 -0.4281
 3924TIP3    H135967   0.943   4.608  17.774 -0.4161  1.8626  0.1426
 3924TIP3    H235968   1.072   4.640  17.702  0.1965 -1.4395 -0.4068
 3925TIP3   OH235969   6.400   2.080  16.867  0.2987 -0.1925  0.0092
 3925TIP3    H135970   6.440   2.140  16.804  0.1065 -0.4055 -0.3197
 3925TIP3    H235971   6.359   2.012  16.813 -2.0686  0.9611  0.2218
 3926TIP3   OH235972   0.842   1.163  17.920 -0.2395 -0.0499  0.0890
 3926TIP3    H135973   0.864   1.085  17.970 -1.5180 -0.7994 -0.4814
 3926TIP3    H235974   0.805   1.223  17.985  1.6972  0.5480  0.7297
 3927TIP3   OH235975   5.403   2.728  19.695  0.3879 -0.6827  0.0802
 3927TIP3    H135976   5.389   2.668  19.621  3.3288 -1.0509 -0.2731
 3927TIP3    H235977   5.402   2.671  19.772 -1.3348 -0.4806  0.2491
 3928TIP3   OH235978   3.226   2.459  18.959  0.0309  0.0857  0.0706
 3928TIP3    H135979   3.268   2.423  19.037 -2.0114 -2.8101 -0.0106
 3928TIP3    H235980   3.289   2.442  18.888  0.6218 -0.0201  0.6090
 3929TIP3   OH235981   4.470   6.193  19.068  0.1841 -0.5953  0.5046
 3929TIP3    H135982   4.532   6.264  19.087  0.9860 -1.5957  1.8972
 3929TIP3    H235983   4.518   6.135  19.009  0.7576 -1.5465  1.8541
 3930TIP3   OH235984   6.093   5.388  18.070  0.2900  0.1809 -0.1703
 3930TIP3    H135985   6.126   5.372  17.981 -0.3091  0.7343 -0.5012
 3930TIP3    H235986   6.159   5.445  18.110 -0.4159  1.6109 -0.9623
 3931TIP3   OH235987   6.633   1.808  18.447  0.4647  0.2109  0.4853
 3931TIP3    H135988   6.608   1.849  18.364  0.5124 -0.8638 -0.0818
 3931TIP3    H235989   6.559   1.750  18.469  1.7548 -1.9271 -0.4857
 3932TIP3   OH235990   1.781   2.110  16.219  0.6869  0.2780  0.3295
 3932TIP3    H135991   1.741   2.164  16.286  0.3713  1.7525 -0.9912
 3932TIP3    H235992   1.724   2.119  16.143  0.6176 -1.9507  0.0455
 3933TIP3   OH235993   1.030   5.783  19.250  0.2604 -0.1070  0.1985
 3933TIP3    H135994   1.063   5.723  19.183 -0.9167  0.8664 -1.3158
 3933TIP3    H235995   1.093   5.855  19.251  0.3376 -0.1743  0.2250
 3934TIP3   OH235996   6.573   6.323  17.686  0.5740  0.2041 -0.0375
 3934TIP3    H135997   6.661   6.307  17.721  0.4111 -0.4320  0.0916
 3934TIP3    H235998   6.529   6.373  17.755  0.9169  0.7736 -0.2214
 3935TIP3   OH235999   3.738   5.628  17.613 -0.6452 -0.0157  0.1225
 3935TIP3    H136000   3.751   5.546  17.661  0.3519  1.0081  1.6817
 3935TIP3    H236001   3.809   5.685  17.644 -0.3750  0.9318 -2.0819
 3936TIP3   OH236002   1.000   4.519  20.020 -0.7144  0.0843  0.3210
 3936TIP3    H136003   1.068   4.488  20.079 -0.3938 -0.5301 -0.3441
 3936TIP3    H236004   0.988   4.446  19.958 -3.0357 -0.4609  1.3078
 3937TIP3   OH236005   4.201   4.000  17.081  0.3108  0.0886  0.3821
 3937TIP3    H136006   4.182   3.938  17.010  0.8750 -1.0058  1.1487
 3937TIP3    H236007   4.287   3.973  17.114 -0.1146  0.3055  1.7447
 3938TIP3   OH236008   1.555   1.330  17.352 -0.2833  0.1539 -0.0479
 3938TIP3    H136009   1.550   1.423  17.373  0.2340  0.2312 -0.2735
 3938TIP3    H236010   1.646   1.306  17.366 -0.1482 -0.0394 -1.1574
 3939TIP3   OH236011   0.309   3.873  17.905 -0.5432 -0.0182  0.5457
 3939TIP3    H136012   0.220   3.900  17.927 -0.2460  0.0197  1.7913
 3939TIP3    H236013   0.311   3.872  17.809 -1.8989 -0.1010  0.4975
 3940TIP3   OH236014   5.718   4.693  19.951 -0.1462  0.1125 -0.2958
 3940TIP3    H136015   5.782   4.622  19.948 -0.0888  0.1806 -1.0356
 3940TIP3    H236016   5.754   4.757  20.012 -0.0539 -0.3650  0.1470
 3941TIP3   OH236017   6.533   3.505  16.597 -0.9002 -0.6195  0.0775
 3941TIP3    H136018   6.447   3.517  16.556  0.9911 -0.3903 -4.2703
 3941TIP3    H236019   6.557   3.592  16.629 -1.0363  0.0029 -1.4573
 3942TIP3   OH236020   2.635   0.547  19.360  0.5872  0.2916  0.0619
 3942TIP3    H136021   2.554   0.547  19.308 -0.3316  2.4903  1.3415
 3942TIP3    H236022   2.674   0.632  19.342  2.3121 -0.4816 -0.0045
 3943TIP3   OH236023   5.805   6.480  19.920  0.0333  0.9517 -0.2487
 3943TIP3    H136024   5.792   6.569  19.952  0.4011  0.9678 -0.1281
 3943TIP3    H236025   5.743   6.427  19.970  0.0551  1.0917 -0.0713
 3944TIP3   OH236026   0.453   4.328  20.117  0.2425  0.0329  0.0185
 3944TIP3    H136027   0.432   4.262  20.184  3.0469 -1.2792 -0.2661
 3944TIP3    H236028   0.464   4.277  20.036 -0.8174  1.3198 -0.9852
 3945TIP3   OH236029   0.236   4.820  17.417  0.1451 -0.1435  0.2285
 3945TIP3    H136030   0.158   4.840  17.365  1.1865  1.6804 -0.7182
 3945TIP3    H236031   0.207   4.750  17.477 -1.7074 -0.7426 -1.2597
 3946TIP3   OH236032   2.944   4.902  19.162  0.1260  0.0109 -0.0092
 3946TIP3    H136033   3.024   4.853  19.177 -0.3806 -0.9229 -0.2815
 3946TIP3    H236034   2.883   4.870  19.228 -0.7548 -1.0190 -1.2596
 3947TIP3   OH236035   0.636   3.726  18.243  0.6055  0.4780  0.2677
 3947TIP3    H136036   0.551   3.694  18.272  0.5054  0.1313 -0.3749
 3947TIP3    H236037   0.668   3.658  18.184  0.6121  1.3280 -0.7487
 3948TIP3   OH236038   4.331   4.367  18.474  0.0073  0.0808  0.0605
 3948TIP3    H136039   4.236   4.378  18.480  0.2497  2.5859  0.7860
 3948TIP3    H236040   4.349   4.287  18.523 -1.7763 -0.9017 -0.7866
 3949TIP3   OH236041   2.687   2.446  17.585  0.0072 -0.0035 -0.0509
 3949TIP3    H136042   2.720   2.529  17.551 -1.0097 -0.2610 -1.8280
 3949TIP3    H236043   2.610   2.471  17.637  0.4339  0.2495  0.4687
 3950TIP3   OH236044   0.062   3.234  16.927  0.3407 -0.2294 -0.5192
 3950TIP3    H136045   0.049   3.212  16.835  0.7958 -1.3864 -0.3212
 3950TIP3    H236046   0.083   3.328  16.926  1.3548 -0.4331 -1.7149
 3951TIP3   OH236047   4.668   5.028  18.432 -0.2605  0.2030  0.4762
 3951TIP3    H136048   4.708   5.034  18.346  0.0782 -1.3563  0.4968
 3951TIP3    H236049   4.679   4.936  18.458 -1.1126  0.4408  1.8095
 3952TIP3   OH236050   1.286   2.523  16.320  0.1356  0.5943  0.4794
 3952TIP3    H136051   1.247   2.542  16.235  0.8973 -0.4996 -0.1422
 3952TIP3    H236052   1.339   2.601  16.340 -1.3353  1.5599  0.7613
 3953TIP3   OH236053   2.213   0.801  19.923 -0.7587  0.1444 -0.2883
 3953TIP3    H136054   2.141   0.836  19.977  0.3775  0.4892  1.0717
 3953TIP3    H236055   2.260   0.878  19.892  0.8535 -0.0661  1.4545
 3954TIP3   OH236056   4.153   2.866  16.818  0.1781  0.2996  0.2093
 3954TIP3    H136057   4.154   2.777  16.852  1.8038  0.3879  0.4875
 3954TIP3    H236058   4.206   2.862  16.738 -2.4857  0.3728 -1.6904
 3955TIP3   OH236059   5.664   2.522  18.402 -0.7100 -0.0788  0.1639
 3955TIP3    H136060   5.740   2.473  18.373  0.2380  0.6424  1.3144
 3955TIP3    H236061   5.606   2.525  18.326  0.1790 -1.0769 -0.5745
 3956TIP3   OH236062   4.113   2.247  18.959 -0.2602  0.2463  0.1057
 3956TIP3    H136063   4.128   2.237  18.865 -0.7813  0.4798 -0.0019
 3956TIP3    H236064   4.171   2.318  18.985 -0.1253  0.1911 -0.0424
 3957TIP3   OH236065   1.767   4.869  18.998 -0.3968 -0.2747  0.0030
 3957TIP3    H136066   1.806   4.784  18.979 -0.4758 -0.4489  0.6131
 3957TIP3    H236067   1.809   4.898  19.079 -0.4784  0.1968 -0.1201
 3958TIP3   OH236068   5.738   2.909  17.221  0.2652 -0.0732 -0.2167
 3958TIP3    H136069   5.773   2.988  17.181 -1.7767  0.1318 -1.7844
 3958TIP3    H236070   5.789   2.838  17.181 -0.2889  0.2700 -1.6017
 3959TIP3   OH236071   4.512   2.536  19.828 -0.2279 -0.0919 -0.3414
 3959TIP3    H136072   4.549   2.619  19.796 -0.1050 -0.3866 -0.9864
 3959TIP3    H236073   4.456   2.506  19.756  1.0900 -1.4430 -0.8579
 3960TIP3   OH236074   2.491   6.338  18.546  0.5374  0.1650  0.1359
 3960TIP3    H136075   2.396   6.351  18.539  0.9312  2.9421 -1.7374
 3960TIP3    H236076   2.522   6.413  18.597  1.9469  0.6807 -1.4037
 3961TIP3   OH236077   4.549   3.310  19.792  0.1695  0.1786  0.0222
 3961TIP3    H136078   4.535   3.285  19.701 -0.8807  0.6708  0.0296
 3961TIP3    H236079   4.569   3.228  19.836 -1.6406 -0.4639 -0.2441
 3962TIP3   OH236080   5.361   1.205  19.696 -0.4484 -0.3308  0.0513
 3962TIP3    H136081   5.283   1.154  19.671 -0.2111 -1.4536  1.5136
 3962TIP3    H236082   5.431   1.170  19.642 -0.9273  0.7898 -1.3893
 3963TIP3   OH236083   4.652   3.096  17.271 -0.2829  0.8435 -0.7836
 3963TIP3    H136084   4.598   3.081  17.349 -0.0356  0.2442 -0.7261
 3963TIP3    H236085   4.667   3.009  17.234  0.9082  0.9579 -0.6180
 3964TIP3   OH236086   0.713   6.302  19.240  0.1727  0.1821  0.0034
 3964TIP3    H136087   0.636   6.357  19.227  1.8194  2.7406  0.2569
 3964TIP3    H236088   0.771   6.325  19.166  1.0961 -0.8989  0.3629
 3965TIP3   OH236089   2.992   0.195  18.326  0.0653 -0.1799  0.2451
 3965TIP3    H136090   3.075   0.215  18.369 -0.2098 -1.8466  1.6879
 3965TIP3    H236091   2.998   0.102  18.302 -1.2073 -0.2371  0.0383
 3966TIP3   OH236092   5.439   4.713  19.943  0.5999  0.8021 -0.7126
 3966TIP3    H136093   5.428   4.658  19.866  2.0644 -3.7498  1.9217
 3966TIP3    H236094   5.526   4.691  19.977 -1.0036  0.1876  3.7243
 3967TIP3   OH236095   4.243   0.612  20.241 -0.2400 -0.2676  0.2587
 3967TIP3    H136096   4.308   0.552  20.204  0.6681  1.1168 -0.4461
 3967TIP3    H236097   4.185   0.555  20.293  0.6736 -1.7224 -0.2617
 3968TIP3   OH236098   1.290   4.291  19.305 -0.4196  0.0057  0.2358
 3968TIP3    H136099   1.243   4.370  19.332 -0.4634 -0.1961  0.7672
 3968TIP3    H236100   1.252   4.221  19.358  1.0076 -0.0365  1.2792
 3969TIP3   OH236101   4.176   0.972  19.862  0.0745  0.4625  0.4163
 3969TIP3    H136102   4.123   1.019  19.798  0.0776  1.0050  0.8109
 3969TIP3    H236103   4.121   0.899  19.891  0.4057 -0.3316 -0.8703
 3970TIP3   OH236104   5.530   3.854  17.489  0.3037 -0.5926 -0.0654
 3970TIP3    H136105   5.553   3.807  17.409 -0.6939  1.2938 -1.5776
 3970TIP3    H236106   5.451   3.811  17.521  0.6003 -1.2465 -0.2046
 3971TIP3   OH236107   1.053   6.570  18.362  0.3963 -0.3887 -0.2005
 3971TIP3    H136108   1.065   6.533  18.449  2.5718  0.8583  0.0836
 3971TIP3    H236109   1.088   6.504  18.302  0.4613 -0.5184 -0.0190
 3972TIP3   OH236110   1.691   0.962  20.208 -0.2131 -0.1360  0.1671
 3972TIP3    H136111   1.726   1.022  20.142 -2.0405  1.5727  0.6557
 3972TIP3    H236112   1.768   0.913  20.239  0.7619 -0.8465 -2.9833
 3973TIP3   OH236113   6.695   0.197  18.618  0.3485 -0.2729 -0.3163
 3973TIP3    H136114   6.747   0.208  18.698 -0.6107 -0.0150  0.2922
 3973TIP3    H236115   6.736   0.255  18.554  0.2307  0.6721  0.4455
 3974TIP3   OH236116   0.123   5.175  19.885 -0.8278 -0.1190 -0.5876
 3974TIP3    H136117   0.094   5.246  19.942 -2.2105  0.9616 -2.4836
 3974TIP3    H236118   0.148   5.219  19.804  0.7025 -1.6127 -0.9725
 3975TIP3   OH236119   3.380   2.426  18.535 -0.2381  0.0157  0.4783
 3975TIP3    H136120   3.308   2.469  18.582  0.5519 -0.2567  2.0112
 3975TIP3    H236121   3.443   2.404  18.604  1.9514  1.4286 -0.9575
 3976TIP3   OH236122   5.806   1.536  17.333 -0.0936  0.2082 -0.2726
 3976TIP3    H136123   5.789   1.520  17.241  1.4339  2.8253 -1.1191
 3976TIP3    H236124   5.724   1.574  17.366 -0.4386 -0.1524 -0.6976
 3977TIP3   OH236125   2.210   3.424  19.476  0.2125 -0.0519 -0.4714
 3977TIP3    H136126   2.242   3.336  19.460 -1.2771 -0.3358 -2.2473
 3977TIP3    H236127   2.247   3.477  19.405  2.8414  1.3202  1.7292
 3978TIP3   OH236128   2.541   1.406  17.439  0.1401 -0.1583  0.1362
 3978TIP3    H136129   2.559   1.347  17.366  0.3624 -0.9484  0.8233
 3978TIP3    H236130   2.551   1.494  17.401  0.3799 -0.5540 -0.7493
 3979TIP3   OH236131   5.411   3.062  17.873  0.0256  0.1227  0.4079
 3979TIP3    H136132   5.492   3.070  17.924  0.5704 -0.3622 -0.3620
 3979TIP3    H236133   5.392   3.152  17.845  1.7513 -0.0462 -1.5697
 3980TIP3   OH236134   5.419   0.645  18.446  0.1706 -0.5267  0.3218
 3980TIP3    H136135   5.357   0.603  18.387  1.6008 -0.9327 -0.9652
 3980TIP3    H236136   5.381   0.634  18.533 -1.2044 -1.3604 -0.3451
 3981TIP3   OH236137   3.934   4.551  20.040  0.1701  0.4686  0.1528
 3981TIP3    H136138   4.028   4.558  20.054  0.3051  1.4553 -1.0671
 3981TIP3    H236139   3.917   4.601  19.960 -0.9643 -2.1707 -1.4075
 3982TIP3   OH236140   1.636   3.360  17.315  0.0997 -0.3907  0.2410
 3982TIP3    H136141   1.545   3.381  17.294 -0.2290 -0.0440  1.8631
 3982TIP3    H236142   1.662   3.296  17.248 -0.6384  1.0460 -1.5118
 3983TIP3   OH236143   3.470   4.342  18.317 -0.5558  0.0247  0.2141
 3983TIP3    H136144   3.563   4.354  18.300 -0.8454  2.6894  0.1252
 3983TIP3    H236145   3.460   4.248  18.332  1.6446 -0.8227 -2.7476
 3984TIP3   OH236146   6.004   2.022  17.690 -0.3646  0.3284  0.0527
 3984TIP3    H136147   6.080   2.059  17.736 -0.3471 -1.2362  1.4062
 3984TIP3    H236148   5.991   2.079  17.614  1.0162  1.7119  0.7908
 3985TIP3   OH236149   2.789   5.408  19.796 -0.1497  0.3958 -0.6407
 3985TIP3    H136150   2.786   5.416  19.701 -0.9022  0.4915 -0.6077
 3985TIP3    H236151   2.830   5.489  19.826  1.2746 -0.1737 -0.9517
 3986TIP3   OH236152   4.078   4.512  18.454 -0.0352 -0.4822 -0.2280
 3986TIP3    H136153   4.034   4.597  18.452 -0.5783 -0.7666 -1.1460
 3986TIP3    H236154   4.009   4.450  18.474  0.0305 -0.8833 -1.1984
 3987TIP3   OH236155   5.554   2.080  20.180  0.5752 -0.1477 -0.3455
 3987TIP3    H136156   5.523   2.102  20.092 -2.1440  1.7795  0.9376
 3987TIP3    H236157   5.608   2.155  20.206  0.8905 -0.4382 -0.1581
 3988TIP3   OH236158   6.160   3.702  17.299  0.3231  0.0238 -0.0427
 3988TIP3    H136159   6.208   3.783  17.281  0.4569 -0.2449 -1.0158
 3988TIP3    H236160   6.217   3.654  17.359  1.0315 -0.0384 -0.7319
 3989TIP3   OH236161   4.623   2.254  19.036  0.2666 -0.3400  0.2340
 3989TIP3    H136162   4.718   2.256  19.025  0.3463 -0.5500  0.8543
 3989TIP3    H236163   4.588   2.275  18.949  0.8786 -0.4981 -0.0552
 3990TIP3   OH236164   4.766   5.690  18.391  0.1593 -0.3133  0.4494
 3990TIP3    H136165   4.731   5.626  18.453 -1.0018  0.7357  0.9171
 3990TIP3    H236166   4.701   5.694  18.321  0.7679 -0.4451 -0.1292
 3991TIP3   OH236167   5.039   4.655  19.033  0.5935 -0.4963  0.5261
 3991TIP3    H136168   5.018   4.748  19.021 -0.6132 -1.1280 -3.7863
 3991TIP3    H236169   5.129   4.646  19.001  0.7050 -0.8295  0.9223
 3992TIP3   OH236170   2.772   3.325  17.759 -0.4377 -0.0929 -0.0811
 3992TIP3    H136171   2.856   3.360  17.790 -1.4904  1.0639  1.5894
 3992TIP3    H236172   2.713   3.400  17.757 -1.2171 -0.6957 -2.2056
 3993TIP3   OH236173   1.094   0.113  17.183 -0.0130  0.0152  0.1973
 3993TIP3    H136174   1.148   0.188  17.163  0.9157 -0.9136 -0.8781
 3993TIP3    H236175   1.018   0.121  17.125 -0.8742  1.0930  1.4138
 3994TIP3   OH236176   5.335   2.919  17.383 -0.1545 -0.2521  0.0662
 3994TIP3    H136177   5.406   2.976  17.353 -0.3712  0.1269  0.2674
 3994TIP3    H236178   5.289   2.971  17.450  1.2296 -1.6067  2.1939
 3995TIP3   OH236179   2.691   5.522  18.018  0.1339  0.3631  0.4641
 3995TIP3    H136180   2.714   5.583  17.948  0.2402 -0.0766  0.1134
 3995TIP3    H236181   2.596   5.517  18.015  0.1648 -0.0058  0.0518
 3996TIP3   OH236182   2.460   5.564  16.889 -0.2115  1.0039  0.3595
 3996TIP3    H136183   2.454   5.659  16.891 -1.2384  0.9788 -0.6315
 3996TIP3    H236184   2.371   5.533  16.904  0.0939  0.2033  0.5841
 3997TIP3   OH236185   4.235   3.609  19.821 -0.6475  0.1679  0.5660
 3997TIP3    H136186   4.264   3.674  19.758 -1.8260  0.3024  0.1356
 3997TIP3    H236187   4.180   3.658  19.882 -0.2000 -0.1242  1.2181
 3998TIP3   OH236188   1.046   1.340  19.611 -0.1695  0.3293  0.4965
 3998TIP3    H136189   1.037   1.363  19.704  3.2323 -2.3421  1.7104
 3998TIP3    H236190   0.984   1.268  19.598  1.6834 -1.6089  1.7919
 3999TIP3   OH236191   4.132   5.289  17.673 -0.6603  0.2163  0.4044
 3999TIP3    H136192   4.077   5.238  17.614 -1.1815  0.8002  0.3660
 3999TIP3    H236193   4.132   5.239  17.755 -3.5836  1.5199  1.3370
 4000TIP3   OH236194   3.700   3.739  17.603 -0.1168 -0.4965 -0.5268
 4000TIP3    H136195   3.672   3.708  17.689 -1.3208  0.6278 -0.4823
 4000TIP3    H236196   3.637   3.808  17.580  0.9304  0.1099 -1.7411
 4001TIP3   OH236197   4.180   6.301  18.383 -0.6862 -0.2993 -0.0880
 4001TIP3    H136198   4.130   6.246  18.443  0.1878  0.9931  1.9160
 4001TIP3    H236199   4.257   6.248  18.361 -1.6665 -1.3237 -1.2573
 4002TIP3   OH236200   3.095   6.060  18.662  0.1704 -0.2235  0.0116
 4002TIP3    H136201   3.185   6.088  18.677 -0.1578  0.3047  1.1050
 4002TIP3    H236202   3.089   6.048  18.567  1.2160  0.3211 -0.1383
 4003TIP3   OH236203   5.853   3.179  17.508  0.2860 -0.4779  0.5308
 4003TIP3    H136204   5.925   3.149  17.563 -0.0875 -0.2575  1.1635
 4003TIP3    H236205   5.863   3.274  17.505 -1.1533 -0.2108  2.3851
 4004TIP3   OH236206   6.310   4.873  18.676 -0.3280  0.3303  0.0433
 4004TIP3    H136207   6.311   4.950  18.732 -3.3209 -0.3047  1.1855
 4004TIP3    H236208   6.307   4.799  18.737 -0.9539 -0.5019 -0.9532
 4005TIP3   OH236209   4.460   6.748  20.153  0.4292 -0.3235 -0.1462
 4005TIP3    H136210   4.447   6.752  20.247  0.7593  0.0032 -0.1116
 4005TIP3    H236211   4.375   6.723  20.118 -0.0058  0.6790  0.1549
 4006TIP3   OH236212   5.534   6.684  19.176 -0.5283  0.2749  0.0669
 4006TIP3    H136213   5.523   6.716  19.086 -0.7462  0.4952  0.1702
 4006TIP3    H236214   5.452   6.706  19.219 -0.0671  1.0474  0.5833
 4007TIP3   OH236215   1.668   2.938  17.293 -0.3725 -0.1422  0.0072
 4007TIP3    H136216   1.734   2.869  17.299  1.0822  1.2002  0.2100
 4007TIP3    H236217   1.631   2.944  17.381  0.5219  0.2708  0.3726
 4008TIP3   OH236218   3.631   0.169  20.124  0.2257  0.0686 -0.0832
 4008TIP3    H136219   3.655   0.260  20.142  2.0818 -0.5596  0.9190
 4008TIP3    H236220   3.694   0.117  20.175 -2.5889 -1.7899  1.7720
 4009TIP3   OH236221   3.176   4.374  20.242  0.0054  0.0889  0.8922
 4009TIP3    H136222   3.173   4.324  20.161 -0.0113 -1.9750  2.0889
 4009TIP3    H236223   3.269   4.376  20.265 -0.1298 -0.6242  1.5440
 4010TIP3   OH236224   6.524   6.007  18.931 -0.3328  0.0116 -0.2885
 4010TIP3    H136225   6.486   6.016  19.019  1.0999 -2.1740  0.6358
 4010TIP3    H236226   6.509   6.092  18.890 -1.9378  0.7681  1.7056
 4011TIP3   OH236227   1.331   1.641  20.367 -0.0803  0.1447 -0.0005
 4011TIP3    H136228   1.381   1.619  20.288  0.1453  0.5703  0.0212
 4011TIP3    H236229   1.318   1.557  20.411  1.9067  0.1950  0.7564
 4012TIP3   OH236230   5.035   2.191  19.276 -0.2818 -0.2074  0.4840
 4012TIP3    H136231   5.059   2.127  19.343  0.9742 -1.1941 -0.8466
 4012TIP3    H236232   5.117   2.233  19.252 -0.4448 -0.8308 -1.3669
 4013TIP3   OH236233   1.578   3.779  17.816  0.2350 -0.0977  0.4439
 4013TIP3    H136234   1.599   3.798  17.907 -0.0068  0.1038  0.4577
 4013TIP3    H236235   1.515   3.707  17.820  2.3638 -2.0972  0.3464
 4014TIP3   OH236236   5.993   6.349  19.082 -0.5858  0.2179  0.1682
 4014TIP3    H136237   5.957   6.298  19.155  0.1476 -0.3019  0.1820
 4014TIP3    H236238   6.058   6.406  19.123  1.4569 -1.6215 -0.2838
 4015TIP3   OH236239   2.940   0.227  18.977 -0.3523 -0.7388  0.4458
 4015TIP3    H136240   2.960   0.146  19.023  1.1456 -1.9801 -2.2060
 4015TIP3    H236241   2.975   0.215  18.889 -3.6427  1.1984 -1.3372
 4016TIP3   OH236242   4.843   6.052  17.632 -0.0872 -0.4668  0.3675
 4016TIP3    H136243   4.860   6.054  17.726 -0.3351 -1.5849  0.4546
 4016TIP3    H236244   4.812   5.963  17.616  1.8734 -0.9563 -1.0924
 4017TIP3   OH236245   5.461   2.515  18.602 -0.0571  0.0839  0.0801
 4017TIP3    H136246   5.537   2.541  18.551 -1.5137  0.6204 -1.9544
 4017TIP3    H236247   5.454   2.421  18.589 -0.7236  0.2907 -1.2446
 4018TIP3   OH236248   5.268   0.842  17.082  0.0561  0.0077 -0.2923
 4018TIP3    H136249   5.288   0.764  17.134 -1.7989  0.3474  1.0413
 4018TIP3    H236250   5.172   0.846  17.082  0.0323  0.6995 -2.7946
 4019TIP3   OH236251   1.643   4.588  18.809  0.3573  0.0188 -0.5331
 4019TIP3    H136252   1.696   4.577  18.730 -0.5339  0.0486 -1.1520
 4019TIP3    H236253   1.699   4.557  18.880  0.5462 -1.6998 -1.3876
 4020TIP3   OH236254   3.993   3.526  17.615  0.1634 -1.2197  0.2201
 4020TIP3    H136255   3.959   3.460  17.555  1.5939  0.1336 -2.2223
 4020TIP3    H236256   4.043   3.586  17.560 -1.3659  2.1843  2.1982
 4021TIP3   OH236257   6.139   0.249  17.321  0.6105  0.1849 -0.2022
 4021TIP3    H136258   6.160   0.157  17.336 -0.9285 -0.3770 -1.2891
 4021TIP3    H236259   6.218   0.285  17.282  0.9224 -0.9123 -0.6205
 4022TIP3   OH236260   2.641   2.742  20.098 -0.2386  1.1051 -0.0111
 4022TIP3    H136261   2.705   2.697  20.153 -0.7655  0.0244 -0.2555
 4022TIP3    H236262   2.649   2.701  20.012 -1.4519  0.7446  0.0261
 4023TIP3   OH236263   0.854   4.868  18.022  0.1278  0.2152  0.2623
 4023TIP3    H136264   0.878   4.779  17.996  0.0672  0.5763 -1.1011
 4023TIP3    H236265   0.828   4.860  18.114  2.3475 -0.7448  0.8749
 4024TIP3   OH236266   0.631   1.909  19.706 -0.0319  0.3968 -0.5216
 4024TIP3    H136267   0.696   1.840  19.723 -1.3644 -0.7418  0.1457
 4024TIP3    H236268   0.676   1.990  19.730  1.6785 -0.1764 -1.5988
 4025TIP3   OH236269   6.523   6.677  19.771 -0.3420 -0.1978 -0.1359
 4025TIP3    H136270   6.448   6.703  19.716 -0.2240 -0.4077 -0.3909
 4025TIP3    H236271   6.517   6.736  19.846 -1.8131 -1.3715  0.7240
 4026TIP3   OH236272   0.182   3.623  19.431 -0.2501  0.5158 -0.3779
 4026TIP3    H136273   0.225   3.708  19.435  0.5018  0.1025  0.7246
 4026TIP3    H236274   0.252   3.561  19.410 -0.3395 -0.1104  1.0355
 4027TIP3   OH236275   2.116   3.966  19.104 -0.6554 -0.5410  0.1915
 4027TIP3    H136276   2.071   4.023  19.166  0.1835 -3.0000  3.3345
 4027TIP3    H236277   2.183   4.022  19.065 -1.6378  1.3009  1.0230
 4028TIP3   OH236278   6.707   0.528  20.067  0.3269 -0.0840  0.4164
 4028TIP3    H136279   6.673   0.608  20.027 -2.0163 -1.1902  0.0239
 4028TIP3    H236280   6.756   0.486  19.996  0.5718  0.4261  0.2755
 4029TIP3   OH236281   5.302   4.154  17.976 -0.0406  0.2270 -0.0240
 4029TIP3    H136282   5.306   4.194  18.063  2.3708 -0.9639  0.5063
 4029TIP3    H236283   5.324   4.226  17.916 -0.3823  0.7553  0.4734
 4030TIP3   OH236284   2.053   5.333  19.504 -0.0505  0.1358  0.0627
 4030TIP3    H136285   2.133   5.384  19.517  0.5210 -0.5151 -0.7488
 4030TIP3    H236286   2.038   5.291  19.589  0.4408  0.3060  0.2406
 4031TIP3   OH236287   4.538   4.555  18.200  0.6520 -0.4463  0.2407
 4031TIP3    H136288   4.545   4.479  18.257  1.2650 -0.9849 -0.5306
 4031TIP3    H236289   4.624   4.596  18.204 -0.1882  1.3022  2.0915
 4032TIP3   OH236290   2.131   5.716  18.894 -0.1951  0.2129  0.0388
 4032TIP3    H136291   2.069   5.708  18.966  1.5194 -0.1443  1.5696
 4032TIP3    H236292   2.149   5.810  18.888  0.4635  0.1532  0.8510
 4033TIP3   OH236293   0.096   2.312  18.559  0.7943 -0.0280 -0.0354
 4033TIP3    H136294   0.092   2.287  18.651 -1.5760  2.4224  0.6407
 4033TIP3    H236295   0.005   2.311  18.529  1.1668  2.0466 -1.4690
 4034TIP3   OH236296   5.620   6.656  20.215  0.0371 -0.1478  0.0683
 4034TIP3    H136297   5.590   6.718  20.148 -1.5438 -0.2214  0.6481
 4034TIP3    H236298   5.547   6.653  20.277  1.0443 -0.8614  1.2453
 4035TIP3   OH236299   4.571   1.699  19.183 -0.1343 -0.7407  0.1558
 4035TIP3    H136300   4.578   1.764  19.253  2.1562 -1.2922  0.5283
 4035TIP3    H236301   4.482   1.710  19.149  0.0814  2.4190  0.3231
 4036TIP3   OH236302   3.713   5.479  18.249 -0.3137  0.1880  0.5425
 4036TIP3    H136303   3.778   5.443  18.309 -1.5877  0.0722  1.8981
 4036TIP3    H236304   3.727   5.573  18.253  0.8619  0.1036 -0.5135
 4037TIP3   OH236305   4.949   1.476  17.278 -0.2831  0.3256  0.2720
 4037TIP3    H136306   5.016   1.410  17.262 -0.1908  0.6415 -0.7256
 4037TIP3    H236307   4.867   1.433  17.252 -0.2841  0.4217  0.1118
 4038TIP3   OH236308   2.137   4.973  18.214  0.1504  0.2295  0.5956
 4038TIP3    H136309   2.142   5.020  18.130 -0.2679 -0.6849  0.0403
 4038TIP3    H236310   2.168   4.885  18.194 -2.0418 -0.6774  0.8514
 4039TIP3   OH236311   5.383   4.666  18.648 -0.8252 -0.4242 -0.1782
 4039TIP3    H136312   5.370   4.716  18.568 -1.3754 -0.1297  0.0947
 4039TIP3    H236313   5.402   4.732  18.715  0.4800 -0.7182 -0.2230
 4040TIP3   OH236314   0.407   0.458  19.511  1.0780  0.5240  0.4364
 4040TIP3    H136315   0.434   0.486  19.424  1.1150  0.0359  0.2860
 4040TIP3    H236316   0.461   0.509  19.571  2.5102 -0.5998  0.1341
 4041TIP3   OH236317   3.288   5.526  18.720  0.4227 -0.1286  0.1069
 4041TIP3    H136318   3.251   5.576  18.648  0.2098 -1.1462 -0.4982
 4041TIP3    H236319   3.380   5.512  18.695  0.2933 -0.6669 -0.0718
 4042TIP3   OH236320   0.119   4.416  17.195  0.1977 -0.1761  0.2216
 4042TIP3    H136321   0.079   4.453  17.116 -1.6020 -0.3763  1.0050
 4042TIP3    H236322   0.117   4.322  17.182  1.5325 -0.1756 -0.2211
 4043TIP3   OH236323   4.595   5.234  18.981 -0.3213 -0.5249  0.3826
 4043TIP3    H136324   4.541   5.244  18.903  1.1792 -0.7204 -0.7388
 4043TIP3    H236325   4.670   5.292  18.966  0.2303 -0.9269  1.4565
 4044TIP3   OH236326   3.117   4.514  18.303  0.7848  0.5513  0.5507
 4044TIP3    H136327   3.210   4.520  18.280  1.1505  0.3234  1.8875
 4044TIP3    H236328   3.112   4.438  18.361 -0.8947 -2.0112 -2.5485
 4045TIP3   OH236329   2.110   3.914  18.710 -0.5301  0.3400  0.1308
 4045TIP3    H136330   2.069   3.939  18.794 -0.2598  0.7321  0.1500
 4045TIP3    H236331   2.193   3.873  18.735 -1.0773 -0.8012  0.1079
 4046TIP3   OH236332   5.180   3.194  18.078 -0.2332 -0.2687 -0.4558
 4046TIP3    H136333   5.222   3.244  18.008  2.1357 -0.4759  0.7455
 4046TIP3    H236334   5.147   3.115  18.036 -1.9665  1.1689 -1.9422
 4047TIP3   OH236335   3.136   1.845  17.384  0.5963  0.3499 -0.1804
 4047TIP3    H136336   3.227   1.868  17.367  0.7881 -0.8517 -0.8911
 4047TIP3    H236337   3.119   1.770  17.327 -0.6330  0.1244  0.4453
 4048TIP3   OH236338   2.043   0.967  18.786 -0.1092 -0.0796 -0.3346
 4048TIP3    H136339   1.971   0.998  18.841 -0.0382 -1.6448  0.7127
 4048TIP3    H236340   2.095   1.046  18.767 -1.1138  0.7750  0.3600
 4049TIP3   OH236341   1.619   1.508  18.640  0.2148 -0.2514  0.2393
 4049TIP3    H136342   1.590   1.443  18.575  0.6542 -1.2055  0.9729
 4049TIP3    H236343   1.559   1.581  18.629 -0.5119 -0.9215 -0.3747
 4050TIP3   OH236344   2.731   4.911  19.335  0.3473  0.2926  0.0981
 4050TIP3    H136345   2.699   4.933  19.423  1.6062 -3.9557  1.8765
 4050TIP3    H236346   2.690   4.827  19.316  1.9076  0.0192 -2.4474
 4051TIP3   OH236347   3.375   3.119  19.801 -0.1064 -0.4130 -0.2315
 4051TIP3    H136348   3.354   3.180  19.731 -0.7660 -1.4395 -0.9545
 4051TIP3    H236349   3.451   3.070  19.769  1.2648  0.8701  0.8944
 4052TIP3   OH236350   6.317   4.560  17.934 -0.2576  0.3148  0.1251
 4052TIP3    H136351   6.325   4.465  17.949 -1.0032  0.0806 -0.8539
 4052TIP3    H236352   6.374   4.599  17.999 -2.2595 -0.6779  2.6403
 4053TIP3   OH236353   0.412   5.378  18.992  0.3225  0.3073 -0.0454
 4053TIP3    H136354   0.321   5.383  18.963 -0.1120  1.0856  1.3819
 4053TIP3    H236355   0.441   5.469  18.996  0.8025  0.1326  0.5900
 4054TIP3   OH236356   6.425   3.366  17.684  0.9528  0.3060  0.5929
 4054TIP3    H136357   6.499   3.307  17.702  1.2558  1.0994  2.1067
 4054TIP3    H236358   6.347   3.312  17.699  1.2186  0.3648  2.5293
 4055TIP3   OH236359   1.696   4.525  17.594  0.3953  0.0717 -0.0799
 4055TIP3    H136360   1.626   4.503  17.655  0.4468  0.3857  0.0949
 4055TIP3    H236361   1.654   4.520  17.508  0.8259 -2.3962 -0.2110
 4056TIP3   OH236362   0.771   3.904  16.756 -0.4294 -0.1721 -0.2983
 4056TIP3    H136363   0.844   3.897  16.817 -0.7576  1.3727  0.3177
 4056TIP3    H236364   0.703   3.952  16.804 -0.9596  0.4740 -1.6390
 4057TIP3   OH236365   4.312   1.936  19.542 -0.3454  0.0046 -0.2341
 4057TIP3    H136366   4.328   1.926  19.636 -0.2352  0.2988 -0.2193
 4057TIP3    H236367   4.332   2.028  19.524 -1.5319  0.2654 -0.3115
 4058TIP3   OH236368   4.223   5.900  20.109 -0.0185  0.4476 -0.2698
 4058TIP3    H136369   4.128   5.900  20.116  0.0091  1.4380  0.2872
 4058TIP3    H236370   4.253   5.956  20.181  0.9621  0.5665 -0.7473
 4059TIP3   OH236371   4.313   1.385  19.241 -0.4207 -0.8090 -0.4010
 4059TIP3    H136372   4.238   1.439  19.217 -0.3989 -1.4000 -1.9023
 4059TIP3    H236373   4.341   1.344  19.159  1.8738 -0.2063  0.0079
 4060TIP3   OH236374   4.532   4.624  20.394  1.0280 -0.0901 -0.4462
 4060TIP3    H136375   4.588   4.698  20.418  1.0236  0.5250 -2.1719
 4060TIP3    H236376   4.580   4.580  20.324 -0.0082 -0.3692 -1.0021
 4061TIP3   OH236377   1.130   4.286  19.812  0.5696 -0.0109 -0.1481
 4061TIP3    H136378   1.197   4.265  19.877 -1.9787 -0.0481  2.6591
 4061TIP3    H236379   1.070   4.211  19.815 -1.1715  1.3328 -0.3500
 4062TIP3   OH236380   2.973   5.069  19.489 -0.0074 -0.5386 -0.1010
 4062TIP3    H136381   2.885   5.035  19.504 -0.7625  1.3841  0.0813
 4062TIP3    H236382   2.963   5.133  19.419  1.2123 -0.1710  0.0319
 4063TIP3   OH236383   3.230   3.568  17.842 -0.3235 -0.2632 -0.0881
 4063TIP3    H136384   3.302   3.541  17.786 -0.7622 -0.6630 -0.4797
 4063TIP3    H236385   3.181   3.631  17.789 -0.0841  0.2529  0.2988
 4064TIP3   OH236386   6.456   3.751  16.910  0.1688 -0.7023  0.0670
 4064TIP3    H136387   6.420   3.808  16.842  1.1187  0.0767  0.2040
 4064TIP3    H236388   6.395   3.760  16.983  0.0648 -0.2260 -0.0774
 4065TIP3   OH236389   2.863   3.500  17.967 -0.1063  0.2311 -0.5191
 4065TIP3    H136390   2.804   3.491  18.043 -1.1476 -1.5510 -1.4554
 4065TIP3    H236391   2.808   3.541  17.900  0.1117 -0.2425 -0.9896
 4066TIP3   OH236392   2.933   0.468  19.466 -0.0494  0.0352  0.1220
 4066TIP3    H136393   2.914   0.400  19.401 -0.9464  0.4714 -0.0889
 4066TIP3    H236394   2.862   0.460  19.530 -0.1460  0.7531  0.1113
 4067TIP3   OH236395   6.044   3.879  19.795  0.4469 -0.6581 -0.5614
 4067TIP3    H136396   5.974   3.913  19.739 -0.0092 -0.6964 -0.0247
 4067TIP3    H236397   6.115   3.943  19.787 -0.3865  0.4114  0.3989
 4068TIP3   OH236398   1.893   2.168  19.529 -0.0956  0.4857  0.5012
 4068TIP3    H136399   1.805   2.203  19.531 -0.6223 -0.4424 -1.9669
 4068TIP3    H236400   1.932   2.204  19.449  0.0063 -2.7382 -1.1050
 4069TIP3   OH236401   5.569   0.881  18.063  0.2642  0.0548 -0.4374
 4069TIP3    H136402   5.509   0.809  18.041  1.5645 -0.9179 -0.9096
 4069TIP3    H236403   5.578   0.875  18.158 -0.1923  0.0493 -0.3915
 4070TIP3   OH236404   1.559   5.918  16.877  0.0676 -0.1033 -0.0062
 4070TIP3    H136405   1.485   5.872  16.837  2.6221 -2.5210 -2.4677
 4070TIP3    H236406   1.597   5.969  16.806  1.0494  0.7288  1.0677
 4071TIP3   OH236407   2.094   4.149  18.020  0.0970 -0.1209 -0.3775
 4071TIP3    H136408   2.056   4.122  17.936  1.5800  0.8484 -1.4159
 4071TIP3    H236409   2.028   4.126  18.085 -1.2279 -0.6279 -1.8416
 4072TIP3   OH236410   2.378   4.716  16.704  0.3365 -0.1234  0.2856
 4072TIP3    H136411   2.349   4.745  16.790 -1.2189 -0.6273 -0.0307
 4072TIP3    H236412   2.369   4.621  16.706  0.6023 -0.1680 -0.3217
 4073TIP3   OH236413   4.737   4.821  20.415 -0.7473 -0.3701  0.4313
 4073TIP3    H136414   4.702   4.828  20.326 -0.2531  0.6346  0.3067
 4073TIP3    H236415   4.826   4.788  20.403 -1.2927 -2.0634  0.6946
 4074TIP3   OH236416   1.468   6.534  17.389 -0.3794  0.2056 -0.4524
 4074TIP3    H136417   1.520   6.586  17.450 -0.9518 -0.6802  0.8418
 4074TIP3    H236418   1.381   6.532  17.427 -0.2606 -2.1280 -0.1245
 4075TIP3   OH236419   2.468   0.913  19.118  0.5673 -0.2059  0.8657
 4075TIP3    H136420   2.409   0.929  19.044  1.9752  0.2081 -0.1970
 4075TIP3    H236421   2.526   0.843  19.089  1.0171 -0.1694  1.6458
 4076TIP3   OH236422   0.058   4.331  19.726 -0.1412  0.6668 -0.3317
 4076TIP3    H136423   0.092   4.303  19.812  0.0155  0.0840 -0.5770
 4076TIP3    H236424   0.022   4.418  19.742 -2.3003 -0.3572  0.9001
 4077TIP3   OH236425   3.419   1.817  19.949  0.2584 -0.1779 -0.1311
 4077TIP3    H136426   3.514   1.825  19.950  0.4594 -1.7502  2.0425
 4077TIP3    H236427   3.403   1.723  19.942 -0.9969 -0.2279  2.2877
 4078TIP3   OH236428   4.976   6.725  18.726  0.4546 -0.3383 -0.5986
 4078TIP3    H136429   5.071   6.734  18.723  0.2685  2.9988 -0.2908
 4078TIP3    H236430   4.944   6.792  18.665 -1.6954 -0.0215  0.7667
 4079TIP3   OH236431   1.261   4.507  17.825  0.2108 -0.2863  0.0890
 4079TIP3    H136432   1.250   4.412  17.838  0.2407 -0.5992 -1.9447
 4079TIP3    H236433   1.191   4.546  17.877 -0.8109 -1.5106 -0.3055
 4080TIP3   OH236434   4.652   6.418  19.113 -0.4137 -0.2670 -0.2392
 4080TIP3    H136435   4.721   6.394  19.052  1.0139  1.4389  0.5982
 4080TIP3    H236436   4.691   6.409  19.200 -1.9454 -1.2948  0.3932
 4081TIP3   OH236437   5.694   1.361  20.109  0.3843  0.0195 -0.0260
 4081TIP3    H136438   5.667   1.439  20.060  1.4933  0.8465  0.6429
 4081TIP3    H236439   5.612   1.318  20.131 -0.3156  1.4787  0.3742
 4082TIP3   OH236440   6.217   6.098  19.223  0.2997 -0.5424  0.0467
 4082TIP3    H136441   6.176   6.120  19.306  0.8081 -0.8169  0.3749
 4082TIP3    H236442   6.147   6.057  19.172 -0.4934  1.1970 -0.3417
 4083TIP3   OH236443   4.715   6.363  17.908  0.2726 -0.2442 -0.3024
 4083TIP3    H136444   4.637   6.417  17.922 -1.0698 -1.7008 -1.6989
 4083TIP3    H236445   4.698   6.283  17.957  1.1311 -0.3967 -0.2383
 4084TIP3   OH236446   2.999   4.017  16.760  0.1546 -0.0981 -0.4150
 4084TIP3    H136447   2.943   4.032  16.684  0.3278 -0.8274 -0.6948
 4084TIP3    H236448   2.986   3.924  16.781 -1.0811  0.4426  1.3968
 4085TIP3   OH236449   4.263   5.793  19.176 -0.5840  0.5853  0.5957
 4085TIP3    H136450   4.353   5.798  19.146 -0.3082  0.5049  1.3911
 4085TIP3    H236451   4.256   5.709  19.221 -1.1352  0.4592  0.2826
 4086TIP3   OH236452   5.737   4.452  18.542  0.1956 -0.2372  0.3401
 4086TIP3    H136453   5.707   4.482  18.628  0.4146  0.1461  0.2882
 4086TIP3    H236454   5.734   4.531  18.487 -0.2157 -0.5421 -0.0807
 4087TIP3   OH236455   2.497   5.418  17.573  0.3918 -0.2851  0.0706
 4087TIP3    H136456   2.536   5.330  17.568 -1.2951 -1.0427 -0.2701
 4087TIP3    H236457   2.425   5.416  17.511 -0.4600  0.9360  0.9759
 4088TIP3   OH236458   0.210   0.905  17.067 -0.2785 -0.0744 -0.8120
 4088TIP3    H136459   0.273   0.916  17.138 -0.7141  0.4337 -0.4976
 4088TIP3    H236460   0.190   0.812  17.068  0.7455 -0.3170 -1.1622
 4089TIP3   OH236461   3.416   6.456  17.343 -0.3268 -0.3409  0.5909
 4089TIP3    H136462   3.503   6.432  17.312  0.4825  0.3152  2.2448
 4089TIP3    H236463   3.419   6.551  17.354 -1.8271 -0.0528 -0.9268
 4090TIP3   OH236464   5.807   5.647  19.317 -0.4370 -0.3369 -0.1339
 4090TIP3    H136465   5.797   5.657  19.223  4.4447 -0.4357 -0.9269
 4090TIP3    H236466   5.841   5.559  19.329  0.4499  0.1865  1.5357
 4091TIP3   OH236467   4.027   4.891  20.106  0.1863  0.0002  0.7441
 4091TIP3    H136468   4.009   4.852  20.192 -1.7903 -0.0211  0.3736
 4091TIP3    H236469   4.055   4.980  20.126 -0.4044  0.0473  1.4252
 4092TIP3   OH236470   1.275   3.611  19.620  0.3111 -0.1701 -0.2911
 4092TIP3    H136471   1.275   3.664  19.541  2.2747 -0.9131 -0.8365
 4092TIP3    H236472   1.250   3.524  19.590 -0.8466 -0.0528  0.2626
 4093TIP3   OH236473   3.099   2.563  17.357  0.1314  0.0745  0.0586
 4093TIP3    H136474   3.092   2.562  17.262  0.1654  0.9792  0.0426
 4093TIP3    H236475   3.162   2.632  17.376  0.2561 -0.2143  0.7327
 4094TIP3   OH236476   2.078   5.954  18.335  0.0742 -0.5815  0.0981
 4094TIP3    H136477   2.025   6.021  18.379 -0.9236 -2.3467  1.7338
 4094TIP3    H236478   2.168   5.973  18.364 -0.2669 -0.2821  1.0081
 4095TIP3   OH236479   5.846   0.154  17.686 -0.9620  0.1788  0.0932
 4095TIP3    H136480   5.830   0.233  17.634  0.6006 -0.5241 -1.5680
 4095TIP3    H236481   5.888   0.185  17.766  0.8810  0.9626 -1.1271
 4096TIP3   OH236482   5.541   1.849  18.475  0.3310  0.2444  0.2686
 4096TIP3    H136483   5.450   1.878  18.476 -0.0331 -0.8558  1.5326
 4096TIP3    H236484   5.566   1.853  18.382 -0.9798  0.5830 -0.0947
 4097TIP3   OH236485   2.182   3.745  17.938 -0.4083  0.3008  0.4253
 4097TIP3    H136486   2.230   3.828  17.930 -0.8962  0.4749 -1.1452
 4097TIP3    H236487   2.250   3.678  17.939  0.0062  0.7128  1.9965
 4098TIP3   OH236488   0.757   3.081  18.321  0.4470  0.0205  0.3666
 4098TIP3    H136489   0.690   3.064  18.388  1.1527 -1.1399  0.8272
 4098TIP3    H236490   0.771   2.996  18.280  1.4568  0.2891  0.1199
 4099TIP3   OH236491   6.504   2.916  18.096 -0.1755 -0.0052 -0.3504
 4099TIP3    H136492   6.479   2.887  18.009 -1.3299 -0.0045 -0.0320
 4099TIP3    H236493   6.543   2.839  18.137  0.9186  0.1523 -1.0494
 4100TIP3   OH236494   6.202   4.308  16.522 -0.5471  0.7715 -0.3114
 4100TIP3    H136495   6.115   4.277  16.496 -0.4964  1.8286 -1.8379
 4100TIP3    H236496   6.217   4.266  16.607 -2.3292  0.1728 -0.2375
 4101TIP3   OH236497   5.688   5.574  19.063  0.3270 -0.2794  0.2676
 4101TIP3    H136498   5.595   5.597  19.059  0.1650 -0.8428  0.6782
 4101TIP3    H236499   5.689   5.479  19.049  0.7123 -0.5198  1.8013
 4102TIP3   OH236500   5.957   3.964  18.768 -0.3816 -0.2778 -0.6934
 4102TIP3    H136501   5.871   4.002  18.755 -0.2871 -0.2575 -1.3142
 4102TIP3    H236502   5.943   3.869  18.760 -0.7209 -0.4447  1.4497
 4103TIP3   OH236503   4.209   6.623  19.532 -0.1406  0.2721  0.1664
 4103TIP3    H136504   4.205   6.530  19.556 -0.3603  0.1280 -0.4088
 4103TIP3    H236505   4.150   6.631  19.457  1.7392  0.3679 -1.3838
 4104TIP3   OH236506   6.580   1.277  19.683  0.0602  0.7485  0.3061
 4104TIP3    H136507   6.534   1.352  19.644 -0.8897  0.1439  0.2330
 4104TIP3    H236508   6.519   1.244  19.750 -0.8440 -1.7131 -1.5915
 4105TIP3   OH236509   1.322   0.824  17.757 -0.5745 -0.6929  0.5335
 4105TIP3    H136510   1.392   0.889  17.749 -0.5196 -0.9150 -1.2225
 4105TIP3    H236511   1.368   0.740  17.762 -0.6367 -0.6526  3.0354
 4106TIP3   OH236512   1.988   3.064  19.849  0.3324  0.7883  0.2091
 4106TIP3    H136513   2.012   2.987  19.797  0.0102  0.8223  0.0025
 4106TIP3    H236514   2.014   3.139  19.796 -0.5338  0.8285 -0.1778
 4107TIP3   OH236515   1.975   0.973  19.744 -0.4207  0.4107 -0.9770
 4107TIP3    H136516   2.053   0.962  19.689 -1.2625 -0.1668 -2.1013
 4107TIP3    H236517   1.999   1.041  19.807  1.9470 -1.6087  0.4941
 4108TIP3   OH236518   2.580   0.008  19.179 -0.5292  0.5280  0.8129
 4108TIP3    H136519   2.548   0.012  19.270 -1.3786  1.0028  0.5099
 4108TIP3    H236520   2.518   0.063  19.130 -0.6123 -0.4491 -0.2038
 4109TIP3   OH236521   0.112   2.214  18.817  0.4531 -0.0530 -0.1086
 4109TIP3    H136522   0.039   2.165  18.855  0.9064 -0.9972 -0.4098
 4109TIP3    H236523   0.122   2.290  18.874  0.0833 -0.6023  0.7090
 4110TIP3   OH236524   1.713   5.960  18.671  0.4404 -0.1447 -0.5153
 4110TIP3    H136525   1.694   6.021  18.741 -0.8260 -0.6429 -0.3990
 4110TIP3    H236526   1.683   6.004  18.591 -0.4585 -0.5959 -0.4342
 4111TIP3   OH236527   2.561   5.424  17.241  0.6274  0.7822 -0.0348
 4111TIP3    H136528   2.485   5.478  17.222  0.0893 -0.1760 -0.7353
 4111TIP3    H236529   2.585   5.386  17.156 -0.0949 -1.4270  0.6872
 4112TIP3   OH236530   0.340   2.443  17.507 -0.1728  0.1507  0.1142
 4112TIP3    H136531   0.388   2.400  17.578  1.2483  1.5418  0.0542
 4112TIP3    H236532   0.311   2.372  17.450  1.3109 -0.7904  0.4986
 4113TIP3   OH236533   3.923   6.328  18.838  0.5807  0.1302  0.3045
 4113TIP3    H136534   3.844   6.349  18.887 -1.3119 -0.7032 -2.1984
 4113TIP3    H236535   3.927   6.394  18.769  2.0006  0.0353  0.2558
 4114TIP3   OH236536   5.732   1.275  18.011 -0.0436 -0.5488 -0.0300
 4114TIP3    H136537   5.771   1.358  18.038 -0.3255 -1.1050  2.2742
 4114TIP3    H236538   5.638   1.290  18.017 -0.0939 -1.0618  0.5665
 4115TIP3   OH236539   6.217   3.238  19.422 -0.2560 -0.2696  0.8746
 4115TIP3    H136540   6.138   3.286  19.401  0.3636 -0.3083 -1.8853
 4115TIP3    H236541   6.186   3.154  19.456 -1.4402 -0.4776 -0.6355
 4116TIP3   OH236542   4.654   4.396  17.013  0.4959  0.0658  0.4404
 4116TIP3    H136543   4.571   4.435  16.986  0.7428 -0.4876 -1.2590
 4116TIP3    H236544   4.634   4.303  17.025  0.3241  0.3237  2.6459
 4117TIP3   OH236545   4.956   4.295  18.312 -0.2085 -0.0577  0.1269
 4117TIP3    H136546   4.954   4.276  18.218  0.0018 -1.2058  0.3507
 4117TIP3    H236547   5.046   4.326  18.327  0.5056 -2.0773  0.3432
 4118TIP3   OH236548   6.397   2.622  20.039 -0.5726  0.1015 -0.5051
 4118TIP3    H136549   6.420   2.540  19.995 -0.3069  0.3501 -0.8361
 4118TIP3    H236550   6.471   2.680  20.020 -0.4582  0.2132  0.2752
 4119TIP3   OH236551   5.680   2.262  18.282 -0.0705  0.3266 -0.1587
 4119TIP3    H136552   5.705   2.171  18.268  0.6701  0.5305 -0.2016
 4119TIP3    H236553   5.632   2.261  18.365  0.3446 -0.0308  0.0807
 4120TIP3   OH236554   2.331   2.172  18.213 -0.2291  0.2046 -0.0741
 4120TIP3    H136555   2.393   2.175  18.286  0.6051  2.4330 -0.7759
 4120TIP3    H236556   2.256   2.222  18.244  0.1146  1.1262 -0.7093
 4121TIP3   OH236557   2.184   6.068  18.642 -0.3054  0.5537 -0.0630
 4121TIP3    H136558   2.247   6.061  18.571  1.8866  0.9818  1.7297
 4121TIP3    H236559   2.130   6.144  18.619 -0.5732 -0.1594 -1.9086
 4122TIP3   OH236560   3.054   3.221  18.453  0.2812 -0.4930  0.4157
 4122TIP3    H136561   3.146   3.234  18.432  0.1980 -0.8313 -0.1784
 4122TIP3    H236562   3.047   3.128  18.476  0.1930 -0.3388  1.0413
 4123TIP3   OH236563   2.636   1.751  19.328  0.6524 -0.3834  0.2497
 4123TIP3    H136564   2.610   1.665  19.296  1.0572 -0.5074  0.2518
 4123TIP3    H236565   2.725   1.739  19.361  1.1624  0.2927 -0.8141
 4124TIP3   OH236566   0.857   3.331  16.080 -0.1989  0.2002  0.5498
 4124TIP3    H136567   0.785   3.349  16.020  1.2035 -0.1394 -1.3389
 4124TIP3    H236568   0.936   3.339  16.026  1.0695 -1.3692  2.0536
 4125TIP3   OH236569   2.512   1.539  18.299 -0.0688 -0.8019 -0.1459
 4125TIP3    H136570   2.423   1.505  18.288 -0.0252 -1.1532  0.5394
 4125TIP3    H236571   2.504   1.632  18.276 -0.6492 -0.7929  0.0501
 4126TIP3   OH236572   4.167   3.487  18.967  0.1211 -0.0475 -0.2514
 4126TIP3    H136573   4.206   3.532  19.041 -1.4883 -1.1729  1.3629
 4126TIP3    H236574   4.241   3.462  18.912  1.5943 -1.0227  2.0346
 4127TIP3   OH236575   1.121   5.143  19.260  0.1436 -0.2496 -0.3935
 4127TIP3    H136576   1.074   5.225  19.271 -0.3754 -0.5674 -0.2209
 4127TIP3    H236577   1.193   5.147  19.323  0.3333  0.2245 -0.6399
 4128TIP3   OH236578   3.303   0.011  19.012  0.2833  0.2485  0.5865
 4128TIP3    H136579   3.287   0.095  19.056 -0.6073 -0.0911  0.9531
 4128TIP3    H236580   3.348   0.034  18.931 -1.0281  1.2040  0.0968
 4129TIP3   OH236581   1.581   4.230  18.533 -0.2139  0.1037 -0.7501
 4129TIP3    H136582   1.585   4.320  18.499 -0.2115  0.7529  0.8528
 4129TIP3    H236583   1.510   4.232  18.597 -0.2664 -1.0725 -0.7534
 4130TIP3   OH236584   5.470   5.955  18.438 -0.1509 -0.0616 -0.0982
 4130TIP3    H136585   5.549   5.905  18.414  0.7857 -0.4768  3.3405
 4130TIP3    H236586   5.399   5.891  18.433  0.2586 -0.5116 -0.2524
 4131TIP3   OH236587   4.868   1.961  19.710  0.1328  0.1747  0.2154
 4131TIP3    H136588   4.804   2.002  19.769 -1.0606  1.4424 -1.8405
 4131TIP3    H236589   4.820   1.890  19.669  0.6110  0.0050 -0.0519
 4132TIP3   OH236590   2.643   4.967  18.542 -0.3515  0.0580  0.0038
 4132TIP3    H136591   2.585   4.990  18.614 -0.5900 -0.4599 -0.0156
 4132TIP3    H236592   2.589   4.912  18.484 -0.1456  0.4093 -0.5311
 4133TIP3   OH236593   6.202   2.991  18.363  0.5505 -0.1980 -0.1799
 4133TIP3    H136594   6.213   3.086  18.358  1.0126 -0.2244  0.2577
 4133TIP3    H236595   6.109   2.976  18.345  0.0663  0.4826  1.5733
 4134TIP3   OH236596   0.423   3.110  19.963  0.1994 -0.1650  0.6437
 4134TIP3    H136597   0.413   3.017  19.942 -1.6629 -0.3228  2.0153
 4134TIP3    H236598   0.480   3.144  19.894  0.0189 -2.0820 -0.5212
 4135TIP3   OH236599   4.839   3.627  19.298  0.2788  0.2579  0.2316
 4135TIP3    H136600   4.849   3.663  19.386  1.8072 -1.7005  0.9183
 4135TIP3    H236601   4.765   3.566  19.306 -0.9625  1.6149 -0.4177
 4136TIP3   OH236602   4.460   3.348  18.871 -0.2824 -0.3248 -0.1927
 4136TIP3    H136603   4.475   3.309  18.956  0.4631 -0.5098 -0.4064
 4136TIP3    H236604   4.527   3.310  18.814  0.5741  1.3545 -0.3819
 4137TIP3   OH236605   3.122   0.879  18.458 -0.2250 -0.4722  0.4230
 4137TIP3    H136606   3.210   0.916  18.468 -0.1230  0.0201 -1.8724
 4137TIP3    H236607   3.132   0.810  18.392 -1.8976  1.1245 -1.6330
 4138TIP3   OH236608   5.028   4.005  19.887 -0.1061  0.2562 -0.4025
 4138TIP3    H136609   5.010   3.913  19.869  1.6893 -0.2639  0.2774
 4138TIP3    H236610   4.982   4.052  19.817  0.1134 -1.2271 -1.6083
 4139TIP3   OH236611   3.163   4.832  17.525  0.1477  0.1282 -0.3265
 4139TIP3    H136612   3.104   4.900  17.558 -0.9991 -0.3622 -1.3096
 4139TIP3    H236613   3.156   4.761  17.588 -0.5499 -0.0508 -0.6092
 4140TIP3   OH236614   1.999   2.564  17.126  0.2188 -0.6302  0.1065
 4140TIP3    H136615   1.913   2.564  17.168  0.1128  0.1684 -0.1051
 4140TIP3    H236616   1.987   2.513  17.046 -0.4285  0.6700 -0.6478
 4141TIP3   OH236617   3.415   4.343  19.290  0.6081 -0.2708 -0.2066
 4141TIP3    H136618   3.429   4.249  19.301  0.4444 -0.1322  1.4309
 4141TIP3    H236619   3.384   4.352  19.200 -1.0521 -2.0083  0.1056
 4142TIP3   OH236620   5.858   6.615  18.011 -0.1134 -0.1731 -0.2367
 4142TIP3    H136621   5.876   6.522  18.026  2.3007  0.4113  0.8839
 4142TIP3    H236622   5.884   6.630  17.921  0.1063 -0.4499 -0.2233
 4143TIP3   OH236623   4.849   2.648  19.056  0.5884  0.1025  0.6974
 4143TIP3    H136624   4.855   2.577  19.120  0.3569 -0.6072 -0.0546
 4143TIP3    H236625   4.892   2.614  18.978  0.5053  0.8081  0.3373
 4144TIP3   OH236626   4.865   3.763  16.630  0.2936  0.3563  0.9331
 4144TIP3    H136627   4.808   3.705  16.580  2.1365  0.6864 -1.8183
 4144TIP3    H236628   4.945   3.713  16.643  1.5105  1.7865 -0.5143
 4145TIP3   OH236629   3.351   5.962  18.871 -0.0169  0.4417 -0.3329
 4145TIP3    H136630   3.367   6.056  18.870 -0.2471  0.5289  1.3129
 4145TIP3    H236631   3.431   5.924  18.833 -0.0233  1.2884 -1.2428
 4146TIP3   OH236632   1.555   4.214  17.340 -0.0289  0.4392 -0.2152
 4146TIP3    H136633   1.577   4.136  17.288 -0.8037  0.8372 -1.1930
 4146TIP3    H236634   1.625   4.276  17.321  0.3500  0.1454  0.2067
 4147TIP3   OH236635   4.628   1.552  17.286 -0.0468  0.2847 -0.2968
 4147TIP3    H136636   4.567   1.622  17.311 -0.5817  0.5698 -2.2710
 4147TIP3    H236637   4.574   1.473  17.285 -0.5596  0.6001 -2.4411
 4148TIP3   OH236638   6.678   2.701  18.401  0.5735  0.7564  0.0545
 4148TIP3    H136639   6.584   2.720  18.409  0.6779  0.5787  2.6039
 4148TIP3    H236640   6.693   2.692  18.307 -1.7765  1.6742 -0.4829
 4149TIP3   OH236641   1.419   3.463  18.449  0.4603  0.4952  0.0677
 4149TIP3    H136642   1.413   3.555  18.475  0.6363  0.2670  0.9588
 4149TIP3    H236643   1.329   3.433  18.443  0.4129  0.5937  0.2820
 4150TIP3   OH236644   1.986   5.747  17.006 -0.0559  0.1869 -0.2496
 4150TIP3    H136645   2.017   5.806  17.075 -1.5393  0.7074  0.0184
 4150TIP3    H236646   1.910   5.792  16.969 -1.6577 -1.8387  0.4009
 4151TIP3   OH236647   3.867   0.147  19.771 -0.4949 -0.4100  0.3968
 4151TIP3    H136648   3.840   0.071  19.823  1.5625 -1.0755  0.6222
 4151TIP3    H236649   3.814   0.143  19.692 -0.3360 -2.2115  0.3300
 4152TIP3   OH236650   6.310   2.635  18.723 -0.0203 -0.4371 -0.1122
 4152TIP3    H136651   6.215   2.625  18.733  0.0488 -0.8538  0.1387
 4152TIP3    H236652   6.325   2.729  18.728 -0.1160 -0.4834  2.6400
 4153TIP3   OH236653   6.337   2.458  17.838 -0.0124  0.4503  1.1860
 4153TIP3    H136654   6.342   2.407  17.757  0.4849  1.2538  0.6937
 4153TIP3    H236655   6.263   2.421  17.886 -0.4507  0.1032  0.2639
 4154TIP3   OH236656   2.889   4.381  19.320 -0.3314 -0.0436 -0.6452
 4154TIP3    H136657   2.863   4.434  19.245 -0.8667  0.1313 -0.3391
 4154TIP3    H236658   2.871   4.291  19.295 -1.4208  0.0832 -0.3754
 4155TIP3   OH236659   3.549   3.976  18.140  0.4986 -0.0927  0.4312
 4155TIP3    H136660   3.614   3.912  18.111  0.5164  0.0963  0.0428
 4155TIP3    H236661   3.544   4.038  18.068  0.3161  0.2194  0.7118
 4156TIP3   OH236662   4.066   2.932  19.739  0.6647  0.1068 -0.2114
 4156TIP3    H136663   4.141   2.987  19.717 -0.3527  1.4172 -0.5253
 4156TIP3    H236664   4.104   2.846  19.756  2.5371  1.2482  2.0230
 4157TIP3   OH236665   0.486   5.038  16.400  0.1745  0.1515  0.5502
 4157TIP3    H136666   0.474   5.075  16.313 -1.3967 -0.4100  0.5026
 4157TIP3    H236667   0.516   5.111  16.454 -0.1968  0.8332 -0.1624
 4158TIP3   OH236668   0.893   1.753  18.196 -0.0890  0.3318  0.1046
 4158TIP3    H136669   0.896   1.721  18.287 -0.2093  1.3229  0.4638
 4158TIP3    H236670   0.890   1.673  18.143  1.1498 -0.2865  0.9181
 4159TIP3   OH236671   3.283   0.801  18.240 -0.1350 -0.0511 -0.9183
 4159TIP3    H136672   3.193   0.793  18.208 -0.1689 -0.2108 -0.7826
 4159TIP3    H236673   3.305   0.894  18.225 -1.1340  0.5801  1.2023
 4160TIP3   OH236674   2.337   0.013  18.298 -0.5696 -0.2969  0.0427
 4160TIP3    H136675   2.377   0.025  18.384  1.3336  0.7132 -0.9140
 4160TIP3    H236676   2.281   0.090  18.286  1.3021  1.0133 -0.6846
 4161TIP3   OH236677   3.465   3.596  18.996  0.4601 -0.2269 -0.1879
 4161TIP3    H136678   3.449   3.502  18.985 -0.3706 -0.1091 -0.0977
 4161TIP3    H236679   3.550   3.601  19.040  1.4566 -0.8643 -1.9379
 4162TIP3   OH236680   2.590   2.101  17.440 -0.3036 -0.4069  0.3717
 4162TIP3    H136681   2.577   2.064  17.352 -0.9231  0.5208  0.0647
 4162TIP3    H236682   2.521   2.166  17.449  1.2407  1.2711  0.5759
 4163TIP3   OH236683   3.402   3.396  19.355  0.1369 -0.2014  0.4144
 4163TIP3    H136684   3.354   3.350  19.425  0.7940 -0.7653  0.5148
 4163TIP3    H236685   3.352   3.476  19.340 -0.4345 -0.4322  1.0071
 4164TIP3   OH236686   0.259   6.095  18.276 -0.0612 -0.3591  0.0148
 4164TIP3    H136687   0.233   6.013  18.233 -0.4104 -0.2905  0.0896
 4164TIP3    H236688   0.328   6.131  18.221  0.8809 -1.2577  0.5684
 4165TIP3   OH236689   3.944   5.510  20.132  0.2485 -0.4991 -0.2515
 4165TIP3    H136690   3.983   5.430  20.167  0.4122 -1.0448 -1.6243
 4165TIP3    H236691   4.015   5.554  20.086 -0.0003  0.1219 -0.0617
 4166TIP3   OH236692   4.567   0.151  18.109 -0.2644  0.4039 -0.1124
 4166TIP3    H136693   4.492   0.194  18.069  0.6978  2.0143 -0.3004
 4166TIP3    H236694   4.626   0.133  18.036 -0.4928 -0.9622  0.0159
 4167TIP3   OH236695   6.039   1.004  17.636 -0.7062 -0.2711  0.1472
 4167TIP3    H136696   6.088   1.076  17.596 -0.2653 -1.1440 -0.9436
 4167TIP3    H236697   5.952   1.039  17.651 -0.4124  0.5740 -0.1047
 4168TIP3   OH236698   6.390   1.535  18.724 -0.0877 -0.0267  0.1605
 4168TIP3    H136699   6.372   1.511  18.633  0.6971 -0.2411  0.0547
 4168TIP3    H236700   6.485   1.547  18.728 -0.2521  1.2999  0.6436
 4169TIP3   OH236701   6.434   5.516  19.986  0.0209 -0.0899 -0.4785
 4169TIP3    H136702   6.415   5.468  19.905  3.4822 -0.6149 -1.1360
 4169TIP3    H236703   6.472   5.450  20.044 -0.2533  0.7837  0.7285
 4170TIP3   OH236704   0.161   0.206  17.212  0.2963  0.4113 -0.3342
 4170TIP3    H136705   0.109   0.286  17.206  0.4022  0.4206 -1.2290
 4170TIP3    H236706   0.246   0.230  17.174  0.5948  0.0941  0.1194
 4171TIP3   OH236707   1.032   4.293  18.421 -0.2762 -0.1432 -0.1881
 4171TIP3    H136708   1.025   4.213  18.369 -1.5112 -1.3753  1.7366
 4171TIP3    H236709   0.942   4.313  18.446  0.3726 -0.8414  3.1535
 4172TIP3   OH236710   5.789   3.166  17.832 -0.1953  0.6454  0.5645
 4172TIP3    H136711   5.801   3.250  17.877  0.8109  0.3247  0.9333
 4172TIP3    H236712   5.758   3.189  17.745  1.0871  1.4790  0.2957
 4173TIP3   OH236713   1.173   0.769  18.750 -0.2042  0.0518  0.4038
 4173TIP3    H136714   1.260   0.804  18.730  0.1640 -0.3132  1.3444
 4173TIP3    H236715   1.117   0.847  18.756 -0.0419  0.2654 -0.6089
 4174TIP3   OH236716   3.488   0.781  17.577  0.0631 -0.0216 -0.3029
 4174TIP3    H136717   3.467   0.740  17.661  0.4611 -1.5620 -0.9129
 4174TIP3    H236718   3.553   0.722  17.538  1.9202  2.0645 -0.5449
 4175TIP3   OH236719   5.649   3.831  18.225 -0.4751  0.1652  0.5714
 4175TIP3    H136720   5.577   3.770  18.240 -0.3607  0.0598  0.7010
 4175TIP3    H236721   5.616   3.892  18.160  0.3988 -1.7342 -1.7795
 4176TIP3   OH236722   5.402   5.452  19.779 -0.1142  0.9564  0.0401
 4176TIP3    H136723   5.464   5.517  19.748  1.4533 -1.1409 -1.6074
 4176TIP3    H236724   5.435   5.423  19.863  1.3785 -0.2859 -0.9166
 4177TIP3   OH236725   1.724   4.531  20.216 -0.0361 -0.1157 -0.6935
 4177TIP3    H136726   1.806   4.578  20.197  0.3642 -0.9314 -1.0421
 4177TIP3    H236727   1.663   4.561  20.149 -0.4385  1.4460  0.3068
 4178TIP3   OH236728   5.323   5.386  18.680 -0.5532  0.3080  0.8640
 4178TIP3    H136729   5.376   5.461  18.655 -0.2548  0.1996  1.1618
 4178TIP3    H236730   5.233   5.418  18.677 -0.3646  1.0827  2.2651
 4179TIP3   OH236731   1.308   5.811  17.160 -0.0931 -0.0084 -0.4157
 4179TIP3    H136732   1.270   5.829  17.075 -2.9609  0.7928  0.9117
 4179TIP3    H236733   1.264   5.732  17.190  0.3928  0.0809  0.5956
 4180TIP3   OH236734   2.034   5.428  18.907 -0.8339  0.0717 -0.0740
 4180TIP3    H136735   2.037   5.516  18.869 -0.1014 -0.2210 -0.7223
 4180TIP3    H236736   2.074   5.438  18.994  0.4984  0.1447 -0.6704
 4181TIP3   OH236737   2.715   6.149  19.869  0.3984 -0.0342  0.4999
 4181TIP3    H136738   2.782   6.129  19.804  0.8925  2.9112 -0.0658
 4181TIP3    H236739   2.654   6.076  19.865  1.5570 -0.9586 -1.7556
 4182TIP3   OH236740   2.519   5.937  19.328 -0.6767 -0.2949 -0.0956
 4182TIP3    H136741   2.554   5.920  19.415 -3.2122 -1.4785  0.7827
 4182TIP3    H236742   2.563   5.874  19.271  0.4311 -0.0265  0.4296
 4183TIP3   OH236743   2.454   4.946  18.116 -0.6431 -0.3387 -0.4639
 4183TIP3    H136744   2.396   4.877  18.149 -2.6145  0.3039 -2.3687
 4183TIP3    H236745   2.474   5.000  18.192 -0.0023 -2.3150  0.8334
 4184TIP3   OH236746   6.485   6.093  19.202 -0.9056  0.9181  0.3470
 4184TIP3    H136747   6.495   6.024  19.269 -0.4347 -0.0241 -0.6598
 4184TIP3    H236748   6.391   6.109  19.198 -1.1096 -0.2389  0.0669
 4185TIP3   OH236749   2.434   3.639  16.142 -0.1213  0.0404 -0.2487
 4185TIP3    H136750   2.501   3.576  16.170  0.2632  0.8319  0.6640
 4185TIP3    H236751   2.357   3.615  16.192  0.0009  0.2416  0.0380
 4186TIP3   OH236752   5.740   5.637  18.762 -0.5271 -0.1054 -0.4517
 4186TIP3    H136753   5.787   5.558  18.787  0.4880  0.5367 -0.2498
 4186TIP3    H236754   5.798   5.681  18.700  0.6708  2.2829  2.1592
 4187TIP3   OH236755   1.537   0.206  18.367  0.7560  0.0600 -0.6692
 4187TIP3    H136756   1.470   0.257  18.412  0.1865 -1.7656  0.6748
 4187TIP3    H236757   1.619   0.252  18.386  0.3185  0.2422  0.9140
 4188TIP3   OH236758   4.242   2.857  20.040 -0.0951 -0.4618 -1.1443
 4188TIP3    H136759   4.249   2.776  19.990  0.4185 -1.7138  0.8570
 4188TIP3    H236760   4.333   2.882  20.059 -0.2807 -0.9732  0.5882
 4189TIP3   OH236761   2.791   2.208  18.112  0.2350 -0.2188 -0.8694
 4189TIP3    H136762   2.775   2.300  18.134 -2.1151 -0.6438 -0.4890
 4189TIP3    H236763   2.750   2.197  18.026 -0.6843 -1.1721 -0.3381
 4190TIP3   OH236764   1.839   3.991  17.874  0.0733  0.6898 -0.0818
 4190TIP3    H136765   1.809   4.012  17.786 -0.4428 -0.4697 -0.1923
 4190TIP3    H236766   1.761   3.963  17.921  0.7947 -1.5994 -0.1446
 4191TIP3   OH236767   1.986   1.416  17.763 -0.6699  0.6777 -0.2541
 4191TIP3    H136768   1.970   1.427  17.669 -1.9327 -0.2394 -0.1668
 4191TIP3    H236769   1.901   1.431  17.804 -0.9533 -2.1721  0.4343
 4192TIP3   OH236770   5.886   5.194  18.175  0.1368 -0.1198 -0.2179
 4192TIP3    H136771   5.895   5.149  18.259  1.2120 -1.1749 -0.8701
 4192TIP3    H236772   5.974   5.222  18.152 -0.4292  1.9354 -0.0799
 4193TIP3   OH236773   4.281   0.440  19.153  0.5394  0.4283 -0.2177
 4193TIP3    H136774   4.328   0.487  19.222 -0.4167  1.1475 -0.0267
 4193TIP3    H236775   4.296   0.493  19.075 -1.5939  1.8478  0.2487
 4194TIP3   OH236776   5.102   4.051  17.495  0.1180 -0.0443  0.0357
 4194TIP3    H136777   5.021   4.093  17.522 -0.9506 -0.7898 -1.7965
 4194TIP3    H236778   5.131   4.002  17.572 -1.4155 -0.0912  0.6120
 4195TIP3   OH236779   0.411   0.584  19.279  0.2751 -0.0710  0.0711
 4195TIP3    H136780   0.438   0.640  19.206 -2.2920 -0.2386 -1.1190
 4195TIP3    H236781   0.325   0.618  19.304  0.1268 -1.4358  1.5279
 4196TIP3   OH236782   4.124   0.175  17.895 -0.5668 -0.3893  0.3358
 4196TIP3    H136783   4.141   0.269  17.895  0.5578 -0.5806  0.7172
 4196TIP3    H236784   4.032   0.167  17.867 -0.1742  0.7199 -1.4163
 4197TIP3   OH236785   3.384   5.312  20.342 -0.0585  0.0685  0.1393
 4197TIP3    H136786   3.369   5.383  20.279  1.2673  1.0616  0.8668
 4197TIP3    H236787   3.301   5.302  20.387 -1.2078 -1.0219 -2.0669
 4198TIP3   OH236788   5.595   4.909  17.237  0.1682  0.3810  0.3603
 4198TIP3    H136789   5.558   4.957  17.312  0.9427  0.3994  0.7389
 4198TIP3    H236790   5.689   4.921  17.246  0.5747 -2.8960  1.6337
 4199TIP3   OH236791   1.346   5.923  18.765 -0.4037 -0.2770 -0.0784
 4199TIP3    H136792   1.429   5.929  18.717  0.2416  0.8892  1.1341
 4199TIP3    H236793   1.367   5.872  18.843 -0.7725  0.2212  0.3522
 4200TIP3   OH236794   4.225   4.802  19.018 -0.1015  0.3020 -0.0630
 4200TIP3    H136795   4.180   4.734  19.068  1.5508  0.1075  1.2508
 4200TIP3    H236796   4.297   4.756  18.975 -1.0295  0.6089 -2.0881
 4201TIP3   OH236797   1.762   0.881  19.271 -0.2946 -0.3760  0.0839
 4201TIP3    H136798   1.762   0.878  19.367 -0.3516  0.3024  0.1088
 4201TIP3    H236799   1.832   0.821  19.245  1.6495  1.5433  0.6484
 4202TIP3   OH236800   5.896   5.554  17.942 -0.5907 -0.1987  0.1282
 4202TIP3    H136801   5.839   5.525  17.870 -0.5462 -1.0920  0.4448
 4202TIP3    H236802   5.942   5.475  17.970 -1.2206 -0.0416  1.6959
 4203TIP3   OH236803   1.757   3.938  16.982 -0.1555  0.0789  0.0230
 4203TIP3    H136804   1.752   3.846  17.008 -2.2944  0.3023  0.5871
 4203TIP3    H236805   1.846   3.948  16.947  0.4295 -1.9655  0.7606
 4204TIP3   OH236806   1.404   0.252  18.072  0.0938 -0.1053  0.3956
 4204TIP3    H136807   1.490   0.278  18.104  0.1084  0.1248  0.1691
 4204TIP3    H236808   1.342   0.294  18.131  0.1481 -0.8608  1.0046
 4205TIP3   OH236809   2.595   0.286  19.100 -0.0970  0.7254  0.1702
 4205TIP3    H136810   2.523   0.300  19.161  0.2575  0.0199  0.7687
 4205TIP3    H236811   2.561   0.313  19.015 -0.5223  1.9689  0.7064
 4206TIP3   OH236812   1.554   4.051  17.763 -0.3816 -0.5210 -0.1604
 4206TIP3    H136813   1.511   4.060  17.678  0.8026  0.0192 -0.7347
 4206TIP3    H236814   1.563   3.956  17.776  0.2626 -0.6061 -1.1017
 4207TIP3   OH236815   5.215   1.538  19.429 -0.2241  0.3852 -0.0885
 4207TIP3    H136816   5.210   1.620  19.380 -1.0055  0.2853 -0.1887
 4207TIP3    H236817   5.145   1.545  19.494 -0.9059 -0.5723 -0.6859
 4208TIP3   OH236818   0.384   1.185  18.850 -0.3889  0.6544  0.0938
 4208TIP3    H136819   0.402   1.267  18.898  2.1087 -0.0055  0.3984
 4208TIP3    H236820   0.459   1.129  18.869 -0.9747 -0.9118 -1.9114
 4209TIP3   OH236821   6.122   6.144  17.723 -0.0368  0.3761  0.2165
 4209TIP3    H136822   6.031   6.120  17.705 -0.1809  0.8664  0.2731
 4209TIP3    H236823   6.161   6.065  17.761 -1.0934  0.8686  2.4768
 4210TIP3   OH236824   3.121   6.740  17.242  0.1713  0.9922  0.3771
 4210TIP3    H136825   3.141   6.660  17.194  2.5747  2.2587 -0.9136
 4210TIP3    H236826   3.143   6.718  17.333 -1.7625 -0.5674  0.5429
 4211TIP3   OH236827   2.235   5.957  19.657 -0.0393 -0.3507  0.2571
 4211TIP3    H136828   2.152   5.965  19.703 -0.2326 -0.8213 -0.0148
 4211TIP3    H236829   2.266   5.869  19.678  0.4887 -0.1082  0.5209
 4212TIP3   OH236830   2.682   0.912  19.515  0.0084  0.2016  0.3948
 4212TIP3    H136831   2.740   0.982  19.485 -0.5423  1.3762  1.9345
 4212TIP3    H236832   2.740   0.846  19.553  0.4850  0.2083 -0.3264
 4213TIP3   OH236833   0.688   2.232  18.036  0.1071  0.0800  0.3863
 4213TIP3    H136834   0.718   2.144  18.058 -0.1412 -0.5319 -1.5221
 4213TIP3    H236835   0.609   2.245  18.088  1.3862  0.1236  2.4197
 4214TIP3   OH236836   2.263   6.318  19.745  0.0301 -0.5691 -0.6236
 4214TIP3    H136837   2.355   6.323  19.770 -0.0363 -0.3357 -0.4178
 4214TIP3    H236838   2.262   6.341  19.652 -0.1297  2.4108  0.0130
 4215TIP3   OH236839   3.805   2.963  19.245  0.2951 -0.0690  0.6115
 4215TIP3    H136840   3.730   2.917  19.208 -1.7076  1.7434  2.1219
 4215TIP3    H236841   3.881   2.919  19.208 -1.4777 -2.3905 -0.5592
 4216TIP3   OH236842   5.801   3.400  18.558 -0.3046 -0.0668 -0.3282
 4216TIP3    H136843   5.838   3.320  18.519  0.0939 -0.0204 -0.0451
 4216TIP3    H236844   5.875   3.459  18.567 -0.7626  0.7175 -1.4499
 4217TIP3   OH236845   0.793   2.016  18.597 -0.5030  0.5200 -0.8677
 4217TIP3    H136846   0.786   2.057  18.511 -0.7289  0.4303 -0.8938
 4217TIP3    H236847   0.727   1.947  18.596  0.6934 -0.6578 -1.2727
 4218TIP3   OH236848   4.601   4.425  19.313  0.4817  0.3361  0.6109
 4218TIP3    H136849   4.694   4.440  19.326  0.3968  2.1311 -0.4779
 4218TIP3    H236850   4.566   4.511  19.287 -0.8829 -0.9141 -2.1354
 4219TIP3   OH236851   1.722   6.669  18.609  0.1999 -0.1469 -0.4341
 4219TIP3    H136852   1.760   6.736  18.551  0.7368 -0.1787 -0.1249
 4219TIP3    H236853   1.723   6.709  18.696  0.9295 -0.7103 -0.1701
 4220TIP3   OH236854   5.504   5.280  19.428  0.2068 -0.5097 -0.2266
 4220TIP3    H136855   5.423   5.239  19.458  0.1605 -0.0870  0.2446
 4220TIP3    H236856   5.567   5.208  19.422  0.4807 -0.4979  1.8139
 4221TIP3   OH236857   2.726   4.977  19.888 -0.5497 -0.0899 -0.2405
 4221TIP3    H136858   2.704   5.048  19.949 -0.4160 -0.4735  0.2556
 4221TIP3    H236859   2.661   4.910  19.904 -0.6555 -0.0971 -0.6907
 4222TIP3   OH236860   3.103   0.318  17.563 -0.2194  0.0861  0.5002
 4222TIP3    H136861   3.111   0.241  17.506  0.3337  0.9137 -0.5931
 4222TIP3    H236862   3.036   0.294  17.626 -2.2134 -0.2529 -1.6028
 4223TIP3   OH236863   3.194   1.455  17.735  0.0293 -0.7956  0.0805
 4223TIP3    H136864   3.256   1.395  17.693 -1.0050  0.0468 -2.8889
 4223TIP3    H236865   3.196   1.534  17.681 -3.1580 -0.5210  0.1422
 4224TIP3   OH236866   4.065   2.680  18.424 -0.6021  0.6268  0.3575
 4224TIP3    H136867   4.144   2.634  18.452  0.1115  1.3951 -0.3198
 4224TIP3    H236868   3.996   2.646  18.481 -0.1423 -1.3565 -0.1939
 4225TIP3   OH236869   4.049   6.484  17.648  0.1900 -0.0641 -0.2938
 4225TIP3    H136870   3.973   6.426  17.648  0.9296 -1.0652 -1.2749
 4225TIP3    H236871   4.065   6.503  17.741 -2.0487  1.2767 -0.1177
 4226TIP3   OH236872   0.042   5.381  20.051  0.7769 -0.4845  0.2286
 4226TIP3    H136873   0.049   5.451  20.116 -1.5293  0.6340 -0.6051
 4226TIP3    H236874   0.053   5.426  19.967 -0.9495 -1.0263 -0.3291
 4227TIP3   OH236875   6.353   3.507  17.443  0.5167  0.4539 -0.3118
 4227TIP3    H136876   6.294   3.528  17.515 -0.5103 -0.4634 -0.8581
 4227TIP3    H236877   6.412   3.583  17.438 -1.1876  1.8481 -0.3380
 4228TIP3   OH236878   5.448   1.286  18.013 -0.0554  0.4654 -0.0426
 4228TIP3    H136879   5.362   1.298  17.971 -0.2544  1.2885  0.5534
 4228TIP3    H236880   5.468   1.194  18.002 -1.2521  0.1556  0.2099
 4229TIP3   OH236881   4.450   3.701  19.343  0.4042 -0.0536  0.6589
 4229TIP3    H136882   4.439   3.657  19.428 -0.3271 -2.3070 -0.5214
 4229TIP3    H236883   4.525   3.760  19.356  0.1440 -0.1471  2.9204
 4230TIP3   OH236884   2.430   3.142  20.205  0.1920 -0.3446  0.4121
 4230TIP3    H136885   2.493   3.214  20.211 -0.7277  0.4371  0.8010
 4230TIP3    H236886   2.467   3.074  20.262  0.1727  0.5040  1.4758
 4231TIP3   OH236887   5.417   5.093  17.941  0.1680  0.4871 -0.1276
 4231TIP3    H136888   5.465   5.068  17.862  0.7784 -2.0827  0.9518
 4231TIP3    H236889   5.478   5.074  18.013 -1.6520 -0.8515  1.1573
 4232TIP3   OH236890   5.857   0.577  18.882 -0.2690 -0.0831  0.1735
 4232TIP3    H136891   5.778   0.562  18.935 -0.2464 -0.9616 -0.0232
 4232TIP3    H236892   5.826   0.567  18.792 -0.5264  2.3931 -0.0762
 4233TIP3   OH236893   1.452   6.198  20.096  0.1823 -0.2831 -0.0604
 4233TIP3    H136894   1.522   6.144  20.058 -0.3532 -0.4160 -0.8533
 4233TIP3    H236895   1.496   6.280  20.120  0.1629  0.5931 -2.7597
 4234TIP3   OH236896   1.639   4.565  17.031 -0.0125 -0.2946 -0.1292
 4234TIP3    H136897   1.645   4.652  17.069 -0.3457 -0.2169 -0.2521
 4234TIP3    H236898   1.721   4.554  16.982  0.1340 -0.1458  0.0841
 4235TIP3   OH236899   1.398   4.803  17.026 -0.3814  0.1135  0.5889
 4235TIP3    H136900   1.486   4.797  17.063 -0.1952  1.0089  0.3232
 4235TIP3    H236901   1.340   4.775  17.096  0.0343  0.7815  1.2111
 4236TIP3   OH236902   5.658   0.050  18.403 -0.1424  0.0619 -0.0483
 4236TIP3    H136903   5.663   0.034  18.309  0.8220  1.5564 -0.2942
 4236TIP3    H236904   5.666   0.145  18.411  1.7457 -0.1729  1.6270
 4237TIP3   OH236905   0.701   2.165  19.766  0.2885 -0.2429 -0.1439
 4237TIP3    H136906   0.736   2.160  19.855 -1.2375  1.4226  0.6250
 4237TIP3    H236907   0.622   2.219  19.775  0.0583 -0.0941 -2.5060
 4238TIP3   OH236908   4.235   4.953  16.947  0.3776  0.4730  0.0686
 4238TIP3    H136909   4.275   4.868  16.960 -0.6593 -0.1226 -0.4764
 4238TIP3    H236910   4.308   5.014  16.942  1.2163 -0.5662 -0.8754
 4239TIP3   OH236911   3.265   0.265  19.720  1.0994 -0.3658 -0.3363
 4239TIP3    H136912   3.279   0.202  19.790  0.3894 -0.6922 -0.4789
 4239TIP3    H236913   3.297   0.220  19.641  0.9568 -0.3946 -0.3774
 4240TIP3   OH236914   5.292   2.211  18.500 -0.1665  0.6427  0.3086
 4240TIP3    H136915   5.266   2.119  18.498  0.0543  0.5875 -0.8706
 4240TIP3    H236916   5.387   2.209  18.514 -0.4334  0.7752  2.3737
 4241TIP3   OH236917   5.104   4.553  17.986  0.4562  0.3500 -0.1456
 4241TIP3    H136918   5.116   4.610  18.062  1.0235 -0.4632  0.3976
 4241TIP3    H236919   5.070   4.610  17.917  1.8937  1.5453  0.0999
 4242TIP3   OH236920   4.879   1.435  18.458 -0.1072 -0.0993 -0.1233
 4242TIP3    H136921   4.793   1.467  18.432 -0.9372 -0.2974  2.1271
 4242TIP3    H236922   4.896   1.477  18.543  2.5414  0.8060 -0.9850
 4243TIP3   OH236923   6.333   5.459  18.219  0.3831 -0.2546  0.3056
 4243TIP3    H136924   6.369   5.546  18.233  1.3882 -0.4599 -0.9126
 4243TIP3    H236925   6.410   5.402  18.207 -0.2834 -1.0935 -0.1233
 4244TIP3   OH236926   2.054   4.619  20.161  0.2721  0.0295 -0.0088
 4244TIP3    H136927   2.130   4.606  20.218  0.7522  0.6333 -0.4901
 4244TIP3    H236928   2.051   4.714  20.146  2.0007 -0.3098 -3.3893
 4245TIP3   OH236929   0.594   3.851  15.953  0.0658 -0.3619 -0.4978
 4245TIP3    H136930   0.672   3.842  16.008  0.7993  2.3561 -0.9290
 4245TIP3    H236931   0.523   3.817  16.007  0.9850  0.7794  1.5524
 4246TIP3   OH236932   5.795   5.319  18.581 -0.3406 -0.6190  0.4241
 4246TIP3    H136933   5.888   5.318  18.561 -0.1204  1.5258  1.1289
 4246TIP3    H236934   5.791   5.324  18.677 -1.0811  1.4977  0.3369
 4247TIP3   OH236935   3.006   4.994  17.912  0.3228 -0.1401  0.0568
 4247TIP3    H136936   2.999   5.021  18.003 -1.0429  3.1867 -0.8915
 4247TIP3    H236937   3.086   4.941  17.909  1.2293  0.8770  2.8910
 4248TIP3   OH236938   0.849   5.629  18.901 -0.3246  0.0774 -0.0826
 4248TIP3    H136939   0.924   5.618  18.959 -0.3249 -1.1183 -0.2882
 4248TIP3    H236940   0.869   5.707  18.850  0.6231 -0.0469  0.0881
 4249TIP3   OH236941   1.554   2.333  18.194 -0.4850  0.2451 -0.0763
 4249TIP3    H136942   1.599   2.308  18.274 -0.5030 -0.9231 -0.4068
 4249TIP3    H236943   1.600   2.285  18.125 -1.9498 -0.6487 -0.4747
 4250TIP3   OH236944   3.922   4.337  19.423 -0.4182 -0.6423 -0.2692
 4250TIP3    H136945   3.834   4.353  19.389 -0.6269  0.1655  0.5862
 4250TIP3    H236946   3.981   4.371  19.356 -0.7211 -1.9350 -1.2184
 4251TIP3   OH236947   0.617   0.181  20.036  0.2786 -0.4681 -0.0229
 4251TIP3    H136948   0.627   0.207  20.128  1.7072  0.1418 -0.3350
 4251TIP3    H236949   0.653   0.254  19.986 -3.1950  0.6102 -1.2333
 4252TIP3   OH236950   5.870   0.233  18.794 -0.3197 -0.4372 -0.1260
 4252TIP3    H136951   5.781   0.229  18.830 -0.5886  1.6589 -0.4149
 4252TIP3    H236952   5.918   0.288  18.855  0.2180  0.1300 -1.0327
 4253TIP3   OH236953   3.579   4.622  19.821 -0.0952  0.1998 -0.5622
 4253TIP3    H136954   3.544   4.562  19.887  0.6371  0.5317  0.1410
 4253TIP3    H236955   3.617   4.694  19.872  2.0452 -0.3866 -1.2527
 4254TIP3   OH236956   3.300   5.389  17.958 -0.5620  0.5805 -0.0320
 4254TIP3    H136957   3.214   5.365  17.995  0.0651  0.9915  1.8118
 4254TIP3    H236958   3.343   5.438  18.028  1.1125  0.5709 -1.0043
 4255TIP3   OH236959   0.295   4.402  17.706  0.6105  0.1320 -0.1652
 4255TIP3    H136960   0.269   4.310  17.707 -0.6055  0.4605  0.4745
 4255TIP3    H236961   0.371   4.405  17.648  0.7461 -1.2896 -0.0989
 4256TIP3   OH236962   0.544   2.973  18.590 -0.1550  0.1270  0.0515
 4256TIP3    H136963   0.469   2.930  18.549  0.3851 -0.9740  0.1741
 4256TIP3    H236964   0.563   2.920  18.667  0.9878  0.1434 -0.1957
 4257TIP3   OH236965   3.697   5.064  18.779 -0.1333  0.5414  0.1016
 4257TIP3    H136966   3.654   5.049  18.863  0.7051  1.1214  0.6566
 4257TIP3    H236967   3.630   5.107  18.725 -0.2853  1.3790  0.9256
 4258TIP3   OH236968   6.298   5.233  20.271  0.3452 -0.0759 -0.1434
 4258TIP3    H136969   6.380   5.252  20.226  0.7517  0.4699  0.7918
 4258TIP3    H236970   6.323   5.173  20.341 -0.5629 -2.3454 -1.6763
 4259TIP3   OH236971   1.378   0.615  20.005  0.5497 -0.2408 -0.8490
 4259TIP3    H136972   1.297   0.593  20.051  0.7338  0.8627  0.0419
 4259TIP3    H236973   1.378   0.710  20.000  0.3181 -0.3182 -3.5985
 4260TIP3   OH236974   3.414   5.748  19.095  0.0031  0.5748 -0.0545
 4260TIP3    H136975   3.385   5.662  19.064  1.2685 -0.7812  2.2691
 4260TIP3    H236976   3.403   5.805  19.019  0.4191 -1.9064 -2.1273
 4261TIP3   OH236977   6.019   0.212  19.229 -0.0510  0.0129  0.0879
 4261TIP3    H136978   5.958   0.265  19.281 -0.6426 -1.2137  0.6752
 4261TIP3    H236979   6.004   0.123  19.258 -0.2639 -0.7116 -2.0676
 4262TIP3   OH236980   1.453   1.552  18.919  0.5027  0.4417  0.0847
 4262TIP3    H136981   1.434   1.645  18.906 -0.1317  0.0382 -2.1370
 4262TIP3    H236982   1.368   1.509  18.922  0.8047 -0.3314 -1.3326
 4263TIP3   OH236983   1.744   4.652  18.298  0.2394  0.1235  1.0705
 4263TIP3    H136984   1.663   4.698  18.276  1.9040  2.5575 -0.3740
 4263TIP3    H236985   1.725   4.560  18.278 -1.6395  0.8481 -0.9097
 4264TIP3   OH236986   2.745   3.329  19.453 -0.0884 -0.3148 -0.5540
 4264TIP3    H136987   2.773   3.352  19.364  0.3250 -0.2481 -0.4086
 4264TIP3    H236988   2.669   3.272  19.440 -0.0058 -0.3420 -0.9503
 4265TIP3   OH236989   5.114   0.174  18.408 -0.3095 -0.2229 -0.1934
 4265TIP3    H136990   5.147   0.089  18.381 -2.1425 -1.6437  1.7331
 4265TIP3    H236991   5.055   0.200  18.337  0.7936 -0.1557 -1.1236
 4266TIP3   OH236992   1.469   1.487  20.155 -0.0863  0.9931  0.3074
 4266TIP3    H136993   1.401   1.481  20.088  0.3589  1.4305 -0.1838
 4266TIP3    H236994   1.527   1.412  20.138 -0.5268  0.5208  0.8312
 4267TIP3   OH236995   0.351   2.338  20.290  0.4416 -0.1507  0.4491
 4267TIP3    H136996   0.418   2.404  20.308 -0.0754  0.1067  1.5294
 4267TIP3    H236997   0.269   2.388  20.282  0.3383 -0.4784 -0.6777
 4268TIP3   OH236998   1.663   6.422  19.337  0.2622 -0.3669 -0.0429
 4268TIP3    H136999   1.663   6.329  19.315  0.5110 -1.0366  2.4521
 4268TIP3    H237000   1.602   6.429  19.411 -0.1815  1.5694 -0.5332
 4269TIP3   OH237001   1.129   3.717  18.314  0.6095 -0.1058 -0.2818
 4269TIP3    H137002   1.048   3.683  18.278  0.8469 -0.1737 -0.7554
 4269TIP3    H237003   1.198   3.680  18.258  0.9656 -0.0476  0.1098
 4270TIP3   OH237004   6.428   5.343  18.534  0.0939 -0.5054  0.5542
 4270TIP3    H137005   6.368   5.380  18.600  0.9364  1.5741  0.2184
 4270TIP3    H237006   6.457   5.418  18.483  0.1608 -1.9468 -1.6777
 4271TIP3   OH237007   4.241   2.589  19.275 -0.1592  0.1650 -0.0556
 4271TIP3    H137008   4.176   2.612  19.342  1.5347  0.1774  1.6759
 4271TIP3    H237009   4.304   2.661  19.278 -0.2800  0.3897 -2.0291
 4272TIP3   OH237010   2.794   2.527  18.672 -0.1343 -0.0942  0.3970
 4272TIP3    H137011   2.811   2.614  18.708 -1.8054 -0.1008  1.3006
 4272TIP3    H237012   2.841   2.467  18.730  1.2436  0.1957 -0.3862
 4273TIP3   OH237013   5.251   0.650  17.271  0.5542  0.2876 -0.2540
 4273TIP3    H137014   5.278   0.559  17.276  3.1123  0.9833  0.0349
 4273TIP3    H237015   5.169   0.654  17.320  0.6859 -1.7408  0.1957
 4274TIP3   OH237016   6.374   0.373  17.489 -0.5745  0.2148  0.5240
 4274TIP3    H137017   6.432   0.417  17.426 -0.7717 -0.8538 -0.4386
 4274TIP3    H237018   6.412   0.286  17.498 -3.2361 -1.4028 -1.9659
 4275TIP3   OH237019   4.240   3.414  18.308 -0.2312 -0.6499 -0.4313
 4275TIP3    H137020   4.206   3.325  18.298  1.0481 -1.2606  0.3756
 4275TIP3    H237021   4.162   3.470  18.314 -1.0746 -1.5318 -2.2327
 4276TIP3   OH237022   4.503   4.114  18.558  0.3724  0.5438 -0.3513
 4276TIP3    H137023   4.556   4.140  18.633 -1.3647  1.0864  0.7486
 4276TIP3    H237024   4.562   4.059  18.505  2.0826  1.3273  0.6427
 4277TIP3   OH237025   1.774   2.079  19.183  0.0556 -0.4108  0.1986
 4277TIP3    H137026   1.855   2.112  19.223  0.2319 -1.5519  0.8205
 4277TIP3    H237027   1.711   2.151  19.193  1.0311  0.5826 -0.4924
 4278TIP3   OH237028   0.110   1.600  18.471  0.1159 -0.1446 -0.4161
 4278TIP3    H137029   0.033   1.610  18.415  1.0838 -1.3354 -2.0617
 4278TIP3    H237030   0.090   1.651  18.549 -1.8636  0.4861 -1.2725
 4279TIP3   OH237031   0.989   1.945  16.525  0.5776  0.0928 -0.2284
 4279TIP3    H137032   0.915   1.919  16.471 -0.3157 -0.4629  1.2188
 4279TIP3    H237033   0.973   2.037  16.545 -1.5624 -0.8166  2.8055
 4280TIP3   OH237034   2.833   3.720  16.470  0.2749  0.2789  0.2456
 4280TIP3    H137035   2.779   3.642  16.471  0.4146  0.1562 -0.9004
 4280TIP3    H237036   2.921   3.688  16.488  0.1736  0.3096  0.8043
 4281TIP3   OH237037   5.662   1.257  17.633  0.1770 -0.2102  0.2727
 4281TIP3    H137038   5.699   1.201  17.701  0.7955 -0.5602 -0.3323
 4281TIP3    H237039   5.735   1.274  17.573 -0.0966  0.9163  0.2221
 4282TIP3   OH237040   3.793   3.375  19.499 -0.3378 -0.0344 -0.4455
 4282TIP3    H137041   3.815   3.288  19.468 -0.1861 -0.9932  2.0756
 4282TIP3    H237042   3.855   3.433  19.456  1.3965 -1.5522 -0.1169
 4283TIP3   OH237043   1.898   4.920  19.237  0.4025 -0.3971  0.2926
 4283TIP3    H137044   1.941   5.005  19.231 -1.7689  0.7905  0.3012
 4283TIP3    H237045   1.844   4.926  19.316  0.1673 -1.7772  0.2658
 4284TIP3   OH237046   4.455   5.276  18.535  0.3685  0.1960 -0.1869
 4284TIP3    H137047   4.497   5.198  18.499  1.2290  1.0024 -0.9781
 4284TIP3    H237048   4.362   5.252  18.541  0.5853 -0.8170 -0.6000
 4285TIP3   OH237049   2.762   0.409  17.564  0.0712 -0.2910 -0.4102
 4285TIP3    H137050   2.815   0.486  17.545  0.0778 -0.3416 -0.5984
 4285TIP3    H237051   2.738   0.374  17.478  0.0346 -0.4743 -0.3276
 4286TIP3   OH237052   1.091   2.587  20.154 -0.3221  0.4857  0.5693
 4286TIP3    H137053   1.116   2.495  20.166 -0.2377  0.4917  0.4436
 4286TIP3    H237054   1.153   2.635  20.209 -0.2281  0.4817  0.4682
 4287TIP3   OH237055   3.587   5.423  18.518  0.1459 -0.5349  0.1907
 4287TIP3    H137056   3.665   5.464  18.555  0.7645  0.1233 -1.7429
 4287TIP3    H237057   3.590   5.445  18.425 -2.2473 -0.6742  0.0303
 4288TIP3   OH237058   0.046   4.004  16.739 -0.0425  0.6750  0.6335
 4288TIP3    H137059  -0.016   3.958  16.795 -0.4538  1.7937  1.1335
 4288TIP3    H237060   0.017   3.984  16.650  0.3889 -0.8139  0.8022
 4289TIP3   OH237061   1.741   5.383  19.705 -0.1057 -0.9019 -0.0696
 4289TIP3    H137062   1.767   5.433  19.628  1.0517 -2.2626 -0.6229
 4289TIP3    H237063   1.815   5.322  19.720  0.0063 -0.2665  2.4862
 4290TIP3   OH237064   1.967   0.621  17.802  0.4318  0.2933 -0.0793
 4290TIP3    H137065   1.951   0.659  17.716 -1.9276 -0.4930 -0.0460
 4290TIP3    H237066   1.972   0.527  17.787  0.6616  0.1946  0.5669
 4291TIP3   OH237067   0.475   6.065  19.758  0.2511  0.8536 -0.4370
 4291TIP3    H137068   0.406   6.047  19.695  0.6112  1.3548 -0.9812
 4291TIP3    H237069   0.464   5.997  19.825  1.0653 -0.9164 -1.9931
 4292TIP3   OH237070   3.819   3.317  18.318 -0.3028 -0.0404  0.0982
 4292TIP3    H137071   3.904   3.325  18.273 -0.6527 -0.8334 -0.7374
 4292TIP3    H237072   3.828   3.239  18.372 -0.8287 -0.7503 -0.7994
 4293TIP3   OH237073   5.659   3.460  17.475  0.5528  0.8146  0.8135
 4293TIP3    H137074   5.749   3.445  17.504  0.6442 -1.6580 -0.4385
 4293TIP3    H237075   5.607   3.456  17.556  1.4694  1.4090  1.4507
 4294TIP3   OH237076   3.481   0.608  20.068  0.2789  0.9653  0.0156
 4294TIP3    H137077   3.422   0.533  20.074 -1.0437  2.0034  0.3574
 4294TIP3    H237078   3.544   0.583  19.999 -0.2086 -0.3743  0.0154
 4295TIP3   OH237079   1.801   2.789  19.276  0.3444  0.2478  0.4356
 4295TIP3    H137080   1.864   2.834  19.220 -0.0447  1.2278  0.7684
 4295TIP3    H237081   1.778   2.853  19.343 -1.0330 -0.0647  0.2972
 4296TIP3   OH237082   2.184   5.145  17.962  0.3358 -0.5404  0.0958
 4296TIP3    H137083   2.254   5.192  17.918  0.2068 -1.3215 -0.9756
 4296TIP3    H237084   2.131   5.108  17.891 -2.0314  1.2387  0.7981
 4297TIP3   OH237085   6.318   6.079  20.145 -0.2223  0.2731 -0.5027
 4297TIP3    H137086   6.293   6.138  20.216 -2.5986 -0.0681 -0.9936
 4297TIP3    H237087   6.294   6.125  20.065  1.2232  0.0969 -1.0720
 4298TIP3   OH237088   0.798   2.609  20.313 -0.6008 -0.4512  0.2445
 4298TIP3    H137089   0.840   2.539  20.262 -0.0764  0.7090 -0.9879
 4298TIP3    H237090   0.867   2.674  20.325 -1.7756  1.0958 -1.0335
 4299TIP3   OH237091   6.680   6.399  17.137  0.0691  0.0404 -0.9512
 4299TIP3    H137092   6.682   6.447  17.055 -2.3970  1.3031 -0.3635
 4299TIP3    H237093   6.737   6.449  17.196  1.5884 -0.6959 -1.7327
 4300TIP3   OH237094   2.355   0.947  18.619  0.4320  0.2472 -0.0083
 4300TIP3    H137095   2.448   0.971  18.618  1.1977 -2.3434  0.7606
 4300TIP3    H237096   2.344   0.895  18.539 -0.2628  0.2797  0.0672
 4301TIP3   OH237097   3.999   4.143  17.200 -0.8468 -0.1010  0.2172
 4301TIP3    H137098   3.924   4.094  17.233 -1.1002 -1.0148 -1.6069
 4301TIP3    H237099   4.036   4.088  17.131  0.2144  1.2712 -0.3676
 4302TIP3   OH237100   6.054   1.350  19.586 -0.0208 -0.7223  0.3480
 4302TIP3    H137101   6.079   1.363  19.678 -0.9934  0.3764  0.4891
 4302TIP3    H237102   6.009   1.432  19.563  2.1900 -0.0135 -1.8117
 4303TIP3   OH237103   1.554   0.807  17.943  0.0140  0.3144 -0.3816
 4303TIP3    H137104   1.586   0.839  17.859 -0.5476 -0.9461 -1.1027
 4303TIP3    H237105   1.459   0.818  17.939 -0.1771 -1.2396 -0.5917
 4304TIP3   OH237106   1.613   0.914  19.539 -0.1789  0.2238  0.2629
 4304TIP3    H137107   1.552   0.898  19.468  1.7492  1.5916 -1.8224
 4304TIP3    H237108   1.592   1.003  19.570 -2.0839 -0.9387  2.6571
 4305TIP3   OH237109   6.044   2.285  20.285  0.0491  0.6207 -0.2502
 4305TIP3    H137110   6.139   2.278  20.298  0.0001 -0.0016 -0.1845
 4305TIP3    H237111   6.033   2.360  20.227  0.5034  1.3954  0.6395
 4306TIP3   OH237112   4.165   5.202  18.612  0.0408 -0.0728 -0.5849
 4306TIP3    H137113   4.116   5.120  18.600 -0.4924  0.5013 -2.9045
 4306TIP3    H237114   4.097   5.268  18.628  0.1937  0.3688 -1.6655
 4307TIP3   OH237115   6.723   3.697  16.866  0.0354  0.8440  0.5426
 4307TIP3    H137116   6.714   3.739  16.780 -0.1420  1.6279  0.9268
 4307TIP3    H237117   6.642   3.720  16.911  0.0407  0.2633  0.8477
 4308TIP3   OH237118   4.410   1.291  18.566  0.4378 -0.5307 -0.3207
 4308TIP3    H137119   4.397   1.304  18.472  0.3401  0.6099 -0.1635
 4308TIP3    H237120   4.502   1.266  18.574  1.5941  3.1210 -0.4550
 4309TIP3   OH237121   3.190   6.177  18.355  0.0982 -0.0374 -0.4913
 4309TIP3    H137122   3.126   6.107  18.343  0.9255 -0.6947 -1.1201
 4309TIP3    H237123   3.139   6.249  18.393 -0.3425 -1.7260  2.4684
 4310TIP3   OH237124   5.045   5.557  17.068 -0.1843 -0.6062  0.2559
 4310TIP3    H137125   5.129   5.577  17.109 -0.6712  1.6276  0.3097
 4310TIP3    H237126   4.985   5.544  17.141  0.1326 -2.4746  0.2198
 4311TIP3   OH237127   0.226   3.022  19.301 -0.3704 -0.0335 -0.2038
 4311TIP3    H137128   0.270   3.017  19.386  1.6965  1.7752 -1.0812
 4311TIP3    H237129   0.190   3.110  19.297  0.6292  0.3498 -1.6510
 4312TIP3   OH237130   0.446   3.343  17.315  0.2326  0.0873  0.0338
 4312TIP3    H137131   0.425   3.250  17.322 -1.2519  0.3604 -0.3087
 4312TIP3    H237132   0.490   3.352  17.230  0.4612 -0.3124  0.1091
 4313TIP3   OH237133   3.283   5.138  19.670 -1.0160 -0.0786 -0.1544
 4313TIP3    H137134   3.215   5.133  19.738 -0.4233  1.1873  0.5684
 4313TIP3    H237135   3.237   5.168  19.592 -1.4914 -0.3650  0.0134
 4314TIP3   OH237136   4.301   1.356  17.548  0.5802  0.1475  0.0261
 4314TIP3    H137137   4.292   1.330  17.640  0.6095 -2.3037 -0.6041
 4314TIP3    H237138   4.227   1.415  17.533  1.6318  2.1605  2.0569
 4315TIP3   OH237139   1.675   5.058  20.105 -0.1199 -0.4637  0.0062
 4315TIP3    H137140   1.765   5.039  20.133 -0.2171 -1.3734 -0.2546
 4315TIP3    H237141   1.673   5.152  20.090  0.9984 -0.5389 -0.6902
 4316TIP3   OH237142   4.057   5.176  16.957  0.0292 -0.1612 -0.1477
 4316TIP3    H137143   4.112   5.099  16.970 -0.2020 -0.0585  1.6075
 4316TIP3    H237144   4.117   5.250  16.963  0.0578 -0.1487 -0.5801
 4317TIP3   OH237145   1.882   3.885  17.493  0.1346  0.6268  1.1446
 4317TIP3    H137146   1.798   3.849  17.463  1.3709 -0.1498 -1.6504
 4317TIP3    H237147   1.916   3.819  17.554 -0.0016 -0.4858  0.0599
 4318TIP3   OH237148   5.765   3.113  18.675 -0.3341  0.3886 -0.3726
 4318TIP3    H137149   5.684   3.061  18.671  0.4613 -0.8202 -1.6623
 4318TIP3    H237150   5.789   3.126  18.584  0.2451  1.8676 -0.0264
 4319TIP3   OH237151   0.071   0.832  18.226  0.0651 -0.3886  0.8743
 4319TIP3    H137152   0.073   0.862  18.316  0.3271  1.8844  0.1757
 4319TIP3    H237153   0.162   0.806  18.207  0.4674  1.0678  0.6970
 4320TIP3   OH237154   2.534   2.610  16.814  0.5200  0.4271  0.0299
 4320TIP3    H137155   2.565   2.641  16.728  1.5812  0.5501  0.4396
 4320TIP3    H237156   2.563   2.519  16.818  2.0068  0.9103  0.9426
 4321TIP3   OH237157   5.490   1.160  19.977 -0.0214 -0.1347  0.6115
 4321TIP3    H137158   5.441   1.189  19.900 -1.5055 -2.6844  0.4535
 4321TIP3    H237159   5.422   1.132  20.039  1.1468 -2.5690  0.9147
 4322TIP3   OH237160   1.026   0.434  19.979 -0.1381 -0.1262 -0.3879
 4322TIP3    H137161   1.076   0.466  19.904 -1.2144  1.6864 -0.3873
 4322TIP3    H237162   1.014   0.511  20.035  1.7947 -1.6765  2.4000
 4323TIP3   OH237163   3.824   0.659  18.403 -0.9487  0.1915 -0.3053
 4323TIP3    H137164   3.853   0.677  18.492  0.2705  1.9179 -0.9964
 4323TIP3    H237165   3.785   0.741  18.373 -1.3431 -0.3633 -1.3655
 4324TIP3   OH237166   5.949   2.215  19.715  0.4631 -0.0958  0.2962
 4324TIP3    H137167   5.855   2.212  19.732  0.3055 -1.3181 -0.6599
 4324TIP3    H237168   5.988   2.163  19.786  0.2813 -0.7309 -0.0606
 4325TIP3   OH237169   2.977   1.990  18.013 -0.1908 -0.1503 -0.1559
 4325TIP3    H137170   2.983   2.073  17.967  0.7296 -0.2190 -0.1817
 4325TIP3    H237171   3.013   2.009  18.100  1.4169 -0.8336 -0.6229
 4326TIP3   OH237172   0.078   0.402  19.830  0.2868 -0.0237  0.6493
 4326TIP3    H137173   0.047   0.313  19.812  0.5879  0.3323 -2.0442
 4326TIP3    H237174   0.169   0.392  19.856  0.4336 -0.4955 -0.0281
 4327TIP3   OH237175   0.271   1.071  20.551 -0.1287 -0.3825 -0.0697
 4327TIP3    H137176   0.236   1.159  20.543 -1.2407 -0.6630  1.3504
 4327TIP3    H237177   0.207   1.016  20.505 -1.7404 -0.9044  2.5917
 4328TIP3   OH237178   2.601   4.368  19.074 -0.2727  0.5746  0.4849
 4328TIP3    H137179   2.667   4.437  19.066  1.1359 -0.9520 -2.2763
 4328TIP3    H237180   2.646   4.288  19.047 -3.1297 -0.6057 -1.1710
 4329TIP3   OH237181   0.458   3.221  19.217  0.3873 -0.3769  0.7137
 4329TIP3    H137182   0.424   3.161  19.151  0.4111 -0.0646  0.4154
 4329TIP3    H237183   0.463   3.169  19.297 -0.3706 -0.5532  0.6556
 4330TIP3   OH237184   0.695   1.643  17.603 -0.3830 -0.4386 -0.1685
 4330TIP3    H137185   0.784   1.613  17.582  0.0681 -0.6535  1.8501
 4330TIP3    H237186   0.638   1.577  17.564  0.5340 -3.0115  2.5043
 4331TIP3   OH237187   0.711   0.957  17.809  0.0447 -0.1015 -0.0804
 4331TIP3    H137188   0.751   1.040  17.833 -0.9627  0.3850 -0.0058
 4331TIP3    H237189   0.619   0.966  17.836 -0.4464 -0.6341 -1.4657
 4332TIP3   OH237190   2.948   3.379  18.951  0.1052 -0.0346 -0.5196
 4332TIP3    H137191   3.031   3.392  18.906 -0.0928  0.7922 -0.6602
 4332TIP3    H237192   2.907   3.465  18.951 -0.2420 -0.1867  0.5743
 4333TIP3   OH237193   2.207   6.237  19.179 -0.3956  0.1595 -0.1319
 4333TIP3    H137194   2.121   6.276  19.191  0.5465  2.3008  0.2709
 4333TIP3    H237195   2.221   6.183  19.256 -2.6354 -2.9988 -1.7146
 4334TIP3   OH237196   4.421   3.667  17.855  0.5154  0.6760 -0.1233
 4334TIP3    H137197   4.487   3.603  17.883 -1.4266 -0.6249  1.7459
 4334TIP3    H237198   4.421   3.733  17.924 -0.0896  0.7002 -0.1454
 4335TIP3   OH237199   2.991   4.449  18.056  0.4808  0.2628  0.3959
 4335TIP3    H137200   2.993   4.358  18.027  1.2548  0.6108 -0.7217
 4335TIP3    H237201   3.031   4.448  18.143 -0.0675 -0.5390  0.6531
 4336TIP3   OH237202   6.339   1.806  20.035 -0.0289  0.0577  0.0294
 4336TIP3    H137203   6.346   1.851  20.119 -0.1022 -0.1346  0.1387
 4336TIP3    H237204   6.262   1.845  19.994 -0.6255 -0.5926  0.5068
 4337TIP3   OH237205   1.851   1.554  17.565  0.2511 -0.0620 -0.4003
 4337TIP3    H137206   1.788   1.551  17.493  2.3047  0.0847 -2.2800
 4337TIP3    H237207   1.850   1.646  17.593 -1.7101 -0.4193  0.9258
 4338TIP3   OH237208   0.567   4.632  19.452  0.0052 -0.3111 -0.4763
 4338TIP3    H137209   0.639   4.688  19.482 -0.8127 -1.1501  3.8193
 4338TIP3    H237210   0.608   4.548  19.435  0.4656  0.0867 -1.3737
 4339TIP3   OH237211   3.056   5.543  18.088  0.6652  0.4160  0.0817
 4339TIP3    H137212   3.052   5.449  18.068  0.4331  0.5536 -0.5585
 4339TIP3    H237213   2.991   5.556  18.157 -1.4270  0.5770 -1.8058
 4340TIP3   OH237214   0.399   6.613  18.038  0.1051  0.0739 -0.0240
 4340TIP3    H137215   0.489   6.613  18.004 -0.2136  1.0539 -0.9443
 4340TIP3    H237216   0.346   6.640  17.963 -0.9294 -0.1990  0.5938
 4341TIP3   OH237217   3.969   6.138  16.976  0.2228  0.2194 -0.0400
 4341TIP3    H137218   3.890   6.088  16.953  0.1867  0.6486 -0.8817
 4341TIP3    H237219   3.940   6.197  17.046 -0.0806  0.0350 -0.0047
 4342TIP3   OH237220   1.475   1.480  19.745  0.4197 -0.6367 -0.0414
 4342TIP3    H137221   1.520   1.564  19.746 -0.6581 -0.0553  0.5109
 4342TIP3    H237222   1.427   1.479  19.663  0.6966 -0.8667 -0.2046
 4343TIP3   OH237223   5.617   1.677  17.461 -0.4878  0.8379 -0.3557
 4343TIP3    H137224   5.582   1.643  17.543 -1.2311  1.4063 -0.4243
 4343TIP3    H237225   5.631   1.770  17.477  0.1064  0.8064 -0.6346
 4344TIP3   OH237226   1.938   1.117  19.261 -0.3710  0.2001  0.3934
 4344TIP3    H137227   2.011   1.057  19.277 -0.2376  0.6639  1.6996
 4344TIP3    H237228   1.881   1.071  19.201  0.4296 -0.6517  0.2667
 4345TIP3   OH237229   3.808   6.480  19.886  0.2798  0.3058  0.4403
 4345TIP3    H137230   3.726   6.439  19.913  0.0625  0.1727 -0.3812
 4345TIP3    H237231   3.789   6.574  19.888  0.5102  0.3412  1.4829
 4346TIP3   OH237232   3.445   4.514  18.603  0.1076  0.5281 -0.3358
 4346TIP3    H137233   3.491   4.563  18.672 -0.2467  0.8161 -0.2997
 4346TIP3    H237234   3.515   4.473  18.552  0.3497 -1.0217  1.1400
 4347TIP3   OH237235   2.327   1.150  17.312 -0.1651 -0.2010  0.1161
 4347TIP3    H137236   2.317   1.061  17.278 -1.0934  0.0418 -0.2596
 4347TIP3    H237237   2.415   1.176  17.285  0.4234 -1.2794  0.8957
 4348TIP3   OH237238   5.214   2.013  18.110  0.1090  0.0032 -0.0411
 4348TIP3    H137239   5.234   2.008  18.017 -2.0641 -0.6475 -0.5501
 4348TIP3    H237240   5.229   1.924  18.142  1.0652  0.2776  0.3008
 4349TIP3   OH237241   6.291   3.529  19.693  0.1395 -0.2482  0.0301
 4349TIP3    H137242   6.319   3.535  19.785 -1.2252 -0.9840  0.5250
 4349TIP3    H237243   6.204   3.490  19.697  0.2133 -0.6582 -1.6199
 4350TIP3   OH237244   4.867   0.718  18.399 -0.4650  0.0547 -0.8650
 4350TIP3    H137245   4.790   0.761  18.436  0.0630 -0.7979  1.3728
 4350TIP3    H237246   4.935   0.731  18.465 -0.2012 -3.9661 -0.0991
 4351TIP3   OH237247   2.884   2.087  18.709 -0.0795 -0.0304  0.0310
 4351TIP3    H137248   2.948   2.106  18.641  1.6072  0.4912  1.6636
 4351TIP3    H237249   2.813   2.043  18.664  0.8502  0.5090 -2.0819
 4352TIP3   OH237250   6.135   2.581  19.298 -0.0021 -0.2536  0.4476
 4352TIP3    H137251   6.059   2.531  19.329 -0.6932  0.2741 -0.3391
 4352TIP3    H237252   6.098   2.647  19.239  1.1769 -0.7311 -0.8960
 4353TIP3   OH237253   1.410   2.696  19.670  0.3185  0.3935 -0.1057
 4353TIP3    H137254   1.450   2.779  19.646 -2.4686  1.4724 -1.4181
 4353TIP3    H237255   1.401   2.700  19.765  0.4318  1.4709 -0.1354
 4354TIP3   OH237256   4.890   1.435  18.994 -0.1041  0.3940 -0.8004
 4354TIP3    H137257   4.907   1.400  19.081 -1.1855  0.7214 -0.4387
 4354TIP3    H237258   4.817   1.495  19.006 -0.8831 -0.2407 -2.0884
 4355TIP3   OH237259   6.034   4.806  19.710 -0.3231  0.3654 -0.1020
 4355TIP3    H137260   6.090   4.884  19.706  2.1823 -1.3553 -2.0115
 4355TIP3    H237261   6.053   4.768  19.796  1.8422 -0.3477 -0.8259
 4356TIP3   OH237262   4.763   6.535  18.170 -0.1134  0.1608 -0.0963
 4356TIP3    H137263   4.683   6.486  18.149 -0.3463  0.5243 -0.0671
 4356TIP3    H237264   4.771   6.598  18.098 -0.5410  0.9633  0.5421
 4357TIP3   OH237265   1.759   0.242  19.650  0.0373  0.1699  0.0806
 4357TIP3    H137266   1.703   0.184  19.599  0.8623 -0.0006 -0.6600
 4357TIP3    H237267   1.726   0.330  19.632 -1.6114 -0.0715  1.6908
 4358TIP3   OH237268   5.485   0.890  19.839  0.3233 -0.1520 -0.1600
 4358TIP3    H137269   5.461   0.915  19.928  0.5796 -0.2608 -0.0598
 4358TIP3    H237270   5.498   0.974  19.793 -1.9729 -0.0436 -0.7039
 4359TIP3   OH237271   5.083   1.130  17.585 -0.2058  0.8295  0.4283
 4359TIP3    H137272   5.071   1.082  17.503 -3.3360  2.0271  0.0227
 4359TIP3    H237273   5.044   1.073  17.652 -2.3520  1.9070  0.2022
 4360TIP3   OH237274   3.229   4.588  19.950  0.3086  0.2230 -0.1971
 4360TIP3    H137275   3.184   4.634  20.021  1.2455  0.4317  0.2791
 4360TIP3    H237276   3.310   4.557  19.990  0.9920  0.6093 -1.2628
 4361TIP3   OH237277   3.246   5.042  18.396 -0.3754 -0.3536 -0.3366
 4361TIP3    H137278   3.272   4.954  18.423 -2.6743 -0.5794  1.4884
 4361TIP3    H237279   3.258   5.095  18.475  0.8847  0.9872 -1.3826
 4362TIP3   OH237280   6.240   2.093  17.824  0.8223  0.0202 -0.2476
 4362TIP3    H137281   6.209   2.159  17.886  2.4419  0.2716  0.3420
 4362TIP3    H237282   6.305   2.043  17.873  0.3319 -1.4058 -0.9890
 4363TIP3   OH237283   4.797   2.547  19.476  0.1798 -0.5276  0.2798
 4363TIP3    H137284   4.880   2.522  19.516  1.0289  0.7630 -0.5924
 4363TIP3    H237285   4.815   2.632  19.435 -1.3085 -0.6634 -0.7248
 4364TIP3   OH237286   5.214   0.979  18.396 -0.3820  0.3130  0.6674
 4364TIP3    H137287   5.247   1.068  18.380 -0.1304 -0.1145 -1.3648
 4364TIP3    H237288   5.272   0.944  18.463 -0.1345  1.4645  1.0905
 4365TIP3   OH237289   5.336   2.856  16.635 -0.4806  0.1029 -0.0255
 4365TIP3    H137290   5.405   2.792  16.617 -0.4231  0.8462 -2.8135
 4365TIP3    H237291   5.271   2.808  16.685 -0.0436 -1.9080 -1.2865
 4366TIP3   OH237292   0.424   2.072  20.275 -0.0995  0.5479  0.4123
 4366TIP3    H137293   0.390   2.160  20.286 -0.4742  0.3414  0.9505
 4366TIP3    H237294   0.348   2.015  20.284  0.4840  0.0179  2.6595
 4367TIP3   OH237295   1.570   0.929  17.363 -0.1067 -0.6194  0.0488
 4367TIP3    H137296   1.651   0.919  17.413  1.6494 -1.0784 -2.6139
 4367TIP3    H237297   1.569   0.853  17.304 -1.8096  0.0532 -0.8640
 4368TIP3   OH237298   0.045   0.390  18.423  0.0827  0.2436  0.5622
 4368TIP3    H137299  -0.002   0.466  18.389 -0.1975  0.5420  1.5906
 4368TIP3    H237300   0.105   0.425  18.489  2.0449 -0.0747 -0.9247
 4369TIP3   OH237301   2.702   4.413  19.989  0.0120  0.9843  0.0256
 4369TIP3    H137302   2.618   4.455  19.971 -1.3077 -0.8353  1.5826
 4369TIP3    H237303   2.693   4.325  19.953  1.5476  0.9876 -0.4178
 4370TIP3   OH237304   4.422   2.854  19.251 -0.5309 -0.3378  0.5492
 4370TIP3    H137305   4.347   2.904  19.218 -1.2070 -0.2503  2.1082
 4370TIP3    H237306   4.471   2.829  19.173 -1.3621  0.9013 -0.4078
 4371TIP3   OH237307   5.636   2.532  17.681 -0.0841 -0.5758 -0.2882
 4371TIP3    H137308   5.620   2.611  17.630 -0.2029  0.5111  1.3768
 4371TIP3    H237309   5.712   2.553  17.734 -0.3565 -1.4433  0.4645
 4372TIP3   OH237310   1.687   3.824  19.039 -0.0508  0.3689  0.5803
 4372TIP3    H137311   1.781   3.839  19.030  0.5517 -1.0629  3.3996
 4372TIP3    H237312   1.668   3.754  18.976  1.0523 -0.1866  0.8388
 4373TIP3   OH237313   2.115   1.194  19.476 -0.1122 -0.0112 -0.1669
 4373TIP3    H137314   2.051   1.240  19.531 -0.3633  0.3876 -0.7863
 4373TIP3    H237315   2.070   1.181  19.393  1.3295  2.3178 -1.4380
 4374TIP3   OH237316   3.953   1.434  17.791  0.4853 -0.5484 -0.3723
 4374TIP3    H137317   3.880   1.485  17.827  0.4603  0.2579 -1.4997
 4374TIP3    H237318   4.014   1.424  17.864  0.4610  1.0664 -0.0837
 4375TIP3   OH237319   1.189   5.028  20.144 -0.0030  0.6426 -0.1354
 4375TIP3    H137320   1.109   5.018  20.093  0.7457 -1.0284 -1.0594
 4375TIP3    H237321   1.161   5.019  20.235 -0.8975  0.2958 -0.4387
 4376TIP3   OH237322   2.748   5.749  18.494  0.0388  0.6374  0.4650
 4376TIP3    H137323   2.839   5.745  18.523  1.2966  2.9058 -2.6159
 4376TIP3    H237324   2.744   5.686  18.422 -0.6723  1.0020  0.1797
 4377TIP3   OH237325   5.426   4.592  19.658 -0.1631  0.7086  0.2342
 4377TIP3    H137326   5.333   4.592  19.634  0.1667  0.3291 -1.1006
 4377TIP3    H237327   5.472   4.610  19.576  1.0229 -0.7993  0.5262
 4378TIP3   OH237328   4.036   1.185  17.695 -0.4100 -0.3813  0.1824
 4378TIP3    H137329   4.021   1.279  17.702 -2.7707 -0.8213  2.8421
 4378TIP3    H237330   3.988   1.158  17.617  1.1129  0.6785 -1.1785
 4379TIP3   OH237331   3.305   1.869  18.240 -0.3057  0.0731 -0.7659
 4379TIP3    H137332   3.340   1.908  18.320 -2.0491 -0.4273  0.3204
 4379TIP3    H237333   3.356   1.789  18.227 -1.4701 -1.0812  1.2465
 4380TIP3   OH237334   3.821   4.615  19.332  0.3617 -0.8236  0.3867
 4380TIP3    H137335   3.725   4.611  19.329  0.3644 -0.9234  0.4328
 4380TIP3    H237336   3.841   4.621  19.425  0.3027  1.5888  0.3149
 4381TIP3   OH237337   5.844   3.143  19.778  0.1394  0.1014  0.1914
 4381TIP3    H137338   5.757   3.152  19.817  0.3038  1.4000  0.2916
 4381TIP3    H237339   5.833   3.173  19.688  0.8048  1.9197  0.6627
 4382TIP3   OH237340   0.056   6.459  17.389  0.0190 -0.6949  0.5190
 4382TIP3    H137341   0.031   6.533  17.444 -0.0573 -0.7574  0.5682
 4382TIP3    H237342   0.107   6.402  17.447  0.5269 -0.4259  0.3442
 4383TIP3   OH237343   5.975   0.771  18.653  0.1462  0.4783 -0.2015
 4383TIP3    H137344   5.931   0.820  18.722  1.4526 -1.6554  2.3191
 4383TIP3    H237345   6.004   0.690  18.695  2.6687 -0.1402 -2.7716
 4384TIP3   OH237346   6.175   3.549  18.335  0.0940  0.1689 -0.1194
 4384TIP3    H137347   6.173   3.625  18.394  0.5511  0.2259 -0.1732
 4384TIP3    H237348   6.227   3.578  18.261  1.8353 -0.7744  0.6774
 4385TIP3   OH237349   0.511   1.126  18.043 -0.6959  0.5585  0.2804
 4385TIP3    H137350   0.520   1.041  18.086 -0.3486  0.5090  0.1172
 4385TIP3    H237351   0.586   1.176  18.076 -0.0134  0.2873 -0.7972
 4386TIP3   OH237352   1.869   3.149  18.703  0.4238  0.5489 -0.4375
 4386TIP3    H137353   1.797   3.112  18.651  0.7103  0.7634 -0.9851
 4386TIP3    H237354   1.842   3.132  18.794 -1.2733  2.3655 -0.5344
 4387TIP3   OH237355   2.197   4.454  19.407  0.0076 -0.3089 -0.3321
 4387TIP3    H137356   2.241   4.503  19.477  1.1288 -2.9479  0.9373
 4387TIP3    H237357   2.262   4.391  19.377 -1.5408 -1.4495 -1.4735
 4388TIP3   OH237358   0.824   5.874  17.073  0.3862 -0.6296  0.4475
 4388TIP3    H137359   0.788   5.959  17.096  0.8941 -0.5100  0.8141
 4388TIP3    H237360   0.812   5.821  17.151  1.2908 -0.4918  0.6863
 4389TIP3   OH237361   5.128   6.098  17.104  0.1227 -0.1146  0.1004
 4389TIP3    H137362   5.214   6.123  17.071 -0.0079  0.7394  0.3902
 4389TIP3    H237363   5.117   6.007  17.075  1.3260 -0.4086  0.4894
 4390TIP3   OH237364   5.433   4.934  19.644  0.2539  0.3458  0.6821
 4390TIP3    H137365   5.459   4.979  19.725  0.4341  0.8948  0.3332
 4390TIP3    H237366   5.409   4.846  19.671 -0.2110  0.6894  1.4079
 4391TIP3   OH237367   5.914   1.772  16.950  0.1375  0.0564  0.4255
 4391TIP3    H137368   5.987   1.831  16.973 -0.0186  0.0766  0.8902
 4391TIP3    H237369   5.899   1.788  16.857 -0.4864  1.4162  0.7332
 4392TIP3   OH237370   3.268   6.357  19.630 -0.3830 -0.6777 -0.0130
 4392TIP3    H137371   3.221   6.436  19.603 -2.8973 -1.3312  2.1068
 4392TIP3    H237372   3.274   6.363  19.725  0.0348 -2.6723  0.1454
 4393TIP3   OH237373   1.941   5.776  18.641 -0.0762 -0.0087 -0.3254
 4393TIP3    H137374   1.980   5.805  18.723  0.6355  1.0107 -1.0109
 4393TIP3    H237375   1.878   5.844  18.618  0.0317 -0.0791 -0.8445
 4394TIP3   OH237376   1.758   0.065  19.191 -0.5302  0.2844  0.2584
 4394TIP3    H137377   1.766  -0.030  19.176 -0.4958  0.5281 -1.4039
 4394TIP3    H237378   1.828   0.084  19.254 -2.1419 -1.1790  2.6694
 4395TIP3   OH237379   5.915   4.510  17.856 -0.5837 -0.2276 -0.5647
 4395TIP3    H137380   5.828   4.488  17.823 -0.1986 -1.5646 -0.7257
 4395TIP3    H237381   5.961   4.426  17.861  0.1441  0.2352  1.1429
 4396TIP3   OH237382   6.421   0.838  17.726  0.8032  0.2290  0.8297
 4396TIP3    H137383   6.397   0.917  17.677 -0.9523  0.4677  1.9895
 4396TIP3    H237384   6.488   0.796  17.672  2.0519  2.6700  0.3330
 4397TIP3   OH237385   3.890   6.628  18.381  0.2128  0.3716 -0.2833
 4397TIP3    H137386   3.959   6.694  18.378 -0.4932  1.0885 -2.7141
 4397TIP3    H237387   3.810   6.676  18.358 -0.3661 -1.2491 -1.8185
 4398TIP3   OH237388   4.950   5.549  19.633 -0.1876  0.2704  0.4180
 4398TIP3    H137389   4.929   5.458  19.655 -0.8709  0.5068  0.7632
 4398TIP3    H237390   5.019   5.574  19.695 -2.5295  1.1416  2.8598
 4399TIP3   OH237391   2.779   1.798  19.717  0.2384 -0.3838 -0.3800
 4399TIP3    H137392   2.787   1.890  19.690  0.1777  0.3795  2.0029
 4399TIP3    H237393   2.869   1.764  19.711  0.8828  0.7854  1.7175
 4400TIP3   OH237394   3.948   4.843  17.570  0.2583  0.2783 -0.4377
 4400TIP3    H137395   4.025   4.795  17.599  0.1418  0.4152  0.1147
 4400TIP3    H237396   3.902   4.866  17.651  0.9995  2.4764 -0.5673
 4401TIP3   OH237397   5.397   2.998  19.725 -0.3068  0.6167  0.3052
 4401TIP3    H137398   5.306   3.020  19.746 -0.2476 -0.1099  1.3929
 4401TIP3    H237399   5.394   2.908  19.693 -0.2173  1.2778 -1.6588
 4402TIP3   OH237400   2.067   4.191  17.161  0.1446  0.2477 -0.0616
 4402TIP3    H137401   2.051   4.130  17.233  1.0292  1.3577  1.1409
 4402TIP3    H237402   2.085   4.136  17.086 -1.3697 -0.9605  0.4048
 4403TIP3   OH237403   1.382   2.267  19.844  0.0279  0.2961 -0.0297
 4403TIP3    H137404   1.324   2.330  19.801  0.8276 -0.4489 -2.3772
 4403TIP3    H237405   1.456   2.318  19.874 -0.3116  0.7762 -0.0015
 4404TIP3   OH237406   0.307   0.945  19.835 -0.1195  0.4821 -0.1651
 4404TIP3    H137407   0.331   0.853  19.850 -1.8490  0.1545  0.9015
 4404TIP3    H237408   0.292   0.951  19.741  0.4201 -0.2159 -0.3055
 4405TIP3   OH237409   5.159   4.274  19.612  0.1796  0.5638  0.5212
 4405TIP3    H137410   5.254   4.273  19.626  0.0937  1.8456  1.3441
 4405TIP3    H237411   5.133   4.365  19.627 -1.1420  0.3005 -0.0033
 4406TIP3   OH237412   5.256   2.949  16.368 -0.0923  0.2301  0.1887
 4406TIP3    H137413   5.321   2.927  16.435  0.3614  0.0444 -0.3047
 4406TIP3    H237414   5.175   2.907  16.398  0.3374 -0.6358  0.1549
 4407TIP3   OH237415   2.150   3.246  19.144  0.6753  0.0204  0.1611
 4407TIP3    H137416   2.099   3.326  19.142  1.2811  0.4352  0.8513
 4407TIP3    H237417   2.124   3.199  19.065  0.2875  0.8743 -0.2317
 4408TIP3   OH237418   5.870   0.238  20.157  0.2245  0.3723  0.3581
 4408TIP3    H137419   5.868   0.179  20.082  1.5834  1.7043 -0.7681
 4408TIP3    H237420   5.802   0.303  20.140 -0.6815 -0.3188  1.1830
 4409TIP3   OH237421   3.276   3.268  19.569  0.3438  0.0475 -0.0945
 4409TIP3    H137422   3.195   3.289  19.523 -0.1239 -1.1065  0.1842
 4409TIP3    H237423   3.278   3.330  19.643 -0.8935 -0.6877  0.5828
 4410TIP3   OH237424   0.837   4.604  19.304 -0.4163  0.4260  0.1034
 4410TIP3    H137425   0.868   4.655  19.379 -0.0721  1.1370 -0.5086
 4410TIP3    H237426   0.824   4.516  19.339  3.3741 -0.2741  0.1929
 4411TIP3   OH237427   4.026   4.747  18.796 -0.0798  0.1633  0.2092
 4411TIP3    H137428   4.023   4.795  18.879  1.9557  0.5751  0.0943
 4411TIP3    H237429   4.077   4.668  18.816 -1.7592 -1.0425 -0.0702
 4412TIP3   OH237430   4.622   3.851  18.447 -0.3037  0.0770  0.6484
 4412TIP3    H137431   4.575   3.812  18.373  0.2515 -0.2982  0.4848
 4412TIP3    H237432   4.715   3.843  18.423 -0.0138 -1.4483  2.0399
 4413TIP3   OH237433   6.432   6.743  16.830 -0.4533  0.7245 -0.2876
 4413TIP3    H137434   6.343   6.770  16.807 -0.3506  2.5452  1.1739
 4413TIP3    H237435   6.430   6.735  16.926  0.6846 -0.3047 -0.3357
 4414TIP3   OH237436   3.407   4.072  19.602  0.3750 -0.2922 -0.5052
 4414TIP3    H137437   3.497   4.097  19.583  0.7088  0.1209  1.4211
 4414TIP3    H237438   3.414   4.004  19.669 -0.7406  0.1665  0.1173
 4415TIP3   OH237439   2.369   1.578  18.925 -0.1717 -0.0677 -0.0712
 4415TIP3    H137440   2.331   1.666  18.923 -1.1994 -0.5133 -0.3303
 4415TIP3    H237441   2.317   1.531  18.990 -0.4903 -0.8671 -0.8851
 4416TIP3   OH237442   3.942   5.072  18.902  0.4951  0.2998 -0.4714
 4416TIP3    H137443   3.916   5.158  18.936  1.9913 -0.0622  1.8137
 4416TIP3    H237444   3.881   5.056  18.830 -1.1563  2.3626  0.3338
 4417TIP3   OH237445   3.753   5.849  19.918 -0.3037 -0.6788  0.0186
 4417TIP3    H137446   3.800   5.846  19.835 -0.2534  0.2271  0.0125
 4417TIP3    H237447   3.704   5.930  19.916 -1.0820 -1.1275  0.4659
 4418TIP3   OH237448   5.795   0.551  18.381 -0.0282  0.1756  0.2113
 4418TIP3    H137449   5.859   0.617  18.354 -0.2392  0.7409  1.0822
 4418TIP3    H237450   5.848   0.475  18.405  0.2806  0.4060  0.2689
 4419TIP3   OH237451   5.705   4.406  18.844  0.3079 -0.5228  0.4905
 4419TIP3    H137452   5.743   4.471  18.903 -0.4767  0.1835  0.2252
 4419TIP3    H237453   5.623   4.381  18.885  0.6689 -1.4689  0.6635
 4420TIP3   OH237454   3.763   4.216  18.030 -0.6066 -0.6894  0.2345
 4420TIP3    H137455   3.752   4.258  18.115  1.3229 -2.0068  1.2113
 4420TIP3    H237456   3.834   4.265  17.988 -1.5254 -0.0688 -0.6401
 4421TIP3   OH237457   0.515   2.828  19.796 -0.4147  1.0553 -0.6830
 4421TIP3    H137458   0.467   2.782  19.865  0.9597  0.9682  0.2630
 4421TIP3    H237459   0.546   2.759  19.738 -0.8221  1.0532 -0.9030
 4422TIP3   OH237460   0.472   4.708  17.328  0.7650 -0.4427 -0.1952
 4422TIP3    H137461   0.401   4.748  17.379  1.1922 -0.4418  0.3995
 4422TIP3    H237462   0.437   4.624  17.300 -0.6474  0.8253 -2.5582
 4423TIP3   OH237463   0.873   6.453  18.659  0.0397  0.6612  0.2999
 4423TIP3    H137464   0.927   6.379  18.633 -1.3399 -0.2927 -0.0023
 4423TIP3    H237465   0.884   6.460  18.753 -3.4348 -3.1691  1.3033
 4424TIP3   OH237466   3.977   6.003  17.485  0.4702 -0.1595  0.4601
 4424TIP3    H137467   4.068   6.015  17.458  0.0455 -1.3699 -1.6968
 4424TIP3    H237468   3.978   5.924  17.539  0.9241  0.8609  2.0359
 4425TIP3   OH237469   6.301   5.139  17.773  0.0318  0.2186  0.6179
 4425TIP3    H137470   6.304   5.218  17.827  1.1111  0.5071  0.1550
 4425TIP3    H237471   6.355   5.076  17.820  2.6874  1.0917 -1.0168
 4426TIP3   OH237472   6.390   6.572  17.443 -0.2702 -0.3072  0.4782
 4426TIP3    H137473   6.403   6.477  17.434 -1.9253 -0.5422  0.1805
 4426TIP3    H237474   6.473   6.611  17.418 -0.2950 -1.5798 -1.8035
 4427TIP3   OH237475   0.724   6.687  20.008 -0.2694 -0.0170 -0.5771
 4427TIP3    H137476   0.662   6.756  20.030 -1.3732 -1.4902  1.2908
 4427TIP3    H237477   0.774   6.674  20.089  0.8314 -0.5165 -1.3098
 4428TIP3   OH237478   0.950   6.041  19.904 -0.2007  0.3861  0.0419
 4428TIP3    H137479   0.907   5.965  19.864 -0.5472  1.3322 -1.4767
 4428TIP3    H237480   0.968   6.099  19.830  1.6135  1.0427  0.9523
 4429TIP3   OH237481   5.914   3.785  18.210  0.8346  0.8779 -0.1763
 4429TIP3    H137482   5.898   3.757  18.120  0.5963 -1.2246  0.4755
 4429TIP3    H237483   5.827   3.800  18.246  0.7739 -0.5768  0.3557
 4430TIP3   OH237484   2.301   5.706  19.720  0.3732 -0.2214 -0.3045
 4430TIP3    H137485   2.330   5.638  19.660 -0.1778 -0.0230 -0.8071
 4430TIP3    H237486   2.362   5.701  19.793  2.8419  1.3351 -2.0781
 4431TIP3   OH237487   5.233   4.631  17.201 -0.3090 -0.4825 -0.1334
 4431TIP3    H137488   5.143   4.632  17.170 -0.5306 -1.5448  0.4453
 4431TIP3    H237489   5.241   4.550  17.251  0.8427 -0.1892  0.1958
 4432TIP3   OH237490   6.083   5.876  20.255  0.2786  0.0064  0.7049
 4432TIP3    H137491   6.118   5.888  20.167  0.5838  0.5875  0.9004
 4432TIP3    H237492   6.113   5.789  20.281  0.9868  0.2064  0.5880
 4433TIP3   OH237493   1.085   5.322  17.328  0.1183  0.1474 -0.0248
 4433TIP3    H137494   1.024   5.291  17.396 -0.2919  1.2009  0.1089
 4433TIP3    H237495   1.094   5.247  17.269 -2.2895  0.3188 -0.7372
 4434TIP3   OH237496   2.850   6.692  18.666 -0.4965  0.3120 -0.4021
 4434TIP3    H137497   2.944   6.698  18.679 -0.3778  1.6749 -1.6172
 4434TIP3    H237498   2.812   6.729  18.746 -0.0112 -0.0031 -0.0224
 4435TIP3   OH237499   0.951   4.776  19.138 -0.0516 -0.0830 -0.0347
 4435TIP3    H137500   1.042   4.752  19.118  0.3060  0.8218  0.4592
 4435TIP3    H237501   0.919   4.703  19.191  0.6749 -0.0022  0.5362
 4436TIP3   OH237502   4.305   2.211  17.541 -0.1478 -0.0056  0.3933
 4436TIP3    H137503   4.253   2.160  17.604  1.8472 -0.8031  1.4985
 4436TIP3    H237504   4.299   2.162  17.459 -2.1210  0.6029  0.1322
 4437TIP3   OH237505   5.204   2.837  17.154 -0.3931 -0.1061 -0.5376
 4437TIP3    H137506   5.232   2.914  17.105  0.7761 -0.4600 -0.4479
 4437TIP3    H237507   5.223   2.858  17.246 -0.3355 -0.3917 -0.4834
 4438TIP3   OH237508   0.981   0.344  16.760 -0.1615  0.2243 -0.5233
 4438TIP3    H137509   1.047   0.413  16.769 -1.6492  1.4625  1.5071
 4438TIP3    H237510   1.001   0.303  16.675  2.0257  1.7720 -0.8274
 4439TIP3   OH237511   4.821   5.694  19.427  0.1450 -0.4974 -0.0068
 4439TIP3    H137512   4.882   5.713  19.356 -2.2783  0.7451 -1.9291
 4439TIP3    H237513   4.873   5.646  19.491  2.9514 -0.0052 -1.7266
 4440TIP3   OH237514   5.507   5.427  20.020 -0.2618  0.6989 -0.3930
 4440TIP3    H137515   5.555   5.498  20.062 -0.3163 -0.5477  1.9224
 4440TIP3    H237516   5.420   5.430  20.058 -0.1168 -0.8881  0.1454
 4441TIP3   OH237517   5.950   6.721  19.657  0.2219 -0.3545  0.0485
 4441TIP3    H137518   5.961   6.647  19.597 -0.7783  0.6943 -1.5057
 4441TIP3    H237519   5.886   6.691  19.722 -1.1870 -0.4466 -1.3417
 4442TIP3   OH237520   1.837   4.352  19.895 -0.0336  0.7566 -0.3792
 4442TIP3    H137521   1.828   4.445  19.872  1.3867  1.0128  0.0329
 4442TIP3    H237522   1.910   4.350  19.956  0.0263 -0.6646 -0.4849
 4443TIP3   OH237523   4.903   3.393  19.570  0.1841  0.1010 -0.2451
 4443TIP3    H137524   4.942   3.400  19.483  1.7144 -0.0209  0.3822
 4443TIP3    H237525   4.809   3.397  19.556  0.4346  1.3131 -1.7837
 4444TIP3   OH237526   4.990   0.648  17.627  0.1866 -0.1755  0.8175
 4444TIP3    H137527   5.033   0.567  17.655  0.3447 -0.0784  0.8587
 4444TIP3    H237528   4.898   0.624  17.619  0.2939 -0.4655  0.4215
 4445TIP3   OH237529   1.613   2.824  17.010  0.2287  0.3911  0.3999
 4445TIP3    H137530   1.524   2.845  16.985  0.7433  1.9852 -0.2322
 4445TIP3    H237531   1.642   2.759  16.945 -0.4366 -0.1134  0.5943
 4446TIP3   OH237532   6.681   4.356  17.956 -0.3604  0.2071  0.5021
 4446TIP3    H137533   6.749   4.300  17.994 -1.4471 -0.2302  1.9045
 4446TIP3    H237534   6.675   4.431  18.017 -0.3978  0.7796 -0.1923
 4447TIP3   OH237535   0.387   2.598  17.297 -0.1669 -0.4318  0.0503
 4447TIP3    H137536   0.310   2.600  17.241 -0.8231  0.4641  0.9535
 4447TIP3    H237537   0.366   2.531  17.363  1.0634 -2.3007 -1.3581
 4448TIP3   OH237538   6.424   0.123  17.611  0.1280 -0.2189  0.0563
 4448TIP3    H137539   6.422   0.039  17.565 -0.2984 -0.8540  1.1938
 4448TIP3    H237540   6.335   0.134  17.645  0.6041 -0.1096  1.3049
 4449TIP3   OH237541   4.886   6.287  18.520  0.2644  0.3394  0.3024
 4449TIP3    H137542   4.863   6.364  18.572  1.6802  0.8544  0.2032
 4449TIP3    H237543   4.973   6.262  18.551  0.8662  0.2720 -1.3513
 4450TIP3   OH237544   0.980   6.622  18.980 -0.3056  0.4032  0.4186
 4450TIP3    H137545   0.989   6.697  18.921 -0.6750 -1.0191 -1.5320
 4450TIP3    H237546   1.066   6.581  18.982 -0.7727 -0.6625 -0.7098
 4451TIP3   OH237547   3.759   5.367  17.735  0.2825  0.1575 -0.3488
 4451TIP3    H137548   3.669   5.335  17.728  1.3278 -2.8871 -1.6079
 4451TIP3    H237549   3.768   5.397  17.825 -1.9783  0.6473 -0.2383
 4452TIP3   OH237550   5.974   0.622  19.322 -0.6315  0.0696 -0.0821
 4452TIP3    H137551   6.023   0.627  19.240  0.5926  2.3393  0.7038
 4452TIP3    H237552   5.907   0.690  19.314  0.5044  1.4501  1.3406
 4453TIP3   OH237553   4.808   2.529  17.970  0.5515 -0.1326  0.0431
 4453TIP3    H137554   4.889   2.500  17.928 -0.1647  1.3465 -2.5932
 4453TIP3    H237555   4.741   2.470  17.936  0.3715 -0.8505  1.5880
 4454TIP3   OH237556   3.178   5.436  16.733  0.1730 -0.2398 -0.1483
 4454TIP3    H137557   3.136   5.356  16.763 -0.6933 -0.6133 -2.2304
 4454TIP3    H237558   3.267   5.432  16.770  0.0999 -2.0736 -0.1130
 4455TIP3   OH237559   5.901   3.167  18.441 -0.0209 -0.2834  0.5558
 4455TIP3    H137560   5.896   3.102  18.372  0.0941 -0.3500  0.6089
 4455TIP3    H237561   5.994   3.190  18.446 -0.0587 -0.1199  0.5414
 4456TIP3   OH237562   4.611   4.383  18.399  0.3607  0.3128 -0.8679
 4456TIP3    H137563   4.531   4.349  18.440  1.0526  0.2283  0.4850
 4456TIP3    H237564   4.648   4.308  18.353  0.0231  0.1778 -0.9232
 4457TIP3   OH237565   1.886   1.818  17.618  0.1240  0.3116 -1.1073
 4457TIP3    H137566   1.888   1.877  17.693 -0.1191  0.6140 -1.3381
 4457TIP3    H237567   1.966   1.837  17.569  0.6299 -0.3658 -0.5615
 4458TIP3   OH237568   1.159   6.151  18.093 -0.5537  0.3630  0.1187
 4458TIP3    H137569   1.195   6.139  18.005 -1.4842  0.3219 -0.2658
 4458TIP3    H237570   1.190   6.074  18.142 -0.5685  0.0553 -0.3484
 4459TIP3   OH237571   5.388   3.948  19.161 -0.1674  0.2530  0.1768
 4459TIP3    H137572   5.454   4.003  19.203  0.1783 -0.4988  0.6393
 4459TIP3    H237573   5.372   3.990  19.076 -0.9925  1.8770  1.1001
 4460TIP3   OH237574   0.026   5.937  18.455  0.2424 -0.5656 -0.1714
 4460TIP3    H137575   0.102   5.888  18.425  1.3850  0.6251  0.6976
 4460TIP3    H237576   0.041   5.952  18.548  0.9085  2.9819 -0.7150
 4461TIP3   OH237577   6.321   3.937  17.262 -0.3420 -0.0480  0.5372
 4461TIP3    H137578   6.336   3.961  17.171  1.8298 -0.9664  0.6025
 4461TIP3    H237579   6.376   3.996  17.312 -2.0613  0.9379  1.3732
 4462TIP3   OH237580   0.361   0.376  19.921  0.2319  0.1680 -0.3818
 4462TIP3    H137581   0.400   0.296  19.885 -1.8358 -0.7254 -0.7690
 4462TIP3    H237582   0.367   0.365  20.016  0.1138 -0.3720 -0.4344
 4463TIP3   OH237583   5.795   1.038  17.796 -0.3594 -0.3780 -0.7813
 4463TIP3    H137584   5.800   1.028  17.891 -1.6080 -0.2659 -0.6906
 4463TIP3    H237585   5.726   0.978  17.769  1.1577 -1.7142 -1.8568
 4464TIP3   OH237586   6.649   5.458  16.988  0.0476  0.0084 -0.1867
 4464TIP3    H137587   6.715   5.448  16.919  0.3200  0.4629  0.0085
 4464TIP3    H237588   6.580   5.395  16.964  0.6771 -0.6807 -0.2426
 4465TIP3   OH237589   5.937   1.935  20.066 -0.2635  0.0697  0.0400
 4465TIP3    H137590   6.006   1.965  20.007 -0.7356 -0.8952 -1.0658
 4465TIP3    H237591   5.957   1.975  20.150  1.1404  0.5011 -0.4736
 4466TIP3   OH237592   4.731   5.322  19.734 -0.3371 -0.2657 -0.4742
 4466TIP3    H137593   4.636   5.320  19.748 -0.3853 -3.0942 -0.6300
 4466TIP3    H237594   4.742   5.292  19.643  0.6863  0.6171 -0.6540
 4467TIP3   OH237595   6.556   3.978  20.386 -1.0338 -0.3383 -0.2388
 4467TIP3    H137596   6.536   3.884  20.392 -1.3387 -0.2007  1.1944
 4467TIP3    H237597   6.569   4.005  20.476 -2.5009  1.3429 -0.4791
 4468TIP3   OH237598   3.729   2.895  17.899  0.1943  0.1831 -0.1224
 4468TIP3    H137599   3.741   2.955  17.972  0.6010  1.0363 -0.8779
 4468TIP3    H237600   3.814   2.850  17.892  0.5130  0.8646 -0.7330
 4469TIP3   OH237601   1.973   0.487  18.056 -0.1965 -0.2157 -0.6508
 4469TIP3    H137602   2.035   0.527  18.116 -0.2061 -0.6160 -0.3720
 4469TIP3    H237603   1.918   0.560  18.027 -0.9186 -0.1915  0.7053
 4470TIP3   OH237604   2.814   4.540  19.081 -0.1669  0.0947  0.3501
 4470TIP3    H137605   2.793   4.632  19.098  0.2003  0.1230  0.6608
 4470TIP3    H237606   2.870   4.542  19.003  0.4768  0.2040  0.8070
 4471TIP3   OH237607   4.700   0.799  18.810 -0.0038  0.2900  0.1705
 4471TIP3    H137608   4.661   0.763  18.890 -2.0923  0.3879 -0.7237
 4471TIP3    H237609   4.643   0.872  18.787  2.2329  2.1129  0.1193
 4472TIP3   OH237610   2.828   4.323  17.727  0.4367  0.4558 -0.3600
 4472TIP3    H137611   2.787   4.287  17.806 -0.4889 -0.1800 -1.1078
 4472TIP3    H237612   2.842   4.415  17.746 -0.7825  0.5472  0.1555
 4473TIP3   OH237613   0.389   4.354  18.706 -0.4249  0.0189 -0.2749
 4473TIP3    H137614   0.470   4.328  18.751 -0.0035 -0.7352 -1.4393
 4473TIP3    H237615   0.418   4.407  18.632 -0.9577 -0.6135 -0.9521
 4474TIP3   OH237616   0.500   2.810  17.150 -0.1049 -0.0168 -0.0630
 4474TIP3    H137617   0.468   2.754  17.220 -0.8542  0.8556  0.3189
 4474TIP3    H237618   0.423   2.825  17.094 -0.1407  1.2616  0.2922
 4475TIP3   OH237619   0.923   2.810  20.112 -0.3795 -0.2917 -0.2458
 4475TIP3    H137620   0.985   2.738  20.099 -0.8238 -0.3383 -2.5167
 4475TIP3    H237621   0.844   2.782  20.068 -1.6626  0.3069  1.5462
 4476TIP3   OH237622   6.338   2.086  18.475  0.1447 -0.0288  0.5920
 4476TIP3    H137623   6.431   2.077  18.454  0.6652 -0.1155  2.6707
 4476TIP3    H237624   6.323   2.022  18.545 -1.2844  0.5563  0.8639
 4477TIP3   OH237625   6.389   5.741  18.127  0.1778 -0.3578 -0.1600
 4477TIP3    H137626   6.461   5.778  18.178  0.4790  1.7967 -2.0286
 4477TIP3    H237627   6.420   5.743  18.036 -2.2421  0.7652 -1.0517
 4478TIP3   OH237628   2.713   5.554  17.649  0.3103  0.3303 -0.5330
 4478TIP3    H137629   2.638   5.495  17.633  0.8923  0.1052 -2.8037
 4478TIP3    H237630   2.736   5.586  17.562  2.4931  0.8575  0.1941
 4479TIP3   OH237631   0.935   3.648  16.021 -0.1823 -0.4596 -0.0692
 4479TIP3    H137632   1.016   3.683  15.983 -0.1832 -0.1041  0.2573
 4479TIP3    H237633   0.879   3.724  16.033 -0.9670 -0.8187 -1.2280
 4480TIP3   OH237634   4.323   0.886  17.924  0.5278  0.0926  0.2180
 4480TIP3    H137635   4.264   0.840  17.983 -1.0224 -0.0656 -1.3972
 4480TIP3    H237636   4.366   0.817  17.874  0.0069  0.3009 -0.5261
 4481TIP3   OH237637   1.814   0.348  18.319 -0.2225  0.6676 -0.0938
 4481TIP3    H137638   1.815   0.418  18.385  1.5346  1.1357 -0.5654
 4481TIP3    H237639   1.821   0.267  18.369 -0.3777  0.9374  0.3655
 4482TIP3   OH237640   1.405   3.592  19.870 -0.1022  0.4889  0.2061
 4482TIP3    H137641   1.393   3.631  19.783 -2.2930  0.4776  0.4614
 4482TIP3    H237642   1.466   3.520  19.855  1.0607  1.6554 -0.9589
 4483TIP3   OH237643   1.315   4.673  20.179 -0.2090  0.4094 -0.1882
 4483TIP3    H137644   1.369   4.749  20.158  0.1016  0.5372  1.0057
 4483TIP3    H237645   1.240   4.710  20.228  0.9375 -0.2023  2.1665
 4484TIP3   OH237646   6.621   5.006  18.828  0.0236 -0.5976 -0.0108
 4484TIP3    H137647   6.709   5.045  18.833 -0.2469  0.0091  0.1503
 4484TIP3    H237648   6.623   4.934  18.891  0.0743  0.0950  0.8028
 4485TIP3   OH237649   4.584   4.693  19.226 -0.4003 -0.0518 -0.4049
 4485TIP3    H137650   4.615   4.784  19.218  1.3932 -0.4738  0.9009
 4485TIP3    H237651   4.617   4.650  19.148  1.6317 -0.2585  0.4968
 4486TIP3   OH237652   1.924   6.044  19.228  0.3000 -0.2650 -0.1433
 4486TIP3    H137653   1.964   6.040  19.141  0.3119  0.5099 -0.1812
 4486TIP3    H237654   1.997   6.041  19.289  0.3560  0.1469 -0.1874
 4487TIP3   OH237655   3.297   5.166  17.728  0.0050  0.6966  0.0160
 4487TIP3    H137656   3.229   5.158  17.662 -0.8228 -0.9480  0.9789
 4487TIP3    H237657   3.265   5.233  17.788 -1.1038 -0.4342  0.7580
 4488TIP3   OH237658   6.000   4.885  19.236 -0.3722 -0.1254 -0.2554
 4488TIP3    H137659   6.037   4.813  19.286  1.3587  1.9950  1.7507
 4488TIP3    H237660   6.046   4.884  19.153  1.5300  0.1400  0.7446
 4489TIP3   OH237661   2.431   4.605  17.058 -0.1924  0.2174  0.3109
 4489TIP3    H137662   2.479   4.609  17.140 -3.5407 -1.4527  2.6057
 4489TIP3    H237663   2.489   4.558  16.998  1.4362 -0.7254  2.4966
 4490TIP3   OH237664   0.416   4.722  18.541  0.0951  0.3777 -0.3476
 4490TIP3    H137665   0.345   4.677  18.496  0.0848  0.0475 -0.0086
 4490TIP3    H237666   0.393   4.717  18.634  1.4414 -1.3673 -0.0429
 4491TIP3   OH237667   5.037   0.190  17.872  0.4218 -0.5298  0.5327
 4491TIP3    H137668   5.048   0.097  17.853  1.4399 -0.4827  0.8037
 4491TIP3    H237669   5.052   0.234  17.788 -0.5519 -0.6317  0.2999
 4492TIP3   OH237670   2.133   3.457  17.676 -0.4457  0.1089  0.3315
 4492TIP3    H137671   2.117   3.551  17.665 -1.8691  0.0015  1.2225
 4492TIP3    H237672   2.210   3.440  17.622  0.9750  2.1380  1.5767
 4493TIP3   OH237673   3.467   1.406  19.630  0.0515  0.8875  0.2349
 4493TIP3    H137674   3.532   1.337  19.639 -1.0270  0.0152  1.7105
 4493TIP3    H237675   3.392   1.364  19.589  0.1169  1.7054 -0.7689
 4494TIP3   OH237676   3.542   0.050  17.279 -1.1612  0.1562  1.0246
 4494TIP3    H137677   3.555   0.145  17.273 -2.5444  0.3681  1.0340
 4494TIP3    H237678   3.562   0.028  17.370 -0.4047  0.3535  0.9156
 4495TIP3   OH237679   0.993   5.957  16.862  0.0234 -0.0521 -0.4135
 4495TIP3    H137680   0.937   5.938  16.938 -0.4339  1.4524 -0.3383
 4495TIP3    H237681   1.029   6.044  16.880 -0.3673  0.4878 -2.0586
 4496TIP3   OH237682   0.016   2.791  19.590 -0.2731  0.0285 -0.5783
 4496TIP3    H137683   0.042   2.711  19.637 -1.2218  0.4527  0.7207
 4496TIP3    H237684   0.100   2.831  19.564  0.3153 -0.1804  0.8654
 4497TIP3   OH237685   1.753   1.357  18.828 -0.4582  0.2383 -0.0669
 4497TIP3    H137686   1.686   1.396  18.772 -1.0025  0.6954  0.8602
 4497TIP3    H237687   1.777   1.427  18.889  1.1988  0.2272 -0.6384
 4498TIP3   OH237688   0.851   1.762  17.296 -0.2812 -0.1771  0.3973
 4498TIP3    H137689   0.757   1.779  17.309  0.1083 -0.0401  4.4774
 4498TIP3    H237690   0.855   1.671  17.268 -1.6383 -0.3690  0.7105
 4499TIP3   OH237691   2.853   6.329  19.251 -0.0980  0.0887  0.6135
 4499TIP3    H137692   2.832   6.408  19.201  0.1836 -0.2036  0.0188
 4499TIP3    H237693   2.769   6.284  19.262  0.2246 -1.5760 -2.6085
 4500TIP3   OH237694   2.401   1.304  19.759  0.7048  0.5492  0.6878
 4500TIP3    H137695   2.464   1.367  19.796  1.2442  0.2402  0.3075
 4500TIP3    H237696   2.413   1.310  19.665 -1.1678  1.8454  0.4890
 4501TIP3   OH237697   6.643   1.378  20.365  0.3398  0.1927  0.1127
 4501TIP3    H137698   6.685   1.369  20.279  2.5812 -0.9902  1.2286
 4501TIP3    H237699   6.697   1.324  20.423 -1.6717  0.1869  2.0936
 4502TIP3   OH237700   2.221   5.251  18.423  0.3753 -0.0342  0.0135
 4502TIP3    H137701   2.183   5.325  18.376  1.1921 -0.5325 -1.4983
 4502TIP3    H237702   2.160   5.235  18.495 -0.1330  1.7059  0.0221
 4503TIP3   OH237703   0.385   1.836  19.766  0.5289 -0.2092 -0.1602
 4503TIP3    H137704   0.467   1.851  19.720  0.7833 -1.2568 -0.0747
 4503TIP3    H237705   0.411   1.815  19.856  0.0312  2.1475  0.6133
 4504TIP3   OH237706   6.354   5.458  17.626 -0.3083 -0.3620  0.2175
 4504TIP3    H137707   6.406   5.537  17.643 -0.2827 -0.1244 -0.8787
 4504TIP3    H237708   6.417   5.394  17.594 -0.3288 -0.8491  1.1156
 4505TIP3   OH237709   1.132   3.917  17.361 -0.0510 -0.2587  0.0497
 4505TIP3    H137710   1.170   3.957  17.282 -1.0811 -0.6467 -0.6534
 4505TIP3    H237711   1.089   3.838  17.329  0.6230 -1.1147  1.2091
 4506TIP3   OH237712   4.895   3.774  17.746  0.4489  0.1984  0.1333
 4506TIP3    H137713   4.884   3.708  17.814  0.8306  1.0542  1.0355
 4506TIP3    H237714   4.810   3.817  17.739 -0.1653 -1.1055 -1.2739
 4507TIP3   OH237715   0.830   3.653  19.824 -0.2471  0.6488  0.0063
 4507TIP3    H137716   0.814   3.722  19.760  1.1783  1.2188  0.2243
 4507TIP3    H237717   0.926   3.647  19.830 -0.3368 -0.7982  0.5856
 4508TIP3   OH237718   3.311   5.035  17.103  0.4755  0.0124 -0.1149
 4508TIP3    H137719   3.331   4.946  17.074  0.0396 -0.2554  0.3920
 4508TIP3    H237720   3.319   5.032  17.198  0.0446  0.4073 -0.0595
 4509TIP3   OH237721   5.331   3.209  18.740  0.1215  0.1981 -0.1161
 4509TIP3    H137722   5.261   3.172  18.794  1.4553 -0.2733  1.3622
 4509TIP3    H237723   5.285   3.255  18.670 -1.6791  0.6213  1.2646
 4510TIP3   OH237724   0.748   1.245  18.975  0.2959 -0.1187 -0.2965
 4510TIP3    H137725   0.800   1.243  19.055 -1.1617  0.3960  0.6944
 4510TIP3    H237726   0.665   1.284  19.001 -0.4771 -0.6018 -1.9129
 4511TIP3   OH237727   3.229   5.181  19.035  0.1250 -0.6362 -0.3157
 4511TIP3    H137728   3.178   5.248  18.989 -1.0367  0.7542  2.6736
 4511TIP3    H237729   3.317   5.218  19.041  0.2173 -0.7148 -1.1831
 4512TIP3   OH237730   2.583   1.452  19.321 -0.0860  0.2359  0.3829
 4512TIP3    H137731   2.566   1.379  19.260 -0.7942 -0.0981  0.9640
 4512TIP3    H237732   2.518   1.440  19.391 -0.9180  2.0186 -0.0301
 4513TIP3   OH237733   3.671   0.381  19.117 -0.1228  0.6647 -0.5049
 4513TIP3    H137734   3.738   0.331  19.070  1.3786  1.5351  0.6170
 4513TIP3    H237735   3.656   0.459  19.064  0.2035  0.7584 -0.4598
 4514TIP3   OH237736   2.001   0.014  19.391 -0.2983  0.3731 -0.7295
 4514TIP3    H137737   1.991  -0.036  19.473  1.7593 -1.1016 -1.2813
 4514TIP3    H237738   2.045   0.094  19.418  3.2184 -1.3873 -0.5664
 4515TIP3   OH237739   0.090   1.907  18.639  0.3495 -0.1397 -0.1299
 4515TIP3    H137740   0.166   1.897  18.581 -0.4032 -2.9122 -0.7959
 4515TIP3    H237741   0.017   1.872  18.588 -1.1001  0.9240  1.1261
 4516TIP3   OH237742   3.202   1.666  19.028  0.1558  0.3546 -0.1003
 4516TIP3    H137743   3.184   1.604  19.098  1.5334 -1.1680 -1.0380
 4516TIP3    H237744   3.120   1.674  18.981  0.0346 -1.0211 -0.1512
 4517TIP3   OH237745   0.273   5.331  17.304  0.1685  1.1489 -0.1037
 4517TIP3    H137746   0.334   5.258  17.305  0.0388  1.0456  0.6496
 4517TIP3    H237747   0.329   5.409  17.300  0.3023  1.0282 -2.7675
 4518TIP3   OH237748   2.630   3.712  20.073 -0.1488 -0.0675  0.4129
 4518TIP3    H137749   2.601   3.631  20.032 -0.2510 -0.2253  0.7994
 4518TIP3    H237750   2.637   3.692  20.166  2.6130 -0.5003  0.2158
 4519TIP3   OH237751   1.956   5.310  18.546  0.3429 -0.3414  0.5972
 4519TIP3    H137752   1.929   5.252  18.475 -0.1956  0.2234  0.3347
 4519TIP3    H237753   1.930   5.398  18.517 -1.3967 -0.2679  2.2120
 4520TIP3   OH237754   1.266   6.582  19.023 -0.1800  0.4722  0.1916
 4520TIP3    H137755   1.313   6.599  19.104  1.3767  0.4100 -0.6479
 4520TIP3    H237756   1.248   6.488  19.024  0.7965  0.2701  0.0045
 4521TIP3   OH237757   2.220   5.493  20.040 -0.1567  0.0569  0.2570
 4521TIP3    H137758   2.203   5.586  20.024 -0.3673 -0.1952 -1.1342
 4521TIP3    H237759   2.295   5.492  20.100  1.0258  1.1208 -1.1386
 4522TIP3   OH237760   4.510   1.700  19.637 -0.2269  0.2689  0.0748
 4522TIP3    H137761   4.428   1.724  19.681  0.0469  0.2680  0.5930
 4522TIP3    H237762   4.483   1.641  19.567 -0.6797  0.3068  0.2132
 4523TIP3   OH237763   6.582   4.572  17.337 -0.2128  0.0833  0.1070
 4523TIP3    H137764   6.488   4.584  17.323  0.0630  1.4821 -0.7480
 4523TIP3    H237765   6.620   4.582  17.251  0.7728 -0.0998  0.5114
 4524TIP3   OH237766   4.408   0.664  17.675  0.8867  0.1522  0.1828
 4524TIP3    H137767   4.426   0.604  17.747 -2.7427 -0.6215  0.6724
 4524TIP3    H237768   4.404   0.608  17.597 -0.5646  0.0023  0.3309
 4525TIP3   OH237769   4.810   5.751  17.471  0.0402  0.4630 -0.4610
 4525TIP3    H137770   4.728   5.786  17.437  0.6925  1.2090 -1.2739
 4525TIP3    H237771   4.877   5.816  17.448  1.1873 -1.0269 -1.5194
 4526TIP3   OH237772   5.841   2.334  19.071  0.5381 -0.2108 -0.1812
 4526TIP3    H137773   5.812   2.423  19.092 -0.2915  0.0712 -2.2882
 4526TIP3    H237774   5.774   2.278  19.110  0.3065  0.1475 -0.0528
 4527TIP3   OH237775   6.672   4.948  16.820  0.5837 -0.2318  0.2117
 4527TIP3    H137776   6.762   4.962  16.848  0.3390  2.1581 -0.0210
 4527TIP3    H237777   6.637   5.036  16.808 -1.1380 -1.1190 -1.7626
 4528TIP3   OH237778   4.259   4.339  19.666 -0.2385  0.2857  0.0969
 4528TIP3    H137779   4.259   4.435  19.678 -0.1474  0.3790 -0.6283
 4528TIP3    H237780   4.344   4.320  19.626 -0.6124  0.0053 -0.5718
 4529TIP3   OH237781   3.141   4.110  17.413  0.0961 -0.0542  0.1964
 4529TIP3    H137782   3.050   4.086  17.397 -0.3471  1.3306  0.4918
 4529TIP3    H237783   3.146   4.203  17.391  1.1376  0.1991  1.3597
 4530TIP3   OH237784   5.980   1.871  18.779  0.3297  0.1666 -0.5933
 4530TIP3    H137785   6.070   1.846  18.797  0.7083  1.0834 -1.1511
 4530TIP3    H237786   5.964   1.841  18.689 -0.4698 -1.4360  0.0400
 4531TIP3   OH237787   5.700   5.479  19.538  0.0770 -0.1476 -0.1312
 4531TIP3    H137788   5.770   5.441  19.484 -0.2966  1.5260 -1.8813
 4531TIP3    H237789   5.621   5.433  19.509 -0.1516  0.8785 -1.1942
 4532TIP3   OH237790   6.437   3.156  16.714  0.7251  0.3352  0.4763
 4532TIP3    H137791   6.461   3.074  16.757 -0.5623 -0.3947 -0.1201
 4532TIP3    H237792   6.351   3.138  16.676  1.5119  1.1221 -1.8632
 4533TIP3   OH237793   5.128   4.068  19.397 -0.5338  0.3042 -0.4706
 4533TIP3    H137794   5.156   4.142  19.450  1.1600  0.5439 -1.6149
 4533TIP3    H237795   5.163   4.086  19.310  0.4512 -2.0816 -0.6626
 4534TIP3   OH237796   3.270   6.390  18.593 -0.2625  0.0659 -0.0347
 4534TIP3    H137797   3.319   6.412  18.514 -1.4608 -0.3208 -0.8915
 4534TIP3    H237798   3.182   6.371  18.563 -0.3123 -1.8598  1.1645
 4535TIP3   OH237799   2.175   4.198  16.821  0.4288 -0.3923 -0.0236
 4535TIP3    H137800   2.249   4.207  16.881 -0.0197  1.1590  0.3483
 4535TIP3    H237801   2.214   4.206  16.734  0.8143 -0.4389  0.1443
 4536TIP3   OH237802   0.593   1.013  18.941  0.1005 -0.3596  0.1462
 4536TIP3    H137803   0.643   0.955  18.883 -0.5130 -1.4462  0.6647
 4536TIP3    H237804   0.657   1.079  18.969  0.4431  0.1181 -1.6291
 4537TIP3   OH237805   3.868   3.952  18.792 -0.4912 -0.4223  0.4733
 4537TIP3    H137806   3.774   3.958  18.804 -0.4229  2.7021  0.1941
 4537TIP3    H237807   3.905   3.967  18.880 -0.2682  0.9685  0.1665
 4538TIP3   OH237808   3.312   2.748  17.331  0.8417  0.0947  0.0748
 4538TIP3    H137809   3.402   2.766  17.358  0.5924  0.9482  0.3582
 4538TIP3    H237810   3.285   2.826  17.282  0.3299 -0.2474 -0.2028
 4539TIP3   OH237811   2.426   2.611  19.012  0.2944 -0.0822 -0.2233
 4539TIP3    H137812   2.395   2.575  19.096 -0.9502 -2.0748 -1.4585
 4539TIP3    H237813   2.459   2.536  18.964  1.2016  1.0598 -1.4721
 4540TIP3   OH237814   4.867   2.512  19.775  0.1751  0.9084 -0.2765
 4540TIP3    H137815   4.810   2.518  19.851  0.8457  0.0689  0.3107
 4540TIP3    H237816   4.943   2.462  19.805  0.3142  0.2935 -1.5688
 4541TIP3   OH237817   4.931   3.273  18.623 -0.3495  0.3324 -0.2511
 4541TIP3    H137818   5.004   3.270  18.561  0.0437  0.5476  0.1919
 4541TIP3    H237819   4.860   3.315  18.575  0.3138  1.5599 -0.2080
 4542TIP3   OH237820   0.880   4.542  16.489  0.2346 -0.0575 -0.1974
 4542TIP3    H137821   0.862   4.626  16.447 -0.3827 -0.3897 -0.6249
 4542TIP3    H237822   0.838   4.478  16.432 -0.7455 -0.5221  1.0105
 4543TIP3   OH237823   5.041   3.141  19.537 -0.2767  0.3123  0.6409
 4543TIP3    H137824   4.991   3.222  19.548 -0.6846  0.1242  0.2224
 4543TIP3    H237825   5.120   3.167  19.491 -0.7859  0.3523 -0.2344
 4544TIP3   OH237826   3.749   2.909  18.915 -0.3724 -0.2653  0.2167
 4544TIP3    H137827   3.758   2.874  18.826  0.3929 -2.4444  1.1042
 4544TIP3    H237828   3.676   2.860  18.953  0.1255 -0.2506  1.2142
 4545TIP3   OH237829   4.116   6.352  19.623 -0.2105 -0.5952 -0.1176
 4545TIP3    H137830   4.118   6.343  19.719  0.3293  1.7167  0.1562
 4545TIP3    H237831   4.149   6.269  19.591  1.4165 -0.7743  1.7848
 4546TIP3   OH237832   6.295   5.145  18.349  0.1259  0.2488 -0.4174
 4546TIP3    H137833   6.347   5.204  18.402 -2.6818  1.6509  0.9966
 4546TIP3    H237834   6.310   5.173  18.259  2.3828  0.0029 -0.1781
 4547TIP3   OH237835   6.286   1.801  18.579 -0.2549  0.6998 -0.1110
 4547TIP3    H137836   6.267   1.743  18.505  0.2924 -1.0352  1.0305
 4547TIP3    H237837   6.231   1.766  18.650  0.0528  1.6325  0.6000
 4548TIP3   OH237838   6.196   5.389  19.849  0.2619  0.7221 -0.3189
 4548TIP3    H137839   6.118   5.427  19.808 -0.3397  1.3542  1.3125
 4548TIP3    H237840   6.163   5.311  19.894  1.0329 -0.3581 -1.5449
 4549TIP3   OH237841   5.098   2.250  18.805 -0.2306  0.3774  0.7782
 4549TIP3    H137842   5.187   2.257  18.768 -0.3933 -0.9754  0.0550
 4549TIP3    H237843   5.070   2.340  18.816  1.5496  0.8505  1.8134
 4550TIP3   OH237844   5.223   1.816  19.377 -0.0748  0.1236  0.2368
 4550TIP3    H137845   5.229   1.911  19.386 -1.5977  0.2902 -0.1752
 4550TIP3    H237846   5.141   1.802  19.329 -0.7328 -1.4551  1.7344
 4551TIP3   OH237847   5.202   2.281  17.683  0.5347  0.1080  0.6448
 4551TIP3    H137848   5.142   2.231  17.739 -0.2913  0.9876  0.5669
 4551TIP3    H237849   5.273   2.307  17.742  1.5538 -2.0049  0.4740
 4552TIP3   OH237850   4.468   2.315  19.286 -0.8841 -0.2107  0.0865
 4552TIP3    H137851   4.381   2.298  19.252 -0.7473  0.5857 -0.7060
 4552TIP3    H237852   4.527   2.283  19.218 -0.5804 -0.0255  0.2595
 4553TIP3   OH237853   5.808   1.316  19.254 -0.0498  0.0917 -0.0596
 4553TIP3    H137854   5.721   1.344  19.224 -0.1176  1.0788  0.9863
 4553TIP3    H237855   5.860   1.308  19.174 -0.8019  0.5731 -0.6050
 4554TIP3   OH237856   2.578   1.261  17.689  0.3307  0.1196 -0.1484
 4554TIP3    H137857   2.530   1.339  17.716 -0.2023 -0.2146 -0.1077
 4554TIP3    H237858   2.584   1.268  17.594  0.9645  0.5881 -0.0853
 4555TIP3   OH237859   1.129   3.849  16.033  0.7788 -0.5199  0.6468
 4555TIP3    H137860   1.081   3.921  16.072  2.8255  0.4507  1.5409
 4555TIP3    H237861   1.193   3.891  15.975  1.0327 -1.6922  0.0337
 4556TIP3   OH237862   4.078   2.547  18.173  0.4761  0.3124  0.1668
 4556TIP3    H137863   3.991   2.532  18.135  0.9335 -1.3111 -0.3236
 4556TIP3    H237864   4.060   2.599  18.252 -0.9177  0.1737 -0.0215
 4557TIP3   OH237865   1.607   3.941  18.573 -0.4639 -0.4458 -0.5323
 4557TIP3    H137866   1.620   4.035  18.562  1.0595 -0.5989 -0.2747
 4557TIP3    H237867   1.583   3.931  18.665 -3.0409 -0.1239 -1.0945
 4558TIP3   OH237868   3.029   5.529  18.454  0.2472  0.0758  0.3945
 4558TIP3    H137869   3.124   5.529  18.444  0.1669  1.2506 -0.5780
 4558TIP3    H237870   3.013   5.597  18.520  0.1216 -0.7545  1.2409
 4559TIP3   OH237871   4.656   1.916  18.148 -0.5759 -0.0235 -0.1953
 4559TIP3    H137872   4.586   1.980  18.160  0.6810  1.3907 -0.1798
 4559TIP3    H237873   4.732   1.968  18.121  1.0324 -1.2553  1.7236
 4560TIP3   OH237874   0.902   5.273  17.531 -0.1096  0.0406  0.1889
 4560TIP3    H137875   0.920   5.245  17.621  0.0907  1.0007  0.4588
 4560TIP3    H237876   0.843   5.205  17.497 -0.7573  0.0233  1.2725
 4561TIP3   OH237877   5.244   5.657  18.893 -0.0049 -0.0550  0.2227
 4561TIP3    H137878   5.337   5.676  18.892 -0.3172  1.6617  0.3328
 4561TIP3    H237879   5.208   5.717  18.959 -0.9938 -1.6855  1.2180
 4562TIP3   OH237880   1.385   6.723  17.712  0.1757  0.1422 -0.2196
 4562TIP3    H137881   1.290   6.731  17.699 -0.2536  1.8008  2.8324
 4562TIP3    H237882   1.414   6.813  17.727  1.8330 -0.5556  1.0096
 4563TIP3   OH237883   5.787   3.578  19.119 -0.0799 -0.0508 -0.7566
 4563TIP3    H137884   5.705   3.627  19.129  0.0423  0.2835 -1.3928
 4563TIP3    H237885   5.759   3.487  19.112 -0.4483  0.1123 -1.5715
 4564TIP3   OH237886   4.123   2.357  18.508 -0.3392 -0.4125 -0.4602
 4564TIP3    H137887   4.052   2.353  18.444 -0.4257 -2.0051 -0.3089
 4564TIP3    H237888   4.195   2.309  18.467  0.2726  0.2239 -0.1504
 4565TIP3   OH237889   6.397   4.327  18.678  0.0147 -0.0968  0.1603
 4565TIP3    H137890   6.344   4.282  18.612 -0.1906  0.5073 -0.0862
 4565TIP3    H237891   6.354   4.307  18.761  0.8495 -1.7231  0.2647
 4566TIP3   OH237892   0.764   3.716  18.537  0.0923  0.0488  0.5684
 4566TIP3    H137893   0.843   3.662  18.536 -0.0194 -0.1093  0.2307
 4566TIP3    H237894   0.796   3.805  18.521  0.4026  0.2636  2.1842
 4567TIP3   OH237895   5.115   4.881  19.708 -0.1179 -0.1740  0.2097
 4567TIP3    H137896   5.030   4.906  19.671 -0.5427  0.3410  1.4958
 4567TIP3    H237897   5.102   4.794  19.743  0.1593 -0.4739 -0.4084
 4568TIP3   OH237898   4.255   4.445  20.377  0.2648  0.5685 -0.1640
 4568TIP3    H137899   4.345   4.457  20.408  0.7260 -1.4074 -0.5708
 4568TIP3    H237900   4.233   4.526  20.332  1.7797  1.1575  0.1094
 4569TIP3   OH237901   1.494   1.177  18.845  0.0251 -0.0758 -0.3385
 4569TIP3    H137902   1.546   1.253  18.874 -2.8132  1.0760  2.3915
 4569TIP3    H237903   1.517   1.108  18.907 -2.9837  1.1186  2.4309
 4570TIP3   OH237904   4.751   2.083  19.457 -0.5645  0.0153 -0.6738
 4570TIP3    H137905   4.742   2.167  19.503  0.5423  0.1558 -0.6938
 4570TIP3    H237906   4.820   2.037  19.504 -0.4034 -0.4340 -1.3433
 4571TIP3   OH237907   0.991   5.354  19.078  0.0028 -0.2573 -0.2432
 4571TIP3    H137908   1.029   5.377  19.163 -0.5517 -0.6139  0.1062
 4571TIP3    H237909   1.054   5.388  19.014 -0.4267  1.6170  0.2476
 4572TIP3   OH237910   4.300   0.683  19.541  0.0540  0.2600 -0.1352
 4572TIP3    H137911   4.340   0.759  19.584  0.2709  0.3933 -0.5707
 4572TIP3    H237912   4.294   0.618  19.611  3.3992 -0.7067 -0.5388
 4573TIP3   OH237913   4.282   5.078  17.293  1.4333 -0.1980 -0.5147
 4573TIP3    H137914   4.227   5.076  17.371  1.2329 -0.9087 -0.6690
 4573TIP3    H237915   4.287   5.171  17.269  0.4303 -0.1026 -0.4092
 4574TIP3   OH237916   4.772   4.992  19.969  0.2354 -0.0451  0.0194
 4574TIP3    H137917   4.819   4.930  19.913 -1.1755 -2.1664  1.0523
 4574TIP3    H237918   4.741   4.940  20.043 -1.9588  1.6497  0.4081
 4575TIP3   OH237919   2.641   1.761  18.686  0.4699  0.2752  0.1269
 4575TIP3    H137920   2.613   1.781  18.775 -0.8192 -0.3478 -0.1189
 4575TIP3    H237921   2.647   1.846  18.642  2.0455  0.6808  1.0274
 4576TIP3   OH237922   6.252   1.874  17.471  0.1269 -0.4577 -0.2959
 4576TIP3    H137923   6.230   1.836  17.385  3.0374 -0.4722 -1.1548
 4576TIP3    H237924   6.235   1.804  17.533 -1.4499 -0.6586 -0.9039
 4577TIP3   OH237925   1.699   1.679  20.097 -0.3839 -0.2104 -0.1028
 4577TIP3    H137926   1.758   1.611  20.063  0.1543 -0.2817  0.9330
 4577TIP3    H237927   1.634   1.630  20.147  0.9153  0.0732  2.0072
 4578TIP3   OH237928   1.497   6.471  19.604 -0.0806 -0.6282 -0.1590
 4578TIP3    H137929   1.498   6.417  19.683  1.9938  0.4541  0.6364
 4578TIP3    H237930   1.404   6.485  19.585 -0.6283 -1.4284  1.7285
 4579TIP3   OH237931   0.980   2.406  17.930  0.3754  0.2711 -0.2205
 4579TIP3    H137932   0.986   2.493  17.971 -0.2437 -0.2607  1.0397
 4579TIP3    H237933   0.997   2.345  18.001 -0.2445 -0.6736 -0.8713
 4580TIP3   OH237934   1.205   6.287  19.852  0.8401  0.2811 -0.2227
 4580TIP3    H137935   1.186   6.229  19.926  0.8442 -0.6378 -0.9365
 4580TIP3    H237936   1.156   6.250  19.779  0.7113  1.2768 -0.6520
 4581TIP3   OH237937   1.436   6.726  19.823  0.1969 -0.0339  0.2868
 4581TIP3    H137938   1.411   6.642  19.862  1.0938 -0.4056  0.0993
 4581TIP3    H237939   1.381   6.734  19.746 -0.4615 -0.0667  0.7512
 4582TIP3   OH237940   2.877   0.304  20.074 -0.3672 -0.3142  0.0365
 4582TIP3    H137941   2.807   0.366  20.093  0.1134 -0.0422  0.9588
 4582TIP3    H237942   2.847   0.221  20.111 -0.5966 -0.4192 -0.3751
 4583TIP3   OH237943   4.871   1.324  19.297  0.2757  0.0710  0.7742
 4583TIP3    H137944   4.788   1.346  19.256  0.1933 -0.3043  0.7364
 4583TIP3    H237945   4.861   1.233  19.325  1.1089 -0.4142 -0.3748
 4584TIP3   OH237946   6.495   4.082  17.413 -0.0413  0.2303 -0.2300
 4584TIP3    H137947   6.497   4.093  17.508  3.5287 -0.9004 -0.0204
 4584TIP3    H237948   6.541   4.159  17.379  1.1948 -0.6931 -0.7478
 4585TIP3   OH237949   6.272   6.711  18.184 -0.9850  0.1483 -0.0410
 4585TIP3    H137950   6.259   6.662  18.103  1.8569 -0.3999 -0.2689
 4585TIP3    H237951   6.260   6.802  18.160  2.7396  0.3154 -1.9688
 4586TIP3   OH237952   0.372   0.691  19.875 -0.1635 -0.5528 -0.8105
 4586TIP3    H137953   0.343   0.605  19.904 -0.1167 -0.6503 -1.0505
 4586TIP3    H237954   0.444   0.673  19.813  0.1965 -0.3280 -0.4652
 4587TIP3   OH237955   1.564   3.317  19.435  0.7084  0.6957 -0.2838
 4587TIP3    H137956   1.605   3.326  19.349  1.8100 -1.5378 -0.0643
 4587TIP3    H237957   1.571   3.224  19.456 -1.6463  0.7599  1.2224
 4588TIP3   OH237958   3.813   1.924  19.450 -0.1795  0.1079  0.4372
 4588TIP3    H137959   3.905   1.945  19.465 -0.1488 -0.1597  0.6418
 4588TIP3    H237960   3.765   1.973  19.517 -0.3179  1.4201 -0.6045
 4589TIP3   OH237961   0.181   3.337  17.452  0.9166  0.6515 -0.2525
 4589TIP3    H137962   0.103   3.357  17.400  1.6378 -0.4032 -1.8236
 4589TIP3    H237963   0.254   3.372  17.401  1.5841  0.4588  0.5492
 4590TIP3   OH237964   2.733   1.512  17.965  0.3478 -0.0789 -0.1615
 4590TIP3    H137965   2.713   1.603  17.944  2.1067  0.1929 -0.7486
 4590TIP3    H237966   2.791   1.517  18.041 -0.2774 -0.7751  0.3824
 4591TIP3   OH237967   3.653   4.693  17.587 -0.3836  0.4925  0.2949
 4591TIP3    H137968   3.663   4.782  17.621 -2.4697  1.2015 -0.7718
 4591TIP3    H237969   3.588   4.701  17.518  1.1734 -1.4789 -1.5415
 4592TIP3   OH237970   2.768   0.093  17.903 -0.1088  0.4636 -0.4040
 4592TIP3    H137971   2.768   0.129  17.992  1.4312  1.3902 -0.7335
 4592TIP3    H237972   2.771  -0.002  17.916  1.7019  0.6040  0.5946
 4593TIP3   OH237973   5.082   6.496  18.492 -0.2149  1.0234 -0.2196
 4593TIP3    H137974   5.143   6.568  18.474  0.4831  0.3114 -0.7411
 4593TIP3    H237975   4.997   6.530  18.463  0.1116  1.6239 -0.5039
 4594TIP3   OH237976   3.950   2.683  18.792 -0.5405 -0.0730  0.3699
 4594TIP3    H137977   3.972   2.639  18.874  0.6755 -1.7354 -0.7852
 4594TIP3    H237978   3.999   2.765  18.795 -0.0911 -0.3533  1.0799
 4595TIP3   OH237979   1.452   5.486  20.057 -0.3917  0.1203 -0.1413
 4595TIP3    H137980   1.485   5.459  20.143 -0.8936  0.4357  0.1595
 4595TIP3    H237981   1.359   5.467  20.060 -0.7090  1.5538 -0.0308
 4596TIP3   OH237982   3.581   2.674  17.943 -0.6006 -0.2051  0.5866
 4596TIP3    H137983   3.519   2.663  17.871  1.8339  0.3561 -1.7518
 4596TIP3    H237984   3.601   2.767  17.943  1.2238 -0.5651  0.3530
 4597TIP3   OH237985   0.197   3.121  17.147  0.4088 -0.6531  0.1535
 4597TIP3    H137986   0.165   3.184  17.082  2.9514 -0.0474 -0.6173
 4597TIP3    H237987   0.122   3.106  17.204 -0.9574  1.3099 -0.9971
 4598TIP3   OH237988   4.084   4.572  17.399 -0.5158  0.3804 -0.5594
 4598TIP3    H137989   4.109   4.485  17.429 -0.4393  0.4029 -0.5557
 4598TIP3    H237990   3.990   4.567  17.383 -0.5424  0.3430 -0.3980
 4599TIP3   OH237991   1.074   5.241  17.874  0.2184  0.3470 -0.1633
 4599TIP3    H137992   1.002   5.179  17.861 -0.0001  0.9840 -2.4192
 4599TIP3    H237993   1.127   5.233  17.794  1.0539  1.9428  0.1946
 4600TIP3   OH237994   6.509   0.297  19.505 -0.8135  0.2015  0.0890
 4600TIP3    H137995   6.569   0.364  19.472 -0.5070  0.8310  1.7840
 4600TIP3    H237996   6.426   0.343  19.514 -0.6683  0.3043  1.0011
 4601TIP3   OH237997   4.661   3.433  19.421 -0.1156 -0.4211 -0.4088
 4601TIP3    H137998   4.622   3.383  19.349 -0.1676 -0.9932  0.0099
 4601TIP3    H237999   4.589   3.486  19.456  0.0048  0.1774 -1.0348
 4602TIP3   OH238000   4.489   5.388  19.791 -0.1822  0.1362 -0.1948
 4602TIP3    H138001   4.510   5.480  19.777  2.4275 -0.6165 -2.0030
 4602TIP3    H238002   4.415   5.371  19.733 -0.2703  0.9331 -0.3225
 4603TIP3   OH238003   3.605   2.175  19.477  0.1784 -0.3522 -0.5104
 4603TIP3    H138004   3.582   2.089  19.513  0.2527  0.3154  1.1706
 4603TIP3    H238005   3.628   2.156  19.386  2.7255 -2.5644  0.4540
 4604TIP3   OH238006   5.649   2.711  17.467  0.0983  0.0262  0.6238
 4604TIP3    H138007   5.662   2.652  17.393 -0.3003 -1.0333  1.3743
 4604TIP3    H238008   5.599   2.784  17.430 -0.4265 -0.6704 -0.0764
 4605TIP3   OH238009   0.762   1.768  19.951  0.6642 -0.2885  0.1113
 4605TIP3    H138010   0.677   1.761  19.994  1.1490 -1.4187  0.9326
 4605TIP3    H238011   0.776   1.862  19.940  0.0847 -0.0139  1.5664
 4606TIP3   OH238012   2.321   6.139  18.073 -0.3404 -0.2622  0.4593
 4606TIP3    H138013   2.231   6.109  18.085 -0.2702 -0.5748  0.2256
 4606TIP3    H238014   2.352   6.158  18.162  0.2402 -2.7221  0.8677
 4607TIP3   OH238015   4.731   0.528  18.749 -0.2857 -0.4848  0.4318
 4607TIP3    H138016   4.684   0.503  18.669  1.4311 -0.1685 -0.7278
 4607TIP3    H238017   4.718   0.622  18.757  0.0227 -0.4182  0.1797
 4608TIP3   OH238018   5.825   0.911  19.509 -0.2192  0.3509 -0.2775
 4608TIP3    H138019   5.843   0.888  19.600 -0.3800 -0.9829 -0.5555
 4608TIP3    H238020   5.851   1.003  19.501 -0.2926  0.5132  1.1272
 4609TIP3   OH238021   0.548   3.959  18.959  0.0112  0.1816  0.1854
 4609TIP3    H138022   0.589   3.936  18.876  0.6830 -0.7871  0.7565
 4609TIP3    H238023   0.465   3.911  18.959 -0.2674  0.6630 -0.1816
 4610TIP3   OH238024   1.196   6.561  18.646 -0.0956 -0.7551 -0.1763
 4610TIP3    H138025   1.122   6.621  18.643  0.0809 -0.5524 -0.4785
 4610TIP3    H238026   1.168   6.491  18.706 -0.6142 -0.7950 -0.4624
 4611TIP3   OH238027   4.539   6.749  18.338  0.1161  0.4986 -0.0615
 4611TIP3    H138028   4.547   6.813  18.267  0.5342  0.5223  0.0017
 4611TIP3    H238029   4.594   6.676  18.310 -0.8586 -0.1178 -0.4319
 4612TIP3   OH238030   3.723   4.047  19.246  0.3993  0.1190  0.4875
 4612TIP3    H138031   3.761   4.123  19.289  0.2093  0.7316 -0.3847
 4612TIP3    H238032   3.628   4.061  19.252  0.3748  0.4352 -0.4856
 4613TIP3   OH238033   0.521   0.990  20.354  0.0015  0.0816 -0.4239
 4613TIP3    H138034   0.544   0.923  20.290  2.1529 -0.7471  1.1307
 4613TIP3    H238035   0.470   0.944  20.420 -0.0844  0.3993 -0.2684
 4614TIP3   OH238036   4.205   0.340  18.356 -0.7833  0.3943 -0.6614
 4614TIP3    H138037   4.131   0.278  18.354 -1.5477  1.2006  0.9416
 4614TIP3    H238038   4.171   0.419  18.314 -0.6281  0.5815 -0.4306
 4615TIP3   OH238039   5.557   6.164  19.053  0.0414  0.4827 -0.4565
 4615TIP3    H138040   5.597   6.176  18.967  0.7096  0.6775 -0.1209
 4615TIP3    H238041   5.621   6.115  19.103 -0.2669  0.5327 -0.0109
 4616TIP3   OH238042   0.817   1.675  19.692 -0.2460  0.1403  0.6199
 4616TIP3    H138043   0.912   1.680  19.702 -0.3270 -1.0873  2.3352
 4616TIP3    H238044   0.783   1.675  19.781 -1.9169  1.0658  0.0284
 4617TIP3   OH238045   3.955   1.334  18.858 -0.0885 -0.2910 -0.1370
 4617TIP3    H138046   3.900   1.305  18.931 -0.4809 -1.7854 -1.0062
 4617TIP3    H238047   3.898   1.329  18.781  0.6276  0.2591 -0.7158
 4618TIP3   OH238048   3.203   2.195  17.590 -0.1182  0.1120  0.2900
 4618TIP3    H138049   3.120   2.211  17.634 -0.0742 -0.9448  0.7948
 4618TIP3    H238050   3.249   2.279  17.593 -1.6145  1.0243 -1.0266
 4619TIP3   OH238051   0.330   2.448  16.925 -0.0414  0.6434  0.0325
 4619TIP3    H138052   0.237   2.470  16.931 -0.0062  1.4431 -1.7858
 4619TIP3    H238053   0.353   2.466  16.834  1.9230  0.5194  0.4676
 4620TIP3   OH238054   3.674   0.877  17.886 -0.7243 -0.3266 -0.7102
 4620TIP3    H138055   3.679   0.781  17.887 -1.1092 -0.3487 -0.4841
 4620TIP3    H238056   3.734   0.904  17.817  2.6893 -0.5238  1.8761
 4621TIP3   OH238057   4.983   2.520  18.822  0.1020 -0.0793 -0.2201
 4621TIP3    H138058   5.052   2.585  18.807 -0.2616  0.6986  1.2202
 4621TIP3    H238059   4.930   2.523  18.743  0.8336  0.4502 -0.7104
 4622TIP3   OH238060   6.652   3.410  17.389 -0.1938 -0.0747  0.0859
 4622TIP3    H138061   6.642   3.338  17.327 -2.2459 -0.6835  1.0269
 4622TIP3    H238062   6.562   3.434  17.411  0.3287 -1.2677  4.3462
 4623TIP3   OH238063   5.386   2.268  17.468 -0.4841 -0.2957  0.1149
 4623TIP3    H138064   5.332   2.243  17.394 -1.7570  1.4842  0.3806
 4623TIP3    H238065   5.324   2.296  17.535  0.7230  1.7624  0.4607
 4624TIP3   OH238066   0.814   1.839  17.799 -0.0520  0.6070  0.2363
 4624TIP3    H138067   0.784   1.773  17.737  0.4926  0.3497  0.2336
 4624TIP3    H238068   0.907   1.819  17.812  0.3253  1.8262 -0.3448
 4625TIP3   OH238069   2.164   2.059  17.312  0.0837  0.1597  0.6432
 4625TIP3    H138070   2.101   2.128  17.296  0.3066  0.4640  1.0589
 4625TIP3    H238071   2.246   2.105  17.332  0.5852 -0.2331 -0.4702
 4626TIP3   OH238072   6.071   5.963  18.880  0.1454 -0.1247 -0.4412
 4626TIP3    H138073   6.109   5.924  18.801 -1.4233  0.4048 -1.4935
 4626TIP3    H238074   6.085   6.057  18.868  0.9237 -0.1060  0.4904
 4627TIP3   OH238075   5.035   5.101  17.586 -0.2631 -0.3268 -0.3249
 4627TIP3    H138076   5.044   5.150  17.668 -1.7803 -1.3516  0.4887
 4627TIP3    H238077   5.052   5.010  17.611 -1.1280 -0.7002 -1.0647
 4628TIP3   OH238078   1.633   1.176  17.607  0.0243  0.7537 -0.2340
 4628TIP3    H138079   1.704   1.161  17.545 -1.3249  1.2888 -1.9850
 4628TIP3    H238080   1.558   1.130  17.570 -0.1187 -1.6792  2.6879
 4629TIP3   OH238081   5.723   6.124  18.470 -0.0582 -0.0540  0.4147
 4629TIP3    H138082   5.749   6.107  18.561  0.0994 -0.0225  0.3776
 4629TIP3    H238083   5.641   6.077  18.459 -0.9176  1.2325  1.0525
 4630TIP3   OH238084   5.515   5.179  19.829  0.1732 -0.3193  0.2676
 4630TIP3    H138085   5.524   5.233  19.751  0.6187 -1.1617 -0.2844
 4630TIP3    H238086   5.457   5.229  19.887 -0.2008  0.2930 -0.6152
 4631TIP3   OH238087   3.563   3.932  19.927 -0.4681 -0.3891  0.4281
 4631TIP3    H138088   3.469   3.929  19.908 -0.6685  1.1941  0.9916
 4631TIP3    H238089   3.603   3.884  19.855 -1.6047  0.2931 -0.7098
 4632TIP3   OH238090   5.845   2.641  18.914 -0.2508 -0.6028 -1.0788
 4632TIP3    H138091   5.850   2.656  19.008  0.5297 -0.4727 -1.1363
 4632TIP3    H238092   5.753   2.618  18.899 -0.2669 -1.1680 -0.2066
 4633TIP3   OH238093   4.480   2.856  19.531 -0.5222 -0.4227 -0.1160
 4633TIP3    H138094   4.512   2.771  19.503  0.1293 -0.2639  0.1383
 4633TIP3    H238095   4.482   2.910  19.451  0.5665 -0.2007  0.0494
 4634TIP3   OH238096   0.218   2.133  17.028  0.4320  0.6433 -0.2261
 4634TIP3    H138097   0.284   2.147  17.096  0.3369  0.1450 -0.0293
 4634TIP3    H238098   0.259   2.069  16.969 -0.1641 -0.2491  0.3052
 4635TIP3   OH238099   2.019   2.290  17.244 -0.1877 -0.1760 -0.3232
 4635TIP3    H138100   2.036   2.355  17.313 -0.7842 -1.3577  0.9803
 4635TIP3    H238101   1.937   2.321  17.204  0.5596  0.9395 -1.0470
 4636TIP3   OH238102   6.635   4.434  18.762  0.0717 -0.0995  0.4155
 4636TIP3    H138103   6.689   4.445  18.684 -0.3729  0.3376  0.1717
 4636TIP3    H238104   6.563   4.377  18.734  0.7754 -1.3055  0.9265
 4637TIP3   OH238105   3.779   5.984  18.263 -0.1282  0.5995 -0.0040
 4637TIP3    H138106   3.791   5.889  18.270  2.2364  0.8992  0.7612
 4637TIP3    H238107   3.692   5.994  18.224  0.0477 -1.8921 -1.2379
 4638TIP3   OH238108   6.687   1.578  16.888 -0.5610  0.4430  0.1213
 4638TIP3    H138109   6.633   1.499  16.895 -0.7295  0.6748  1.8368
 4638TIP3    H238110   6.634   1.638  16.837 -1.9500  0.6327  1.6891
 4639TIP3   OH238111   5.459   1.836  20.011  0.3678  0.8370  0.0059
 4639TIP3    H138112   5.447   1.869  19.921  1.2527 -0.6521 -0.6837
 4639TIP3    H238113   5.550   1.858  20.033  0.7439 -0.4302 -0.1917
 4640TIP3   OH238114   6.005   2.013  20.329  0.4646  0.1154 -0.4187
 4640TIP3    H138115   6.033   2.092  20.283 -0.5779  1.0439  0.4721
 4640TIP3    H238116   5.961   2.046  20.408 -2.0922 -1.2511 -1.1763
 4641TIP3   OH238117   0.108   1.653  17.083  0.1456 -0.4321 -0.1304
 4641TIP3    H138118   0.203   1.640  17.083  0.2924  0.5161 -0.5564
 4641TIP3    H238119   0.077   1.600  17.009  0.5287  0.3415 -0.8677
 4642TIP3   OH238120   6.692   2.287  19.734 -0.2332 -0.4015 -0.2901
 4642TIP3    H138121   6.732   2.291  19.647 -0.8744 -1.2418 -0.6380
 4642TIP3    H238122   6.598   2.276  19.717 -0.2568 -1.6053  0.4987
 4643TIP3   OH238123   4.299   2.483  18.697  0.4844  0.2055 -0.7601
 4643TIP3    H138124   4.293   2.535  18.616  0.2711  1.5768  0.1063
 4643TIP3    H238125   4.237   2.411  18.683 -0.8393  1.3765 -1.1611
 4644TIP3   OH238126   3.856   0.294  17.700 -0.5298  1.0046  0.2657
 4644TIP3    H138127   3.829   0.210  17.664 -0.1689  0.2882  1.6208
 4644TIP3    H238128   3.803   0.358  17.652 -2.8616 -0.1719  1.0966
 4645TIP3   OH238129   0.624   0.884  19.505  0.1145 -0.1513 -0.5473
 4645TIP3    H138130   0.665   0.969  19.523  0.2253 -0.3857  0.3789
 4645TIP3    H238131   0.695   0.830  19.472  0.1812 -0.0608 -0.5526
 4646TIP3   OH238132   4.868   0.057  18.990  0.1609 -0.6638 -0.3991
 4646TIP3    H138133   4.882   0.022  18.902  0.2118 -1.3612 -0.1155
 4646TIP3    H238134   4.775   0.039  19.009  0.3314 -1.1609 -0.0266
 4647TIP3   OH238135   4.057   0.360  20.124 -0.0669  0.2228  0.5056
 4647TIP3    H138136   4.020   0.296  20.185  1.9013  0.4772  2.0486
 4647TIP3    H238137   4.113   0.309  20.066 -0.7417  0.1916 -0.1352
 4648TIP3   OH238138   2.961   5.804  17.491 -0.7020 -0.2281  0.0201
 4648TIP3    H138139   2.961   5.709  17.482  1.3165 -0.1875 -1.0489
 4648TIP3    H238140   2.955   5.837  17.401  0.7967  0.5880  0.1864
 4649TIP3   OH238141   6.491   5.496  17.217 -0.1200  0.5427  0.2983
 4649TIP3    H138142   6.406   5.535  17.197 -0.1618  0.1617 -0.3068
 4649TIP3    H238143   6.536   5.492  17.133 -0.7538 -2.2017 -0.0104
 4650TIP3   OH238144   3.268   5.348  18.452  0.0003  0.3494 -0.4469
 4650TIP3    H138145   3.293   5.437  18.478  2.2753 -0.8247  1.8379
 4650TIP3    H238146   3.274   5.349  18.357  1.7707  2.2065 -0.4013
 4651TIP3   OH238147   5.658   0.422  20.427 -0.3082 -0.1888 -0.1656
 4651TIP3    H138148   5.728   0.367  20.462 -1.7333 -1.5474  0.6816
 4651TIP3    H238149   5.697   0.509  20.418  1.1987 -0.6882  1.1902
 4652TIP3   OH238150   1.419   1.346  18.019 -0.5446 -0.5367  0.4265
 4652TIP3    H138151   1.503   1.329  17.977 -0.1689  1.3256  0.3452
 4652TIP3    H238152   1.354   1.330  17.951  0.0301  2.1074 -0.8916
 4653TIP3   OH238153   6.720   1.981  18.862 -0.0365 -0.0694  0.0657
 4653TIP3    H138154   6.629   1.968  18.834 -0.0337  0.4422 -0.2076
 4653TIP3    H238155   6.772   1.950  18.788 -0.0446  2.8193 -1.3076
 4654TIP3   OH238156   5.060   4.464  20.435 -0.5768  0.0915 -0.2169
 4654TIP3    H138157   5.099   4.379  20.412 -0.9096 -0.2012  0.3019
 4654TIP3    H238158   5.129   4.508  20.485 -0.7760 -0.2909  0.4069
 4655TIP3   OH238159   6.145   5.707  18.192  0.1574 -0.3380 -0.3320
 4655TIP3    H138160   6.106   5.731  18.108 -2.3405  0.4548  0.9436
 4655TIP3    H238161   6.239   5.703  18.174 -0.0977  1.5309 -2.7509
 4656TIP3   OH238162   4.194   4.931  20.564 -0.4445  0.5201 -0.0096
 4656TIP3    H138163   4.286   4.908  20.553  0.2732  3.2871 -0.7272
 4656TIP3    H238164   4.191   4.975  20.650 -1.6945 -1.8707  1.2628
 4657TIP3   OH238165   3.403   1.332  17.547  0.0223  0.4823 -0.0957
 4657TIP3    H138166   3.347   1.293  17.480  0.9124  0.4728 -0.8493
 4657TIP3    H238167   3.482   1.277  17.548  0.8389  1.6017 -0.4087
 4658TIP3   OH238168   1.476   4.971  19.636  0.0943  0.2956  0.6579
 4658TIP3    H138169   1.440   4.890  19.671  0.6716 -0.4409 -0.3840
 4658TIP3    H238170   1.437   5.040  19.689  0.9247 -0.7441  2.7315
 4659TIP3   OH238171   2.243   2.411  16.403 -0.4278  0.7384  0.2832
 4659TIP3    H138172   2.244   2.386  16.311 -0.1925  3.2327 -0.4751
 4659TIP3    H238173   2.196   2.340  16.447 -1.0032 -0.2634 -1.8189
 4660TIP3   OH238174   4.705   3.982  17.387  0.0198  0.5122 -0.2409
 4660TIP3    H138175   4.670   3.937  17.310 -0.8102 -0.7750  0.8457
 4660TIP3    H238176   4.655   4.064  17.391 -1.8694 -0.6058  0.4006
 4661TIP3   OH238177   2.943   1.646  18.965  0.1328 -0.2915 -0.1788
 4661TIP3    H138178   2.929   1.581  19.034  0.2169 -1.2143 -1.0088
 4661TIP3    H238179   2.890   1.614  18.891 -0.1794  0.8262 -0.4614
 4662TIP3   OH238180   5.577   5.873  19.349  0.3545  0.2886 -0.2170
 4662TIP3    H138181   5.583   5.876  19.444 -0.8259  0.4693 -0.1277
 4662TIP3    H238182   5.598   5.782  19.326  1.5338  0.4656  0.1252
 4663TIP3   OH238183   2.068   3.751  17.095 -0.0605  0.6039  0.2286
 4663TIP3    H138184   2.125   3.695  17.147  0.5047  2.0817  1.2804
 4663TIP3    H238185   2.024   3.692  17.034  1.2769 -0.8147  0.5909
 4664TIP3   OH238186   5.944   5.240  19.820 -0.8905 -0.0317  0.6145
 4664TIP3    H138187   5.922   5.294  19.745  0.8298  1.7498  1.3094
 4664TIP3    H238188   6.017   5.185  19.789  0.5100  1.4258  1.2041
 4665TIP3   OH238189   2.590   4.192  20.239  0.3301 -0.2986 -0.0105
 4665TIP3    H138190   2.587   4.112  20.293 -1.9661 -1.8072 -2.1698
 4665TIP3    H238191   2.513   4.186  20.183  1.3121  2.3667 -1.8286
 4666TIP3   OH238192   4.726   3.009  19.655 -0.0677 -0.0657  0.0878
 4666TIP3    H138193   4.632   3.007  19.640  0.0311 -1.1224 -0.4578
 4666TIP3    H238194   4.763   3.042  19.573  0.0586  0.0532  0.1916
 4667TIP3   OH238195   5.330   1.030  18.087 -0.9866 -0.4009 -0.0274
 4667TIP3    H138196   5.401   0.978  18.125 -0.1707  1.8796  1.8189
 4667TIP3    H238197   5.318   1.102  18.148 -2.7723  1.0235 -1.9221
 4668TIP3   OH238198   0.526   0.200  19.589 -0.8190 -0.2355 -0.0588
 4668TIP3    H138199   0.493   0.172  19.675  1.7101 -0.8928  0.7914
 4668TIP3    H238200   0.483   0.284  19.573 -2.5169 -0.8274  1.1006
 4669TIP3   OH238201   1.595   3.151  18.851 -0.4132 -0.1872 -0.0483
 4669TIP3    H138202   1.616   3.232  18.804 -0.1954  0.3553  0.9661
 4669TIP3    H238203   1.628   3.165  18.939 -1.1033 -1.0710  0.3665
 4670TIP3   OH238204   2.298   2.226  17.615 -0.6929 -0.0344 -0.3064
 4670TIP3    H138205   2.257   2.302  17.575 -0.1218  0.0693 -0.7000
 4670TIP3    H238206   2.225   2.165  17.630 -1.0038  0.1590 -0.9672
 4671TIP3   OH238207   0.214   0.133  17.840 -0.0579 -0.0386  0.3271
 4671TIP3    H138208   0.134   0.183  17.855  0.3723  0.7640  0.0140
 4671TIP3    H238209   0.185   0.042  17.833 -1.2353  0.4338 -2.0028
 4672TIP3   OH238210   1.171   5.630  18.071 -0.6012 -0.5988 -0.5229
 4672TIP3    H138211   1.202   5.681  18.146  0.4921 -1.8321 -0.1104
 4672TIP3    H238212   1.076   5.623  18.084 -1.1877  3.0678 -1.7119
 4673TIP3   OH238213   6.060   4.703  19.451 -0.4026 -1.1387  0.0746
 4673TIP3    H138214   6.034   4.611  19.461 -3.6851 -0.1202  2.6651
 4673TIP3    H238215   6.058   4.739  19.539  1.3537  1.3829 -0.7914
 4674TIP3   OH238216   1.195   0.156  16.879 -0.2001 -0.4842 -0.2404
 4674TIP3    H138217   1.111   0.123  16.911 -0.2372 -0.3665 -0.2143
 4674TIP3    H238218   1.196   0.248  16.906 -0.5827 -0.1618 -1.2495
 4675TIP3   OH238219   5.627   2.923  20.032  0.1387 -0.0430 -0.6229
 4675TIP3    H138220   5.646   2.888  19.945 -0.2437  0.2186 -0.8161
 4675TIP3    H238221   5.618   3.017  20.019 -2.6232 -0.2554 -0.8187
 4676TIP3   OH238222   2.880   0.948  17.813 -0.4759 -0.3374 -0.3242
 4676TIP3    H138223   2.926   0.976  17.734  0.9467  0.5523  0.7628
 4676TIP3    H238224   2.948   0.908  17.867 -1.5926 -1.7426  0.1021
 4677TIP3   OH238225   2.336   4.177  20.106 -0.3685  0.1658  0.1659
 4677TIP3    H138226   2.269   4.232  20.147 -1.0066 -1.3521  1.2290
 4677TIP3    H238227   2.297   4.090  20.101  1.0224 -0.4631 -0.4598
 4678TIP3   OH238228   1.693   6.165  19.219  0.1744  0.0940 -0.0225
 4678TIP3    H138229   1.693   6.182  19.125 -0.2339 -1.4425 -0.3294
 4678TIP3    H238230   1.779   6.127  19.237  0.5536  1.1198  0.3835
 4679TIP3   OH238231   4.431   3.068  18.236 -0.5209 -0.1582 -0.8761
 4679TIP3    H138232   4.351   3.119  18.241 -0.2636  0.2925 -1.3814
 4679TIP3    H238233   4.445   3.053  18.143  1.0032  1.3923 -0.9362
 4680TIP3   OH238234   4.258   5.027  19.754  0.2091 -0.2289  0.1291
 4680TIP3    H138235   4.344   5.016  19.794 -0.8556  0.1251  2.6971
 4680TIP3    H238236   4.242   5.121  19.757 -0.3965 -0.3242 -0.0072
 4681TIP3   OH238237   1.947   5.043  17.129 -0.3107  0.1244  0.0189
 4681TIP3    H138238   1.875   5.090  17.088  0.7504  3.6984  1.7880
 4681TIP3    H238239   1.984   4.989  17.060 -1.2110  2.5327 -2.4984
 4682TIP3   OH238240   0.896   1.779  19.439  0.6802  0.5631  0.2517
 4682TIP3    H138241   0.858   1.758  19.525 -0.5209  0.6893 -0.2326
 4682TIP3    H238242   0.821   1.801  19.384  1.4203  0.3410 -0.8839
 4683TIP3   OH238243   1.750   1.051  18.507 -0.0382 -0.0459  0.0081
 4683TIP3    H138244   1.728   1.036  18.415  0.0991 -1.7545  0.2185
 4683TIP3    H238245   1.830   1.103  18.504 -1.2501  1.8583 -0.7947
 4684TIP3   OH238246   6.397   3.462  19.448 -0.2535 -0.1312 -0.3019
 4684TIP3    H138247   6.362   3.488  19.533 -0.8393 -3.4731  0.6130
 4684TIP3    H238248   6.345   3.386  19.423  1.7002 -0.9029 -2.3744
 4685TIP3   OH238249   3.513   5.381  19.668 -0.0365 -0.0857  0.4160
 4685TIP3    H138250   3.522   5.446  19.738 -1.1317 -0.6782  1.1325
 4685TIP3    H238251   3.601   5.345  19.657 -0.0609 -0.8351  2.3420
 4686TIP3   OH238252   6.006   2.109  16.399 -0.0128 -0.0625  0.0471
 4686TIP3    H138253   5.979   2.020  16.377 -1.7024 -0.1056  1.9945
 4686TIP3    H238254   5.925   2.161  16.397  0.4441  0.7971  1.6498
 4687TIP3   OH238255   5.445   2.802  18.175 -0.0621  0.0268 -0.1330
 4687TIP3    H138256   5.422   2.710  18.189 -2.8477  0.7472  0.6018
 4687TIP3    H238257   5.536   2.809  18.205  0.1870 -2.4348 -0.1228
 4688TIP3   OH238258   2.465   5.189  17.818 -0.1687  0.2246  0.5561
 4688TIP3    H138259   2.552   5.216  17.791 -0.1957 -0.5247 -0.3052
 4688TIP3    H238260   2.420   5.166  17.737 -1.0283  0.1982  1.0293
 4689TIP3   OH238261   5.893   4.467  19.936 -0.0967 -0.0025 -0.3039
 4689TIP3    H138262   5.819   4.424  19.894  0.7076 -0.9689 -0.7854
 4689TIP3    H238263   5.966   4.453  19.876  0.5330  0.7210  0.2711
 4690TIP3   OH238264   0.353   5.244  18.526 -0.1152  0.2683 -0.3997
 4690TIP3    H138265   0.370   5.301  18.601 -0.7279 -0.6118  0.4252
 4690TIP3    H238266   0.285   5.185  18.556  1.6684 -2.0376 -0.6159
 4691TIP3   OH238267   2.221   3.455  18.200 -0.3594 -0.0701  0.0611
 4691TIP3    H138268   2.143   3.501  18.169 -0.0955  0.6313  0.4243
 4691TIP3    H238269   2.211   3.451  18.295  0.0293 -0.0014  0.1082
 4692TIP3   OH238270   5.461   5.278  18.436  0.4836 -0.0926  0.4590
 4692TIP3    H138271   5.412   5.325  18.368  0.2085 -1.1226 -0.0720
 4692TIP3    H238272   5.403   5.280  18.512  1.1297  1.7782  0.9611
 4693TIP3   OH238273   3.988   1.080  20.127 -0.4949 -0.4314 -0.6340
 4693TIP3    H138274   4.009   0.987  20.131  1.4774 -0.0233 -0.4302
 4693TIP3    H238275   3.901   1.084  20.087 -1.6550 -2.4619  1.4918
 4694TIP3   OH238276   3.221   3.497  20.376  0.0068 -0.4750 -0.0264
 4694TIP3    H138277   3.297   3.508  20.434  1.6386 -0.8097 -1.9726
 4694TIP3    H238278   3.223   3.405  20.351 -0.7108 -0.3581 -0.5518
 4695TIP3   OH238279   6.510   5.589  19.094  0.8383 -0.1601 -0.6446
 4695TIP3    H138280   6.423   5.610  19.061  0.9720  1.7881  0.0988
 4695TIP3    H238281   6.561   5.569  19.016  0.0658  0.0030 -1.2021
 4696TIP3   OH238282   3.028   3.217  19.164 -0.5179 -0.3156  0.5031
 4696TIP3    H138283   2.998   3.254  19.081  0.2313 -0.8907 -0.0302
 4696TIP3    H238284   3.068   3.134  19.140  0.3719 -0.1402  1.3526
 4697TIP3   OH238285   3.694   4.121  16.382 -0.0781  0.2723  0.5982
 4697TIP3    H138286   3.650   4.053  16.433  1.5779 -0.8927  0.5432
 4697TIP3    H238287   3.625   4.185  16.363 -1.6797 -1.3664  0.6752
 4698TIP3   OH238288   2.758   3.803  18.420  0.0618  0.3355  0.1133
 4698TIP3    H138289   2.782   3.847  18.338 -1.2225  0.2755 -0.3169
 4698TIP3    H238290   2.671   3.836  18.441 -0.1945 -0.6633  0.7259
 4699TIP3   OH238291   5.306   1.209  16.855 -0.4503 -0.3067 -0.2320
 4699TIP3    H138292   5.322   1.118  16.830  1.6175 -0.2014  0.4560
 4699TIP3    H238293   5.213   1.213  16.876 -0.8021 -1.9873 -1.3233
 4700TIP3   OH238294   1.488   4.352  17.749 -0.2489 -0.0775  0.1385
 4700TIP3    H138295   1.393   4.356  17.739 -0.3295 -0.5275  0.6764
 4700TIP3    H238296   1.510   4.262  17.728  0.0111 -0.0767  0.4005
 4701TIP3   OH238297   6.149   0.163  18.619 -0.6599 -0.0747  0.0504
 4701TIP3    H138298   6.132   0.091  18.679 -4.3429  2.5810  2.5939
 4701TIP3    H238299   6.202   0.224  18.669 -0.0653  0.2909 -1.0062
 4702TIP3   OH238300   1.636   1.633  17.404 -0.0153  0.4883  0.5473
 4702TIP3    H138301   1.547   1.668  17.393  0.0773  0.7965  0.7753
 4702TIP3    H238302   1.670   1.625  17.315 -0.7165 -0.8006  0.3553
 4703TIP3   OH238303   5.360   1.777  18.113  0.1317 -0.4331  0.5343
 4703TIP3    H138304   5.435   1.834  18.131 -0.0355 -0.0251 -0.0186
 4703TIP3    H238305   5.385   1.692  18.148  0.0211  0.1910  2.1901
 4704TIP3   OH238306   4.495   4.024  19.068 -0.0493  0.0555 -0.2546
 4704TIP3    H138307   4.497   4.070  18.984 -0.8795  1.9375  0.6978
 4704TIP3    H238308   4.460   3.938  19.048 -0.8778  0.7076 -1.7491
 4705TIP3   OH238309   0.229   0.904  17.913  0.3569 -0.1433 -0.3415
 4705TIP3    H138310   0.153   0.887  17.857  0.1163  0.6886 -0.2866
 4705TIP3    H238311   0.304   0.871  17.863  0.0143 -0.4865 -0.6312
 4706TIP3   OH238312   6.692   1.834  17.943  0.1818  0.5384  0.7409
 4706TIP3    H138313   6.757   1.836  18.013  1.5035  0.6094 -0.4383
 4706TIP3    H238314   6.676   1.741  17.928  0.8550  0.4844  0.3073
 4707TIP3   OH238315   0.303   4.120  17.736  0.6137 -0.2704  0.0526
 4707TIP3    H138316   0.375   4.060  17.753 -1.2651 -2.2830  1.4843
 4707TIP3    H238317   0.258   4.083  17.660  0.0200 -0.1274  0.3267
 4708TIP3   OH238318   3.355   3.650  19.564  0.0844 -0.3298  0.4798
 4708TIP3    H138319   3.311   3.634  19.480 -0.6203  1.4295  0.4794
 4708TIP3    H238320   3.335   3.572  19.616 -0.6594 -0.8123 -0.4918
 4709TIP3   OH238321   3.182   6.013  17.579 -0.3682 -0.1245 -0.2359
 4709TIP3    H138322   3.209   5.922  17.573 -0.1926 -0.0239 -1.3079
 4709TIP3    H238323   3.147   6.033  17.492 -0.3576  0.8391 -0.0311
 4710TIP3   OH238324   1.760   4.251  16.885  0.0470  0.4241 -0.4132
 4710TIP3    H138325   1.739   4.286  16.971  0.7243  1.0644 -0.4914
 4710TIP3    H238326   1.855   4.259  16.878  0.2407 -1.4601 -0.4535
 4711TIP3   OH238327   2.534   4.711  18.646 -0.1598  0.4105  0.1924
 4711TIP3    H138328   2.598   4.649  18.681 -0.1933  0.8238  0.9966
 4711TIP3    H238329   2.540   4.700  18.551  1.2614  0.6146  0.2436
 4712TIP3   OH238330   3.304   0.005  18.312  0.5348  0.1041 -0.2299
 4712TIP3    H138331   3.241   0.009  18.240 -0.2986 -0.4210  0.4491
 4712TIP3    H238332   3.317   0.097  18.337  0.1531  0.2262 -0.4669
 4713TIP3   OH238333   3.004   3.730  17.558 -0.3091  0.1955  0.2310
 4713TIP3    H138334   2.963   3.813  17.532 -0.9401 -0.1457  0.1211
 4713TIP3    H238335   2.956   3.663  17.509 -0.6261 -0.3478  1.2471
 4714TIP3   OH238336   4.338   3.418  18.657  0.1564 -0.0076 -0.1880
 4714TIP3    H138337   4.393   3.464  18.594  0.3484  0.2089  0.1401
 4714TIP3    H238338   4.397   3.396  18.729 -0.0548 -0.2932 -0.1026
 4715TIP3   OH238339   4.004   0.579  18.781  0.0603  1.1704  0.4192
 4715TIP3    H138340   4.042   0.507  18.731 -0.7732  0.3977  0.8660
 4715TIP3    H238341   3.973   0.641  18.715  0.0818  0.7504  0.0142
 4716TIP3   OH238342   1.804   2.550  19.517 -0.3764  0.1581 -0.1507
 4716TIP3    H138343   1.741   2.619  19.499 -0.5113 -0.1229 -0.7710
 4716TIP3    H238344   1.776   2.476  19.462  1.2056  0.4421 -1.4159
 4717TIP3   OH238345   2.930   3.890  17.299 -0.0260 -0.2719  0.4586
 4717TIP3    H138346   2.862   3.948  17.332  0.8001  0.7611  0.4195
 4717TIP3    H238347   2.961   3.933  17.219  0.5783 -0.7849  0.4051
 4718TIP3   OH238348   5.576   1.805  19.389  0.0567  0.4063 -0.2912
 4718TIP3    H138349   5.671   1.804  19.382  0.0008  0.0406 -1.1997
 4718TIP3    H238350   5.548   1.865  19.320 -0.3629  0.6306  0.0726
 4719TIP3   OH238351   1.178   3.241  17.760  0.0863 -0.4377  0.5554
 4719TIP3    H138352   1.153   3.149  17.772  0.7550 -0.7718 -0.4912
 4719TIP3    H238353   1.266   3.238  17.723 -0.9193  0.4800 -2.2647
 4720TIP3   OH238354   6.040   6.033  18.565 -0.2368 -0.0020 -0.1778
 4720TIP3    H138355   6.090   6.113  18.552  1.0534 -0.7433  0.1020
 4720TIP3    H238356   6.011   6.007  18.477 -2.1504  1.6521 -0.1195
 4721TIP3   OH238357   0.368   5.207  18.116  0.0693  0.4652  0.1580
 4721TIP3    H138358   0.398   5.204  18.025  0.0027  0.1756  0.1407
 4721TIP3    H238359   0.279   5.243  18.111 -0.8884 -1.7406 -0.1777
 4722TIP3   OH238360   6.161   4.376  17.302  0.3732 -0.2477  0.4503
 4722TIP3    H138361   6.111   4.457  17.312  0.6721  0.0583 -0.3854
 4722TIP3    H238362   6.183   4.350  17.391  2.5623  2.0431  0.7058
 4723TIP3   OH238363   3.324   3.178  18.375  0.1867  0.2690 -0.3692
 4723TIP3    H138364   3.377   3.208  18.301 -0.0487 -1.4526 -1.2840
 4723TIP3    H238365   3.288   3.094  18.347 -2.1716  0.8503  0.6472
 4724TIP3   OH238366   5.262   3.843  17.998 -0.6449  0.1861  0.1983
 4724TIP3    H138367   5.284   3.790  18.075 -0.5679  2.3562  1.7668
 4724TIP3    H238368   5.319   3.919  18.004  0.2106 -0.1145 -2.7266
 4725TIP3   OH238369   0.384   2.391  18.090 -0.5503 -0.2322  0.0976
 4725TIP3    H138370   0.445   2.440  18.036  0.3682 -1.3989  0.0432
 4725TIP3    H238371   0.395   2.427  18.178 -2.2570  1.8770 -0.4513
 4726TIP3   OH238372   1.130   4.494  16.601  0.3722  0.4485  0.2699
 4726TIP3    H138373   1.145   4.549  16.677 -0.0478  1.6308 -0.4810
 4726TIP3    H238374   1.043   4.518  16.570  1.4882  1.8243 -2.0517
 4727TIP3   OH238375   2.846   2.649  16.444 -0.4766  0.9003  0.0902
 4727TIP3    H138376   2.831   2.633  16.351  0.0906 -0.1104  0.1502
 4727TIP3    H238377   2.941   2.640  16.455 -0.5393  0.9760  0.7659
 4728TIP3   OH238378   4.105   1.212  17.009 -0.3143  0.6776  0.1053
 4728TIP3    H138379   4.158   1.147  16.962 -0.9938  0.4367 -0.3288
 4728TIP3    H238380   4.021   1.169  17.024 -0.5656  1.2411  0.3414
 4729TIP3   OH238381   0.490   3.237  16.868 -0.1649  0.5562 -0.5603
 4729TIP3    H138382   0.573   3.246  16.822  1.2071 -0.7901  1.4969
 4729TIP3    H238383   0.466   3.145  16.858  0.4632  0.0741  1.7438
 4730TIP3   OH238384   6.714   0.527  17.935  0.5223  0.0525 -0.3186
 4730TIP3    H138385   6.707   0.617  17.903 -0.3217  0.1554  0.1224
 4730TIP3    H238386   6.639   0.482  17.896  0.5351 -0.2782  0.0294
 4731TIP3   OH238387   1.160   1.431  16.968 -0.6253  0.1991 -0.1439
 4731TIP3    H138388   1.115   1.362  17.018 -0.3347 -0.0504 -0.2228
 4731TIP3    H238389   1.248   1.396  16.953 -1.2879 -0.6470 -2.5741
 4732TIP3   OH238390   0.899   3.311  19.477  0.3091  0.4266 -0.5504
 4732TIP3    H138391   0.981   3.352  19.503 -0.0065  0.1771  0.9342
 4732TIP3    H238392   0.909   3.219  19.502 -0.8004  0.6035  0.6750
 4733TIP3   OH238393   4.894   1.801  18.370  0.1021  0.2244 -0.1037
 4733TIP3    H138394   4.977   1.758  18.388 -0.4092 -0.4998  0.5710
 4733TIP3    H238395   4.834   1.768  18.436 -0.4931  1.4505  0.0046
 4734TIP3   OH238396   0.033   2.694  20.268  0.1861 -0.0826  0.6429
 4734TIP3    H138397  -0.047   2.698  20.321 -0.4985 -0.0681 -0.3745
 4734TIP3    H238398   0.054   2.601  20.263 -1.4237 -0.3748 -1.4909
 4735TIP3   OH238399   2.874   3.494  16.890  0.0915  0.8554  0.4556
 4735TIP3    H138400   2.848   3.446  16.811 -0.2540  1.4959  0.1684
 4735TIP3    H238401   2.793   3.510  16.937  0.2684  0.6903  0.8250
 4736TIP3   OH238402   1.980   5.276  17.484 -0.0772  0.0805 -0.0572
 4736TIP3    H138403   1.919   5.284  17.411  0.8312  1.3342 -0.7229
 4736TIP3    H238404   2.033   5.198  17.463  0.5969  0.7960 -1.0849
 4737TIP3   OH238405   2.067   6.252  18.502 -0.3286  0.6262 -0.3183
 4737TIP3    H138406   2.052   6.330  18.556  0.5984  0.7986 -0.3020
 4737TIP3    H238407   1.983   6.236  18.460 -0.2485  2.3019 -1.1822
 4738TIP3   OH238408   2.472   4.923  16.558  0.6733  0.5283 -0.1721
 4738TIP3    H138409   2.515   4.972  16.627 -2.7362  0.8823  1.9627
 4738TIP3    H238410   2.452   4.838  16.597  1.7151 -0.6151 -1.9821
 4739TIP3   OH238411   1.979   4.164  20.138 -0.0696  0.0259  0.1486
 4739TIP3    H138412   2.024   4.080  20.127 -0.5510 -0.2019 -0.1256
 4739TIP3    H238413   2.030   4.225  20.085  0.6014  0.0299  0.7862
 4740TIP3   OH238414   2.590   2.116  17.097  0.0099  0.3411 -0.4057
 4740TIP3    H138415   2.580   2.209  17.116 -1.2132  0.3446 -0.9617
 4740TIP3    H238416   2.652   2.112  17.024 -0.7897  0.8048 -1.1240
 4741TIP3   OH238417   1.071   4.642  18.022  0.1482 -0.1699 -0.0786
 4741TIP3    H138418   0.992   4.590  18.036 -0.8841  1.4746  0.4983
 4741TIP3    H238419   1.077   4.697  18.100  0.2222  1.7667 -1.3977
 4742TIP3   OH238420   4.357   6.292  20.011 -0.0123  0.0808  0.4213
 4742TIP3    H138421   4.302   6.369  20.021 -0.0709  0.1101 -0.0859
 4742TIP3    H238422   4.353   6.272  19.917  0.1985 -0.3914  0.5103
 4743TIP3   OH238423   1.351   1.771  19.289  0.4902  0.1511 -0.0435
 4743TIP3    H138424   1.380   1.856  19.321  1.2231 -0.4592  0.9777
 4743TIP3    H238425   1.286   1.791  19.222  0.1690  1.4951  0.6440
 4744TIP3   OH238426   4.267   0.251  19.412  0.5895 -0.2022 -0.1281
 4744TIP3    H138427   4.333   0.232  19.478  0.1210  0.5772  0.5803
 4744TIP3    H238428   4.190   0.278  19.462  0.1781  0.2399 -0.9804
 4745TIP3   OH238429   4.415   0.789  20.151 -0.3886 -0.2409  0.2912
 4745TIP3    H138430   4.439   0.710  20.103 -2.2869 -0.4244 -0.4440
 4745TIP3    H238431   4.343   0.762  20.208 -0.2936  0.7047  0.8888
 4746TIP3   OH238432   2.256   2.362  20.219  0.0830  0.1308  0.3515
 4746TIP3    H138433   2.225   2.274  20.197  1.7296 -0.8545  1.7241
 4746TIP3    H238434   2.340   2.348  20.263  1.9615  2.5697 -2.1195
 4747TIP3   OH238435   3.742   1.970  18.833 -0.3265 -0.1247 -0.1387
 4747TIP3    H138436   3.812   1.957  18.897  0.0115 -0.7116 -0.6111
 4747TIP3    H238437   3.784   1.953  18.749 -0.6399  1.1478 -0.5665
 4748TIP3   OH238438   4.567   5.724  18.164  0.0679 -0.3855 -0.4297
 4748TIP3    H138439   4.500   5.793  18.168 -0.0221 -0.4777 -0.3269
 4748TIP3    H238440   4.521   5.648  18.129  0.0142 -0.5709  0.0398
 4749TIP3   OH238441   3.139   0.494  18.485  0.3911  0.1570  0.3585
 4749TIP3    H138442   3.063   0.485  18.542 -0.9430  0.5343 -1.2604
 4749TIP3    H238443   3.207   0.533  18.540 -0.4110 -0.6254  1.9729
 4750TIP3   OH238444   0.766   1.345  19.632 -0.7304 -0.1989 -0.5554
 4750TIP3    H138445   0.694   1.329  19.693 -0.2053 -0.8906 -0.1077
 4750TIP3    H238446   0.771   1.440  19.626  0.8493  0.0088  2.4905
 4751TIP3   OH238447   3.961   5.941  19.758 -0.1258  0.8425 -0.2733
 4751TIP3    H138448   3.953   5.993  19.678  1.5288  2.8207  0.7625
 4751TIP3    H238449   4.043   5.969  19.797 -0.6712 -0.4010  1.9174
 4752TIP3   OH238450   4.650   1.419  19.186  0.1320  0.7196 -0.0500
 4752TIP3    H138451   4.629   1.511  19.201 -2.4240  0.0003  1.4417
 4752TIP3    H238452   4.579   1.388  19.128 -0.1291 -0.7145  0.9934
 4753TIP3   OH238453   6.389   6.416  19.894 -0.2923 -0.1970  0.5748
 4753TIP3    H138454   6.438   6.402  19.813  0.6158 -1.0424  1.2436
 4753TIP3    H238455   6.326   6.345  19.897 -0.0509 -0.4026  0.8059
 4754TIP3   OH238456   5.496   1.571  19.465  0.3163  0.3716 -0.4106
 4754TIP3    H138457   5.525   1.657  19.435 -0.0177  1.3520  1.8385
 4754TIP3    H238458   5.407   1.562  19.429 -0.2256  1.6728  0.5042
 4755TIP3   OH238459   6.121   1.268  18.261  0.1139 -0.0298  0.5214
 4755TIP3    H138460   6.041   1.216  18.250 -0.1752  0.6462 -0.6266
 4755TIP3    H238461   6.184   1.206  18.298 -0.5486 -0.9173  0.1987
 4756TIP3   OH238462   3.036   3.576  16.597 -0.6952  0.6092  0.0413
 4756TIP3    H138463   3.120   3.570  16.644  0.6922 -2.2217 -2.4823
 4756TIP3    H238464   2.970   3.561  16.665  0.9927 -0.1001  1.6239
 4757TIP3   OH238465   6.509   0.071  18.998  0.4606  0.2770 -0.2675
 4757TIP3    H138466   6.514   0.033  18.910 -2.8066 -1.3229  0.0982
 4757TIP3    H238467   6.567   0.147  18.994  0.5442  0.2098 -3.7469
 4758TIP3   OH238468   0.376   5.250  19.260 -0.4175  0.3507 -0.0677
 4758TIP3    H138469   0.372   5.204  19.176 -0.6459  1.1786 -0.5272
 4758TIP3    H238470   0.419   5.334  19.239 -0.6618  0.6497  0.5999
 4759TIP3   OH238471   1.497   2.380  18.919 -0.0993 -0.3458 -0.5081
 4759TIP3    H138472   1.452   2.406  18.838 -1.1277 -1.1426 -0.2150
 4759TIP3    H238473   1.590   2.388  18.898 -0.3407 -0.9071 -1.9041
 4760TIP3   OH238474   0.323   3.401  18.347  0.1869 -0.1225 -0.6169
 4760TIP3    H138475   0.281   3.389  18.262 -0.8594  0.4800 -0.2165
 4760TIP3    H238476   0.320   3.315  18.388 -0.8135 -0.0697 -0.5488
 4761TIP3   OH238477   2.789   2.504  20.273 -0.0217 -0.1088  0.3680
 4761TIP3    H138478   2.859   2.541  20.220 -0.5016 -1.3674 -1.2368
 4761TIP3    H238479   2.828   2.427  20.314 -0.1786 -0.2257  0.2989
 4762TIP3   OH238480   1.451   3.215  17.659  0.2960  0.0980  0.0779
 4762TIP3    H138481   1.476   3.277  17.728 -2.0096 -0.5817  1.6486
 4762TIP3    H238482   1.529   3.162  17.645  0.5807 -0.4333  2.9985
 4763TIP3   OH238483   3.522   5.917  19.687 -0.3181 -0.2125 -0.0180
 4763TIP3    H138484   3.565   5.990  19.642 -0.1371  0.0194  0.5280
 4763TIP3    H238485   3.560   5.839  19.646 -1.5863 -0.0295 -1.6424
 4764TIP3   OH238486   0.559   1.883  18.304 -0.5434 -0.5062 -0.7172
 4764TIP3    H138487   0.548   1.846  18.216  0.6851  0.5389 -1.3543
 4764TIP3    H238488   0.623   1.953  18.292 -1.6301  0.8051  0.7095
 4765TIP3   OH238489   3.932   2.623  19.872  0.0906 -0.2266  0.0064
 4765TIP3    H138490   3.896   2.706  19.843  0.2571 -0.0688  0.2460
 4765TIP3    H238491   3.963   2.581  19.791  0.1015 -0.0113 -0.1022
 4766TIP3   OH238492   1.699   2.499  17.501 -0.5787 -0.0901  0.1918
 4766TIP3    H138493   1.771   2.562  17.504  0.3480 -1.0935 -0.2069
 4766TIP3    H238494   1.620   2.553  17.498  0.1533  1.0364  0.6113
 4767TIP3   OH238495   1.468   0.038  18.924 -0.6664  0.1826  0.5813
 4767TIP3    H138496   1.480   0.042  18.830 -0.0020 -0.4141  0.6290
 4767TIP3    H238497   1.382  -0.002  18.936 -0.8686  0.5043  0.2369
 4768TIP3   OH238498   5.175   2.972  16.096 -0.2984  0.5150  0.8038
 4768TIP3    H138499   5.209   2.982  16.185  1.6499 -2.3511  0.4870
 4768TIP3    H238500   5.104   2.909  16.105 -1.3987  1.6699  0.5332
 4769TIP3   OH238501   2.918   0.704  17.936 -0.0551  0.0739  0.6880
 4769TIP3    H138502   2.830   0.675  17.961 -0.0558  0.4776  1.1631
 4769TIP3    H238503   2.950   0.634  17.880 -1.9205  1.3784 -2.2730
 4770TIP3   OH238504   3.757   3.019  16.538  0.1035  0.4192  0.1529
 4770TIP3    H138505   3.722   3.091  16.487 -1.8046 -0.1993  0.5181
 4770TIP3    H238506   3.827   2.982  16.484  0.0962  1.5976 -0.6771
 4771TIP3   OH238507   6.386   3.406  16.865 -0.3762  0.0329 -0.1526
 4771TIP3    H138508   6.434   3.359  16.797 -2.4407  0.1193 -1.7973
 4771TIP3    H238509   6.409   3.497  16.853  0.0188 -0.0585 -0.0861
 4772TIP3   OH238510   6.680   4.336  19.248 -0.6269 -0.0962 -0.0145
 4772TIP3    H138511   6.676   4.410  19.309  0.9719  0.1904 -0.2199
 4772TIP3    H238512   6.727   4.369  19.172 -2.2138 -0.5787 -1.2653
 4773TIP3   OH238513   6.360   1.540  17.177  0.4070 -0.1460  0.1269
 4773TIP3    H138514   6.397   1.506  17.095  0.1942  0.3583 -0.1878
 4773TIP3    H238515   6.313   1.466  17.215 -1.4710  0.1950 -1.3810
 4774TIP3   OH238516   0.570   0.671  19.676 -0.2134  0.1810 -0.4826
 4774TIP3    H138517   0.633   0.680  19.747  1.4828  1.4715 -2.0322
 4774TIP3    H238518   0.571   0.756  19.632 -2.4118 -0.0499 -1.1216
 4775TIP3   OH238519   3.119   5.312  20.450  0.5288  0.0550  0.2401
 4775TIP3    H138520   3.046   5.356  20.406 -0.6915 -0.1480  1.9409
 4775TIP3    H238521   3.083   5.227  20.476  1.8823 -0.6972 -0.2473
 4776TIP3   OH238522   6.418   5.299  19.122  0.0613 -0.3099  0.1485
 4776TIP3    H138523   6.479   5.342  19.182  0.4705 -0.2352 -0.3259
 4776TIP3    H238524   6.420   5.352  19.042 -0.2105 -0.6221 -0.0687
 4777TIP3   OH238525   5.675   5.874  18.912  0.2072  0.8876  0.3015
 4777TIP3    H138526   5.681   5.787  18.871  1.5225 -0.2154  2.6686
 4777TIP3    H238527   5.688   5.935  18.839 -1.2280 -0.8241 -1.5241
 4778TIP3   OH238528   0.270   2.109  17.633 -0.4903 -0.0811 -0.3681
 4778TIP3    H138529   0.330   2.137  17.702 -0.8825  2.7668 -1.0710
 4778TIP3    H238530   0.200   2.063  17.680  0.3421 -0.1370  0.8655
 4779TIP3   OH238531   6.438   2.147  17.612 -0.0049 -0.2828  0.3415
 4779TIP3    H138532   6.358   2.137  17.664 -0.4767  2.2398  0.1993
 4779TIP3    H238533   6.502   2.180  17.674  0.4923 -0.7681  0.0921
 4780TIP3   OH238534   5.039   4.298  17.129  0.5065  0.5527  0.2502
 4780TIP3    H138535   5.045   4.365  17.061  2.5439  0.1611  0.0040
 4780TIP3    H238536   4.945   4.293  17.149 -0.0495  1.2209 -1.9718
 4781TIP3   OH238537   0.966   2.055  17.587 -0.0182  0.4910  0.1288
 4781TIP3    H138538   0.922   2.099  17.660  0.4880  1.0854  0.0820
 4781TIP3    H238539   0.894   2.024  17.532 -0.5726 -2.9018  2.4805
 4782TIP3   OH238540   6.709   4.600  19.645 -0.0221  0.1945 -0.0110
 4782TIP3    H138541   6.723   4.690  19.675 -0.7547 -0.0756  1.1825
 4782TIP3    H238542   6.616   4.596  19.624 -0.2237 -0.5680  0.9612
 4783TIP3   OH238543   3.021   3.004  17.893 -0.3146 -0.0887  0.2205
 4783TIP3    H138544   3.063   2.936  17.841 -0.9500 -1.4248  1.3915
 4783TIP3    H238545   2.974   3.058  17.828  1.1127 -0.0565 -0.8281
 4784TIP3   OH238546   3.995   3.543  17.887 -0.4269  0.4389  0.3334
 4784TIP3    H138547   3.966   3.530  17.797  0.9141 -0.5487  0.0266
 4784TIP3    H238548   4.042   3.627  17.885 -2.0197  1.3907  0.5623
 4785TIP3   OH238549   0.815   6.173  17.450  0.2958  0.2647  0.2095
 4785TIP3    H138550   0.801   6.084  17.481 -0.3516  0.1631 -0.3636
 4785TIP3    H238551   0.875   6.163  17.376 -1.7067  0.0055 -1.4781
 4786TIP3   OH238552   0.078   1.126  17.021 -0.1013  0.1728  0.3118
 4786TIP3    H138553   0.114   1.188  16.957 -0.3647  1.4659  1.3558
 4786TIP3    H238554   0.143   1.057  17.028  1.9978  2.1549  1.7512
 4787TIP3   OH238555   1.567   4.870  18.835 -0.1687  0.3813 -0.6734
 4787TIP3    H138556   1.568   4.774  18.845  1.5287  0.3652 -0.7768
 4787TIP3    H238557   1.625   4.902  18.904 -2.4930  1.5423  0.8611
 4788TIP3   OH238558   5.716   1.848  20.246  0.0176  0.1137 -0.2387
 4788TIP3    H138559   5.647   1.913  20.231 -0.8415 -0.2154  1.9818
 4788TIP3    H238560   5.781   1.867  20.178 -0.8967  2.3162 -0.5942
 4789TIP3   OH238561   6.046   0.756  17.770  0.1947 -0.5338 -0.4439
 4789TIP3    H138562   6.107   0.763  17.843 -0.9778 -0.5114  0.5796
 4789TIP3    H238563   6.042   0.844  17.733 -0.4616 -0.1285  0.5505
 4790TIP3   OH238564   6.483   5.694  19.774  0.0197  0.2695  0.0039
 4790TIP3    H138565   6.509   5.666  19.862  1.5286  1.2387 -0.0793
 4790TIP3    H238566   6.548   5.654  19.716 -0.5316  0.2231 -0.5905
 4791TIP3   OH238567   0.586   6.723  19.301 -0.3250 -0.0002 -0.5539
 4791TIP3    H138568   0.531   6.761  19.232  0.4729 -1.1771 -1.8825
 4791TIP3    H238569   0.643   6.662  19.256 -0.9995 -2.2110  1.3512
 4792TIP3   OH238570   1.450   4.421  16.850 -0.5011 -0.1784  0.5590
 4792TIP3    H138571   1.502   4.411  16.770 -0.5654 -1.3294  0.6440
 4792TIP3    H238572   1.500   4.481  16.904 -0.4553  0.6176 -0.3366
 4793TIP3   OH238573   0.399   3.408  19.968  0.0697  0.1892  0.1218
 4793TIP3    H138574   0.322   3.381  19.918  1.5162 -0.6777 -1.7740
 4793TIP3    H238575   0.420   3.331  20.022  0.4962 -0.1579 -0.5293
 4794TIP3   OH238576   6.313   3.573  19.973  0.5350  0.2122 -0.4695
 4794TIP3    H138577   6.398   3.561  20.016  0.6875 -0.3147 -0.9087
 4794TIP3    H238578   6.258   3.614  20.040  0.8213 -0.4334  0.1776
 4795TIP3   OH238579   0.227   2.056  19.717  0.0533  0.5135  0.2799
 4795TIP3    H138580   0.173   2.077  19.640  0.8185 -0.1335 -0.4602
 4795TIP3    H238581   0.246   1.963  19.707  2.0352  0.9105  0.0455
 4796TIP3   OH238582   6.238   6.711  19.658  0.1988 -0.0461  0.0634
 4796TIP3    H138583   6.159   6.713  19.605 -0.1360  0.1920  0.5682
 4796TIP3    H238584   6.222   6.773  19.728  0.1396 -1.2604  1.1510
 4797TIP3   OH238585   3.648   2.655  17.621 -0.2044 -0.2877  0.0561
 4797TIP3    H138586   3.585   2.654  17.692 -0.4893  2.5836 -0.0629
 4797TIP3    H238587   3.653   2.563  17.593 -0.6151 -1.4075  3.2205
 4798TIP3   OH238588   4.313   4.024  19.443  0.0407 -0.4058 -0.5023
 4798TIP3    H138589   4.376   4.096  19.452 -0.0438 -0.5315  1.7584
 4798TIP3    H238590   4.238   4.064  19.398 -0.3133  1.2123  1.3686
 4799TIP3   OH238591   3.561   3.160  19.407 -0.0955 -0.6139 -0.3001
 4799TIP3    H138592   3.579   3.140  19.499 -2.5714  1.0255  0.6484
 4799TIP3    H238593   3.530   3.250  19.407 -0.0223 -0.5020 -2.8005
 4800TIP3   OH238594   3.035   6.371  18.452  0.2130 -0.5391 -0.0366
 4800TIP3    H138595   2.996   6.398  18.369  0.2005  0.0443  0.1534
 4800TIP3    H238596   2.964   6.375  18.515  0.2509 -0.8603  0.0289
 4801TIP3   OH238597   4.656   1.197  18.483 -0.6256 -0.3220  0.0035
 4801TIP3    H138598   4.747   1.167  18.476 -0.6085 -0.5470  1.0759
 4801TIP3    H238599   4.641   1.246  18.402 -0.3950 -2.5071 -1.4321
 4802TIP3   OH238600   1.825   4.029  16.342  0.4659  1.2791  0.1832
 4802TIP3    H138601   1.915   3.999  16.353 -0.1293 -0.6259  0.3126
 4802TIP3    H238602   1.773   3.948  16.344 -1.3969  2.4207  1.7419
 4803TIP3   OH238603   3.184   1.574  18.686  0.3320  0.2918  0.5164
 4803TIP3    H138604   3.126   1.580  18.611  1.7851  0.0290 -0.6632
 4803TIP3    H238605   3.132   1.607  18.759 -1.8802 -1.5103 -0.1281
 4804TIP3   OH238606   5.955   6.045  17.359 -0.2541 -0.4996 -0.6330
 4804TIP3    H138607   5.894   6.115  17.335 -1.7460 -1.2584  0.7601
 4804TIP3    H238608   5.962   5.991  17.280 -0.4633  0.2389 -1.1718
 4805TIP3   OH238609   5.923   6.695  17.176 -0.0320  0.7038 -0.3515
 4805TIP3    H138610   5.988   6.733  17.234  2.1134 -0.9550 -1.5075
 4805TIP3    H238611   5.900   6.612  17.217 -1.2239  1.1461 -0.1038
 4806TIP3   OH238612   6.468   5.901  17.880 -0.3436  0.4144 -0.3275
 4806TIP3    H138613   6.534   5.832  17.882 -0.2627  0.5139  0.9491
 4806TIP3    H238614   6.457   5.921  17.787  1.1166  0.1047 -0.5803
 4807TIP3   OH238615   2.490   5.163  16.426 -0.2944 -0.5431 -0.0841
 4807TIP3    H138616   2.417   5.213  16.461 -0.1054  0.0606 -0.5389
 4807TIP3    H238617   2.484   5.078  16.470 -1.0625 -0.3845  0.1280
 4808TIP3   OH238618   3.988   3.111  18.042  0.1249  0.1742  0.1196
 4808TIP3    H138619   4.074   3.148  18.025 -0.1698  1.2119  0.8050
 4808TIP3    H238620   4.005   3.032  18.093  0.6526  0.5548  0.5323
 4809TIP3   OH238621   1.379   4.723  19.462  0.6186 -0.2397 -0.2299
 4809TIP3    H138622   1.294   4.696  19.427  0.5228  0.0310 -0.2054
 4809TIP3    H238623   1.362   4.806  19.506  0.7714 -0.4963  0.3237
 4810TIP3   OH238624   5.794   4.976  19.679 -0.0083 -0.1415 -0.4114
 4810TIP3    H138625   5.795   5.027  19.761  0.9993  2.0398 -1.7082
 4810TIP3    H238626   5.858   4.906  19.694 -1.4297 -1.1587  1.4221
 4811TIP3   OH238627   1.191   6.182  20.099  0.4024  0.2806 -0.6660
 4811TIP3    H138628   1.283   6.180  20.125 -0.1835 -2.0253  1.7017
 4811TIP3    H238629   1.154   6.101  20.136 -2.4786  0.8974 -1.9318
 4812TIP3   OH238630   3.337   2.967  17.706 -0.3460  0.0342 -0.3342
 4812TIP3    H138631   3.274   2.933  17.642  0.0604 -0.3564 -0.5351
 4812TIP3    H238632   3.298   3.048  17.737 -1.6031 -0.8753  0.5703
 4813TIP3   OH238633   2.745   2.447  18.240 -0.1046  0.4651  0.0428
 4813TIP3    H138634   2.674   2.449  18.304 -0.8442  0.0172 -0.7337
 4813TIP3    H238635   2.811   2.507  18.275 -0.7074  0.6100  0.9665
 4814TIP3   OH238636   3.313   0.616  18.917 -0.0356 -0.0838  0.7764
 4814TIP3    H138637   3.304   0.668  18.837  1.1170  0.5313  1.0187
 4814TIP3    H238638   3.231   0.567  18.924 -0.4268  0.3785 -0.4060
 4815TIP3   OH238639   6.015   3.386  20.087  0.4813  0.0540 -0.5023
 4815TIP3    H138640   6.032   3.341  20.170 -0.1438  1.2645  0.3056
 4815TIP3    H238641   6.091   3.365  20.033  0.9091 -0.7374  0.3795
 4816TIP3   OH238642   3.191   2.994  19.520 -0.1929  0.4075  0.8025
 4816TIP3    H138643   3.190   2.924  19.586  1.5020  0.5749  1.0439
 4816TIP3    H238644   3.242   3.065  19.560  0.8641  0.5259 -0.6588
 4817TIP3   OH238645   1.049   3.320  16.998 -0.7476 -0.3752 -0.1189
 4817TIP3    H138646   1.066   3.228  17.018 -0.6668 -0.0078  1.5808
 4817TIP3    H238647   0.953   3.326  16.992 -0.8810 -0.2348  1.6490
 4818TIP3   OH238648   4.905   3.746  18.159 -0.1422 -0.6192  0.5652
 4818TIP3    H138649   4.887   3.690  18.234 -1.9685 -0.5153  0.2509
 4818TIP3    H238650   4.939   3.827  18.197  0.7225 -1.2400  1.1403
 4819TIP3   OH238651   4.167   2.988  17.705 -0.2955  0.3683 -0.1981
 4819TIP3    H138652   4.103   3.042  17.659 -2.1078 -0.2948  1.4112
 4819TIP3    H238653   4.250   3.034  17.693 -0.9971  1.1847 -2.4888
 4820TIP3   OH238654   5.717   0.222  19.827 -0.2485  0.0561 -0.3881
 4820TIP3    H138655   5.747   0.312  19.829  0.7360 -0.2624  0.0629
 4820TIP3    H238656   5.719   0.197  19.735  0.5017  0.1683 -0.4036
 4821TIP3   OH238657   5.292   3.187  19.405 -0.3569 -0.6246 -0.0765
 4821TIP3    H138658   5.259   3.198  19.316  0.5990 -1.5721 -0.5748
 4821TIP3    H238659   5.336   3.269  19.425  0.2152 -0.7310 -0.8451
 4822TIP3   OH238660   2.107   1.427  19.849 -0.0086  0.0670  0.2014
 4822TIP3    H138661   2.173   1.492  19.871  0.8950 -1.2272  1.4776
 4822TIP3    H238662   2.152   1.343  19.857 -1.7742 -0.8530  1.0684
 4823TIP3   OH238663   4.584   6.311  19.563  0.1274 -0.6283 -0.1924
 4823TIP3    H138664   4.535   6.388  19.592  0.5169 -0.9748  1.5623
 4823TIP3    H238665   4.517   6.246  19.543 -0.1799 -0.1911 -0.6030
 4824TIP3   OH238666   1.048   1.424  19.323 -0.0894  0.2664  0.7087
 4824TIP3    H138667   1.141   1.445  19.314  0.1591 -0.4383  1.5378
 4824TIP3    H238668   1.032   1.423  19.417 -1.2201  1.5340  0.5634
 4825TIP3   OH238669   4.185   1.707  17.541  0.6310  0.2324  0.0874
 4825TIP3    H138670   4.132   1.765  17.487  0.3914  1.0457  1.1701
 4825TIP3    H238671   4.150   1.619  17.525  0.8959  0.3873 -1.4390
 4826TIP3   OH238672   5.505   4.127  17.403  0.5845 -0.0900  0.7783
 4826TIP3    H138673   5.417   4.131  17.367  0.6945  0.4002  0.5556
 4826TIP3    H238674   5.514   4.037  17.435  0.1612 -0.2643  0.4129
 4827TIP3   OH238675   2.724   1.218  16.775 -0.3002  0.0231 -0.0625
 4827TIP3    H138676   2.707   1.128  16.803 -0.8376 -0.5713 -2.1337
 4827TIP3    H238677   2.680   1.272  16.841 -1.1503 -1.2580  0.4657
 4828TIP3   OH238678   0.394   5.412  20.081 -0.1795  0.3293  0.1753
 4828TIP3    H138679   0.372   5.423  20.174 -0.2779 -0.2649  0.2279
 4828TIP3    H238680   0.366   5.323  20.061  1.8177 -0.3385  0.1484
 4829TIP3   OH238681   6.284   4.759  17.753 -0.2227  0.4083 -0.3539
 4829TIP3    H138682   6.307   4.686  17.810  1.6448  1.3121  0.1012
 4829TIP3    H238683   6.251   4.827  17.812  0.2530  0.7735 -0.5000
 4830TIP3   OH238684   5.068   6.662  17.799 -0.3014 -0.0054 -0.1416
 4830TIP3    H138685   5.039   6.573  17.816 -1.3042  0.3272 -0.0405
 4830TIP3    H238686   5.083   6.665  17.705 -1.2944  0.0013 -0.3076
 4831TIP3   OH238687   2.195   3.742  19.296  0.4179 -0.0486  0.1897
 4831TIP3    H138688   2.158   3.665  19.252 -1.9564  0.3045  1.4328
 4831TIP3    H238689   2.195   3.810  19.229  1.2045 -0.7217 -0.5195
 4832TIP3   OH238690   3.738   1.518  19.935  0.4410 -0.2135 -0.1905
 4832TIP3    H138691   3.651   1.478  19.941  0.1883  0.4657  0.7202
 4832TIP3    H238692   3.798   1.448  19.962  0.1811 -0.6467 -0.7052
 4833TIP3   OH238693   1.477   5.362  16.657  0.5278 -0.0021 -0.4447
 4833TIP3    H138694   1.521   5.429  16.604 -0.3722  2.4958  1.7288
 4833TIP3    H238695   1.385   5.366  16.631  0.5485 -0.8088 -0.6697
 4834TIP3   OH238696   5.319   3.671  19.114 -0.0994  0.3698 -0.4714
 4834TIP3    H138697   5.317   3.767  19.121 -0.1410  0.2484  2.9905
 4834TIP3    H238698   5.239   3.642  19.158 -0.1889 -1.2738 -1.6463
 4835TIP3   OH238699   0.009   3.843  17.481  0.3771  0.0464  0.5184
 4835TIP3    H138700   0.058   3.921  17.510  0.3334  0.6503 -0.9307
 4835TIP3    H238701   0.040   3.773  17.538  3.3555  0.2759 -0.6475
 4836TIP3   OH238702   4.927   3.556  17.963 -0.2448 -0.1568  0.0884
 4836TIP3    H138703   4.938   3.485  18.026 -0.2530  0.7382  1.1224
 4836TIP3    H238704   4.946   3.636  18.013  0.5658  0.5214 -1.2466
 4837TIP3   OH238705   5.895   6.087  16.843 -0.5195  0.1123  0.3297
 4837TIP3    H138706   5.981   6.067  16.879  1.0019  1.5165 -2.1900
 4837TIP3    H238707   5.871   6.009  16.793 -1.3031 -0.7236  1.9473
 4838TIP3   OH238708   4.466   4.832  17.683  0.1918  0.5120  0.5407
 4838TIP3    H138709   4.440   4.922  17.666  0.0408  0.1085 -1.7619
 4838TIP3    H238710   4.531   4.838  17.753 -0.1273  2.3442  0.7283
 4839TIP3   OH238711   5.927   3.464  18.234 -0.2516 -0.7099  0.6239
 4839TIP3    H138712   5.970   3.401  18.177  1.3504  1.0996 -0.3209
 4839TIP3    H238713   5.999   3.515  18.272 -1.4392  0.3260  1.5802
 4840TIP3   OH238714   3.245   4.553  17.960 -0.0214  0.1926 -0.6776
 4840TIP3    H138715   3.159   4.517  17.979 -0.6264  1.3019 -1.1787
 4840TIP3    H238716   3.286   4.565  18.046 -0.4027 -0.2665 -0.4317
 4841TIP3   OH238717   6.239   1.684  20.486  0.2824 -0.0145 -0.1794
 4841TIP3    H138718   6.230   1.626  20.562 -1.1028  0.6349  0.1804
 4841TIP3    H238719   6.194   1.638  20.415  0.1569  0.1205 -0.1872
 4842TIP3   OH238720   4.368   0.108  17.445 -0.4675 -0.8640 -0.3639
 4842TIP3    H138721   4.318   0.026  17.452 -1.2067 -0.4301 -0.4435
 4842TIP3    H238722   4.398   0.109  17.354 -1.7155 -0.3518 -0.7986
 4843TIP3   OH238723   4.304   5.792  19.656 -0.3902  0.1844  0.0647
 4843TIP3    H138724   4.314   5.708  19.611  2.0384  0.5680 -0.2199
 4843TIP3    H238725   4.382   5.842  19.632 -1.2477  2.1311  1.0986
 4844TIP3   OH238726   2.334   4.568  18.760  0.5771  0.0963 -0.1348
 4844TIP3    H138727   2.386   4.646  18.742  1.7362 -0.9477 -1.5739
 4844TIP3    H238728   2.317   4.530  18.673 -0.5048 -0.9081  0.4863
 4845TIP3   OH238729   4.824   1.120  20.279  0.1476  0.3877  0.6174
 4845TIP3    H138730   4.730   1.131  20.271  0.0491 -1.1597 -1.2163
 4845TIP3    H238731   4.835   1.034  20.320  0.7289  0.1789  0.0504
 4846TIP3   OH238732   3.418   1.535  19.973 -0.1755  0.4636  0.3157
 4846TIP3    H138733   3.442   1.489  20.053  0.4576  1.5646  0.7741
 4846TIP3    H238734   3.353   1.478  19.931 -0.0983 -0.3870  1.3216
 4847TIP3   OH238735   3.650   4.198  19.923  0.2378  0.2300 -0.5392
 4847TIP3    H138736   3.586   4.127  19.931  0.2219  0.3123  0.1532
 4847TIP3    H238737   3.723   4.169  19.978  1.0059 -0.0857 -1.6965
 4848TIP3   OH238738   6.016   5.120  18.745  0.5289  0.1648 -0.3958
 4848TIP3    H138739   6.058   5.188  18.691  2.6813 -0.9212 -0.2104
 4848TIP3    H238740   6.075   5.109  18.820 -0.3720 -1.1085  0.1676
 4849TIP3   OH238741   2.291   2.605  16.939  0.0589  0.6335 -0.4230
 4849TIP3    H138742   2.383   2.597  16.914 -0.1946  0.2387 -1.2664
 4849TIP3    H238743   2.243   2.577  16.861 -0.7696 -3.3898  1.2805
 4850TIP3   OH238744   4.326   2.823  17.948 -0.0915  0.1878 -0.0442
 4850TIP3    H138745   4.376   2.774  17.883  0.6339  0.1232  0.5506
 4850TIP3    H238746   4.386   2.891  17.979 -0.4699  0.2955  0.4679
 4851TIP3   OH238747   6.502   0.685  19.004 -0.5459  0.0779  0.0164
 4851TIP3    H138748   6.511   0.597  19.038 -1.7179 -0.1330 -0.1740
 4851TIP3    H238749   6.476   0.738  19.079 -0.8024  0.0680 -0.0642
 4852TIP3   OH238750   0.663   6.534  18.012  0.1916  0.0273 -0.2894
 4852TIP3    H138751   0.720   6.593  18.061  2.3985 -2.0428 -0.1311
 4852TIP3    H238752   0.665   6.452  18.062 -0.7916 -0.9165 -1.7162
 4853TIP3   OH238753   5.907   2.957  18.891 -0.6009  0.0726  0.3262
 4853TIP3    H138754   5.861   2.874  18.903  0.1616 -0.5820 -1.0703
 4853TIP3    H238755   5.843   3.013  18.847 -0.3558 -0.5714 -0.8889
 4854TIP3   OH238756   4.435   0.941  19.858  0.5177 -0.5980  0.0485
 4854TIP3    H138757   4.426   0.910  19.948  1.5789 -1.1902 -0.0228
 4854TIP3    H238758   4.347   0.965  19.831  0.1817 -0.4617  1.2303
 4855TIP3   OH238759   5.037   5.463  18.716  0.4957 -0.5897  0.1412
 4855TIP3    H138760   4.979   5.526  18.673  1.7644 -0.5835 -1.6675
 4855TIP3    H238761   5.075   5.513  18.788  0.2844  0.2340 -0.2962
 4856TIP3   OH238762   2.950   4.661  18.873 -0.0048  0.0152  0.7278
 4856TIP3    H138763   3.031   4.622  18.840  1.6815  1.8091  2.4207
 4856TIP3    H238764   2.940   4.743  18.823 -2.5195 -1.5015 -1.5458
 4857TIP3   OH238765   0.850   2.634  16.928  0.0251 -0.1333  0.3513
 4857TIP3    H138766   0.845   2.574  16.853 -1.4991 -1.1181  1.1675
 4857TIP3    H238767   0.922   2.601  16.981  1.6069  1.0173 -1.0010
 4858TIP3   OH238768   2.300   3.725  18.772 -0.0187 -0.0582  0.4971
 4858TIP3    H138769   2.237   3.655  18.791  0.1674 -0.0119  1.3248
 4858TIP3    H238770   2.368   3.682  18.721  0.5467 -0.7134  1.7569
 4859TIP3   OH238771   0.942   3.645  17.775  0.1768  0.1337 -0.6186
 4859TIP3    H138772   0.983   3.594  17.705 -1.4061 -0.2818 -1.2811
 4859TIP3    H238773   0.951   3.736  17.746  2.5818  0.3016  0.3458
 4860TIP3   OH238774   4.690   0.602  17.532 -0.0797  0.0680  0.4578
 4860TIP3    H138775   4.595   0.595  17.533 -0.1687  1.1630  1.2596
 4860TIP3    H238776   4.710   0.658  17.457  0.0546 -1.3426 -0.6024
 4861TIP3   OH238777   6.136   2.019  18.313 -0.1929 -0.1412  0.0215
 4861TIP3    H138778   6.090   2.102  18.323  0.2771 -0.0753  2.1751
 4861TIP3    H238779   6.225   2.037  18.343  0.6237 -0.8515 -1.8189
 4862TIP3   OH238780   2.623   1.193  18.889 -0.1283 -0.3000  0.2152
 4862TIP3    H138781   2.627   1.144  18.807  0.8018 -1.4646  0.9258
 4862TIP3    H238782   2.707   1.237  18.895 -1.1395  1.9179 -0.6732
 4863TIP3   OH238783   3.111   1.672  19.792  0.2963 -0.2657 -0.2307
 4863TIP3    H138784   3.070   1.612  19.730  0.0989  1.3010 -1.6900
 4863TIP3    H238785   3.166   1.615  19.847 -0.3089 -1.8314 -1.1708
 4864TIP3   OH238786   4.736   0.377  17.733 -0.1344 -0.1000  0.5191
 4864TIP3    H138787   4.718   0.461  17.691 -0.7188 -0.1203  0.7147
 4864TIP3    H238788   4.793   0.399  17.807  0.6359 -0.0255 -0.0862
 4865TIP3   OH238789   3.470   6.214  18.809 -0.4626 -0.3179  0.1047
 4865TIP3    H138790   3.502   6.219  18.719 -1.1841 -0.6793 -0.1817
 4865TIP3    H238791   3.415   6.291  18.820 -0.3457 -0.2541  0.2526
 4866TIP3   OH238792   2.111   0.259  19.489  0.2235 -0.2856 -0.2774
 4866TIP3    H138793   2.203   0.258  19.461  0.1722 -1.0461 -0.4581
 4866TIP3    H238794   2.115   0.246  19.584  0.3541  1.2121 -0.0593
 4867TIP3   OH238795   5.288   1.096  18.999 -0.4944 -0.0858  0.0097
 4867TIP3    H138796   5.249   1.042  19.068 -1.0430  1.0242  0.5907
 4867TIP3    H238797   5.231   1.082  18.923 -0.1056 -1.0176 -0.1287
 4868TIP3   OH238798   1.148   1.760  18.881 -0.2087  0.6321  0.4507
 4868TIP3    H138799   1.134   1.722  18.968  1.5264  0.8187  0.8361
 4868TIP3    H238800   1.242   1.753  18.866 -0.5038  0.3836 -1.5375
 4869TIP3   OH238801   5.240   3.497  20.011  0.0126  0.3281  0.0570
 4869TIP3    H138802   5.165   3.537  19.968  0.3937  0.9269 -0.0674
 4869TIP3    H238803   5.312   3.507  19.949  0.6314  1.4437  0.9130
 4870TIP3   OH238804   4.911   2.432  19.240  0.1962  0.4600  0.5313
 4870TIP3    H138805   4.960   2.357  19.274 -0.1273  0.6469  1.4304
 4870TIP3    H238806   4.860   2.463  19.315 -1.3384  0.2358 -0.3707
 4871TIP3   OH238807   1.951   6.504  18.598  0.2241  0.2596 -0.0833
 4871TIP3    H138808   1.971   6.549  18.516  0.8612 -0.3877 -0.2877
 4871TIP3    H238809   1.871   6.546  18.629  1.2069  2.0866  0.1290
 4872TIP3   OH238810   2.302   6.184  20.008 -0.3481 -0.1321  0.6392
 4872TIP3    H138811   2.323   6.264  19.962 -2.3702  0.2980  0.3413
 4872TIP3    H238812   2.343   6.114  19.956 -1.8721  0.4026 -1.4313
 4873TIP3   OH238813   0.853   5.586  18.081  0.7854 -0.1286  0.2580
 4873TIP3    H138814   0.775   5.640  18.070  0.2736 -0.8926  0.0688
 4873TIP3    H238815   0.849   5.555  18.171 -0.3314 -1.9673 -0.3766
 4874TIP3   OH238816   2.907   1.752  19.381 -0.1584 -0.4992 -0.4228
 4874TIP3    H138817   2.964   1.828  19.394 -0.5157 -0.4518  1.0409
 4874TIP3    H238818   2.965   1.686  19.343  0.6570 -0.1546  0.1803
 4875TIP3   OH238819   4.415   5.911  18.855  0.4830  0.7816 -0.1090
 4875TIP3    H138820   4.455   5.835  18.897  1.5689  0.6293 -1.3671
 4875TIP3    H238821   4.333   5.876  18.817  1.3513  0.0194 -1.3588
 4876TIP3   OH238822   5.661   3.500  18.164 -0.3445  0.1082 -0.0514
 4876TIP3    H138823   5.734   3.491  18.225 -0.7969 -1.8496  0.2610
 4876TIP3    H238824   5.591   3.541  18.215 -0.4787 -0.8577  0.5726
 4877TIP3   OH238825   3.902   3.318  17.422 -0.1022  0.3109 -0.6522
 4877TIP3    H138826   3.832   3.296  17.483 -0.4547  0.4154 -1.0168
 4877TIP3    H238827   3.888   3.258  17.348 -0.6820  1.3209 -1.3726
 4878TIP3   OH238828   2.944   6.443  18.197  0.4837 -0.4463 -0.3130
 4878TIP3    H138829   3.022   6.401  18.162  0.9018 -0.0608  0.1473
 4878TIP3    H238830   2.910   6.494  18.124  0.6724 -0.5927 -0.5066
 4879TIP3   OH238831   1.285   0.300  18.790 -0.6633 -0.2970 -0.1339
 4879TIP3    H138832   1.303   0.238  18.720 -0.9712 -0.9161  0.3208
 4879TIP3    H238833   1.235   0.249  18.855  1.1765 -0.2707  1.3822
 4880TIP3   OH238834   0.881   5.375  18.692  0.3266 -0.1063 -0.3479
 4880TIP3    H138835   0.864   5.282  18.683 -1.1638  0.0718  0.3778
 4880TIP3    H238836   0.846   5.398  18.778  0.0367  1.2600 -0.8062
 4881TIP3   OH238837   1.537   2.522  19.931 -0.2440 -0.2855  0.4565
 4881TIP3    H138838   1.566   2.471  20.007  3.2956 -1.6425 -1.5089
 4881TIP3    H238839   1.585   2.483  19.858  0.9143  4.3585 -1.6286
 4882TIP3   OH238840   6.722   6.499  19.705  0.5155 -0.0013  0.4409
 4882TIP3    H138841   6.809   6.540  19.703  0.7784 -0.4177  1.7035
 4882TIP3    H238842   6.666   6.565  19.746  0.6751 -0.4054  1.3565
 4883TIP3   OH238843   5.886   4.067  19.576  0.1541 -0.4306 -0.5538
 4883TIP3    H138844   5.852   3.982  19.547  4.0324 -2.6108  0.5019
 4883TIP3    H238845   5.927   4.105  19.498  0.3924 -0.6463 -0.5348
 4884TIP3   OH238846   1.425   2.192  19.577  0.3111 -0.2619 -0.6748
 4884TIP3    H138847   1.467   2.278  19.569  0.8174 -0.1598  1.9482
 4884TIP3    H238848   1.449   2.162  19.665 -2.7660 -1.5089 -0.1343
 4885TIP3   OH238849   5.131   6.406  18.146 -0.0020  0.8495 -0.5079
 4885TIP3    H138850   5.160   6.491  18.179  0.2234  1.0597 -1.2107
 4885TIP3    H238851   5.066   6.428  18.079 -1.3424  0.4041  0.6136
 4886TIP3   OH238852   3.323   3.623  19.985 -0.0624  0.1537  0.1466
 4886TIP3    H138853   3.357   3.710  19.970  0.8857 -0.3057 -0.4246
 4886TIP3    H238854   3.389   3.579  20.039 -0.5076 -0.2271  0.3965
 4887TIP3   OH238855   3.890   6.701  18.756 -0.3597  0.3243  0.4725
 4887TIP3    H138856   3.931   6.632  18.704 -1.2198 -0.5487  0.9165
 4887TIP3    H238857   3.806   6.664  18.783  0.9872 -0.2696  4.4677
 4888TIP3   OH238858   0.145   5.368  18.876  0.2302 -0.6048 -0.2253
 4888TIP3    H138859   0.144   5.274  18.891 -1.2235 -0.3859  1.3264
 4888TIP3    H238860   0.094   5.380  18.796 -0.3234 -1.0932  0.0429
 4889TIP3   OH238861   1.929   2.167  17.539 -0.1841  0.1442  0.2565
 4889TIP3    H138862   2.004   2.213  17.501  0.3689  0.1553  1.3292
 4889TIP3    H238863   1.962   2.132  17.621 -0.9646 -1.0877  0.0649
 4890TIP3   OH238864   4.823   6.325  18.924 -0.0135 -0.1317  0.1654
 4890TIP3    H138865   4.910   6.288  18.935  0.1505  0.3971  0.6345
 4890TIP3    H238866   4.778   6.262  18.867  0.9065 -0.0181 -0.7224
 4891TIP3   OH238867   0.012   6.145  19.138  0.3514 -0.2341  0.3757
 4891TIP3    H138868  -0.073   6.134  19.181 -0.4421 -0.2050 -1.1253
 4891TIP3    H238869   0.074   6.105  19.199 -0.9549 -1.9443  0.6726
 4892TIP3   OH238870   1.945   6.485  18.226 -0.0478  0.3267 -0.7799
 4892TIP3    H138871   1.947   6.400  18.181 -0.4077  0.7862 -1.6992
 4892TIP3    H238872   2.019   6.533  18.189  0.5624  0.1889  0.2261
 4893TIP3   OH238873   5.884   0.721  19.830 -0.0384  0.3229  0.2350
 4893TIP3    H138874   5.885   0.791  19.895  1.1807  2.2344 -1.7019
 4893TIP3    H238875   5.956   0.663  19.856 -0.3167  0.3870  1.2006
 4894TIP3   OH238876   1.216   0.193  17.434 -0.2744  0.6470  0.2525
 4894TIP3    H138877   1.166   0.144  17.369  1.2234  0.0492 -0.4778
 4894TIP3    H238878   1.191   0.154  17.518  0.8949 -1.4006 -0.3100
 4895TIP3   OH238879   0.809   2.393  20.103  0.1018  0.7615 -0.0297
 4895TIP3    H138880   0.871   2.336  20.058  0.5254 -1.0614  2.6719
 4895TIP3    H238881   0.733   2.338  20.120  0.4907  0.9318  2.6007
 4896TIP3   OH238882   0.167   0.760  19.021  0.5167 -0.5380 -0.1820
 4896TIP3    H138883   0.100   0.724  19.079 -0.1920 -0.0324 -0.6827
 4896TIP3    H238884   0.140   0.733  18.933 -1.1634  2.7847 -0.8476
 4897TIP3   OH238885   5.170   0.703  19.341  0.4965 -0.6839 -0.1274
 4897TIP3    H138886   5.161   0.615  19.304 -0.2577 -1.0962  0.9705
 4897TIP3    H238887   5.249   0.698  19.394  1.4957 -0.1351 -1.5096
 4898TIP3   OH238888   0.399   0.309  17.111  0.1341 -0.0225 -0.1364
 4898TIP3    H138889   0.362   0.265  17.034  0.1062 -1.0181  0.4198
 4898TIP3    H238890   0.424   0.396  17.080  0.8880 -0.6842 -1.4857
 4899TIP3   OH238891   6.345   4.638  18.807  0.1539  0.3272  0.2955
 4899TIP3    H138892   6.272   4.599  18.854  0.2206  1.1572  1.1255
 4899TIP3    H238893   6.400   4.563  18.783 -0.4491 -0.2147  0.5564
 4900TIP3   OH238894   0.285   3.819  16.541 -0.4319  0.3483  0.2129
 4900TIP3    H138895   0.297   3.789  16.631 -0.7158 -1.2901 -0.2484
 4900TIP3    H238896   0.197   3.857  16.540  0.9583  3.9458  1.4626
 4901TIP3   OH238897   2.450   4.879  19.485 -0.0535 -0.2809  0.6065
 4901TIP3    H138898   2.458   4.916  19.397 -4.1750 -2.2525 -0.8341
 4901TIP3    H238899   2.451   4.955  19.543 -0.2862  1.3552 -1.4251
 4902TIP3   OH238900   1.191   3.581  16.828  0.8932  0.1531 -0.0259
 4902TIP3    H138901   1.228   3.553  16.744  1.4534 -0.8115  0.5279
 4902TIP3    H238902   1.127   3.513  16.849 -0.7969  1.4682 -0.6576
 4903TIP3   OH238903   1.360   4.715  17.669  0.0160 -0.5785  0.2881
 4903TIP3    H138904   1.378   4.786  17.730 -0.7965  1.0536 -1.2835
 4903TIP3    H238905   1.333   4.642  17.725  0.4029  0.4732  1.9260
 4904TIP3   OH238906   5.672   4.721  17.985 -0.1858  0.2916  0.1723
 4904TIP3    H138907   5.607   4.764  17.929 -0.6694  1.7133  1.7293
 4904TIP3    H238908   5.741   4.786  17.994  0.8842 -0.7304 -0.4382
 4905TIP3   OH238909   4.228   3.022  19.118 -0.7352 -0.6485  0.1526
 4905TIP3    H138910   4.159   2.986  19.062  0.9718 -1.8627 -1.2764
 4905TIP3    H238911   4.203   3.114  19.130 -1.7305 -0.6254 -1.7208
 4906TIP3   OH238912   5.488   4.679  17.117  0.4121 -0.3135 -0.5029
 4906TIP3    H138913   5.520   4.749  17.174  1.8512 -0.9884 -0.4599
 4906TIP3    H238914   5.403   4.656  17.154  1.1496 -0.4760  1.1677
 4907TIP3   OH238915   5.157   1.491  19.975  0.1402  0.1126 -0.1928
 4907TIP3    H138916   5.235   1.464  19.926  0.8748  0.8198  0.5593
 4907TIP3    H238917   5.190   1.553  20.040 -1.2379  1.5173 -0.7667
 4908TIP3   OH238918   3.844   6.366  19.619 -0.2555  0.4926 -0.7994
 4908TIP3    H138919   3.820   6.425  19.690  0.2509  1.1152 -1.1303
 4908TIP3    H238920   3.940   6.367  19.619 -0.2303 -0.5568 -0.6347
 4909TIP3   OH238921   1.139   4.478  18.715 -0.1127  0.3946 -0.1798
 4909TIP3    H138922   1.229   4.492  18.688 -0.0893 -0.8420 -0.8464
 4909TIP3    H238923   1.119   4.551  18.773  1.4429  0.4763  0.2994
 4910TIP3   OH238924   5.979   1.094  19.769  0.3749 -0.0841  0.3889
 4910TIP3    H138925   5.895   1.112  19.812  0.1639 -1.0659  0.4094
 4910TIP3    H238926   5.984   1.159  19.699  0.8540  1.7436  2.0189
 4911TIP3   OH238927   0.858   1.591  16.975  0.7337 -0.6176  0.0645
 4911TIP3    H138928   0.812   1.674  16.987  1.5134 -0.2355  0.4864
 4911TIP3    H238929   0.839   1.541  17.055 -0.1199 -1.0374 -0.3962
 4912TIP3   OH238930   5.207   3.748  19.788  0.5345 -0.0262  0.0868
 4912TIP3    H138931   5.117   3.748  19.820 -0.1390  0.8935 -1.6378
 4912TIP3    H238932   5.198   3.761  19.693  2.4817  0.1709 -0.1018
 4913TIP3   OH238933   0.521   2.560  20.307 -0.2070  0.5870  0.3169
 4913TIP3    H138934   0.480   2.631  20.356 -0.3226 -0.5428  1.9331
 4913TIP3    H238935   0.614   2.570  20.323 -0.1684  0.7447  0.0066
 4914TIP3   OH238936   1.825   4.794  17.404 -0.3299  0.4311  0.4045
 4914TIP3    H138937   1.772   4.750  17.470 -1.4207 -0.6896 -1.1589
 4914TIP3    H238938   1.813   4.888  17.423 -1.9837  0.1737  0.7591
 4915TIP3   OH238939   0.436   2.791  19.073  0.0268 -0.1672  0.6246
 4915TIP3    H138940   0.510   2.730  19.082  1.3827  1.1044 -1.1677
 4915TIP3    H238941   0.380   2.751  19.007 -0.4874 -0.7422  1.3985
 4916TIP3   OH238942   1.449   5.127  16.806  0.4628 -0.0139  0.1923
 4916TIP3    H138943   1.367   5.139  16.855 -1.1711 -2.0335 -1.8419
 4916TIP3    H238944   1.467   5.212  16.767 -0.3605  0.5950  1.1102
 4917TIP3   OH238945   4.171   2.522  17.719  0.1332 -0.0366 -0.6484
 4917TIP3    H138946   4.248   2.502  17.772 -0.0585 -1.5927 -0.9177
 4917TIP3    H238947   4.125   2.590  17.769  0.4949 -0.7214  0.6691
 4918TIP3   OH238948   2.632   0.721  18.981 -0.1530 -0.0713 -0.3310
 4918TIP3    H138949   2.691   0.650  18.953  0.5487  0.5963 -0.5737
 4918TIP3    H238950   2.687   0.799  18.982 -0.5808  0.2322  1.3168
 4919TIP3   OH238951   1.258   3.404  18.993  0.9600 -0.3766 -0.5218
 4919TIP3    H138952   1.277   3.314  18.968 -1.1246 -1.9829  2.9311
 4919TIP3    H238953   1.166   3.403  19.019  1.0607  2.6114  0.3530
 4920TIP3   OH238954   2.931   5.973  17.701 -0.4482 -0.5457 -0.4028
 4920TIP3    H138955   2.907   5.915  17.629  0.2134 -0.0774 -1.0178
 4920TIP3    H238956   3.025   5.988  17.690  0.3410 -2.7424  2.2245
 4921TIP3   OH238957   1.794   6.224  18.444 -0.5569  0.0928  0.0230
 4921TIP3    H138958   1.705   6.211  18.479 -1.3130  2.2251 -0.9128
 4921TIP3    H238959   1.801   6.319  18.432  1.5374 -0.1151 -0.8012
 4922TIP3   OH238960   2.004   1.809  19.703  0.2214 -0.0251  0.0205
 4922TIP3    H138961   1.968   1.882  19.753  1.8582  1.6058 -1.0593
 4922TIP3    H238962   1.933   1.783  19.644 -0.5912  0.2414  0.8571
 4923TIP3   OH238963   1.717   4.143  18.897 -0.2944 -0.6314 -0.4626
 4923TIP3    H138964   1.653   4.124  18.828  0.2454 -2.4910 -0.5020
 4923TIP3    H238965   1.690   4.089  18.970 -0.8053  1.2599  0.8274
 4924TIP3   OH238966   2.569   2.709  19.361  0.4804 -0.0123 -0.1257
 4924TIP3    H138967   2.603   2.795  19.385  0.6191 -0.4149  1.2136
 4924TIP3    H238968   2.486   2.702  19.408  0.9027 -0.9573  0.5077
 4925TIP3   OH238969   4.976   3.570  18.696 -0.0027  0.2488  0.2898
 4925TIP3    H138970   5.042   3.540  18.759  1.5412 -0.8706 -1.7272
 4925TIP3    H238971   4.901   3.513  18.711 -0.4227  1.2219  2.2968
 4926TIP3   OH238972   1.097   5.834  18.491  0.1597 -0.3058  0.2276
 4926TIP3    H138973   1.144   5.916  18.476  0.5819 -0.3147  1.4161
 4926TIP3    H238974   1.005   5.856  18.471  0.2951  0.3957  0.3404
 4927TIP3   OH238975   4.354   1.573  19.461  0.1603 -0.5684 -0.4117
 4927TIP3    H138976   4.263   1.602  19.452 -0.5185 -2.0426  1.1358
 4927TIP3    H238977   4.352   1.481  19.434  1.2837 -0.5054 -0.7491
 4928TIP3   OH238978   2.503   6.060  19.712  0.2627  0.7745  0.0694
 4928TIP3    H138979   2.535   6.124  19.649 -0.3202  0.6736 -0.3380
 4928TIP3    H238980   2.411   6.046  19.688  0.1079  0.5340  0.7739
 4929TIP3   OH238981   0.166   2.552  18.113  0.4711 -0.0587 -0.1954
 4929TIP3    H138982   0.187   2.640  18.144  0.4152  0.5811 -1.8488
 4929TIP3    H238983   0.250   2.507  18.109  0.3679 -0.5187  1.7883
 4930TIP3   OH238984   5.843   1.333  18.750 -0.2447  0.2633 -0.5025
 4930TIP3    H138985   5.844   1.293  18.837  0.4833  1.0984 -0.1090
 4930TIP3    H238986   5.826   1.260  18.690 -0.6133 -0.3421  0.3262
 4931TIP3   OH238987   0.276   6.361  18.658  0.2061 -0.2762  0.9517
 4931TIP3    H138988   0.336   6.306  18.609 -1.1015 -1.2049  0.3365
 4931TIP3    H238989   0.247   6.307  18.732  0.6902  0.4296  1.6794
 4932TIP3   OH238990   2.929   5.165  19.248 -0.3934  0.0673 -0.0768
 4932TIP3    H138991   3.009   5.200  19.208 -0.9261  0.3635 -0.9134
 4932TIP3    H238992   2.908   5.088  19.195 -0.7837  0.1162  0.0089
 4933TIP3   OH238993   2.728   3.707  17.243  0.3116 -0.2032  0.1199
 4933TIP3    H138994   2.795   3.769  17.269  0.6590  0.1403 -1.4938
 4933TIP3    H238995   2.762   3.622  17.271  0.0154  0.2648  1.9761
 4934TIP3   OH238996   3.072   0.150  18.739 -0.5760 -0.3112  0.6507
 4934TIP3    H138997   3.140   0.174  18.676 -0.3883  2.1607  1.7045
 4934TIP3    H238998   3.099   0.065  18.772  1.6997  0.3436  0.6108
 4935TIP3   OH238999   2.749   0.962  19.022 -0.0132 -0.2275  0.4562
 4935TIP3    H139000   2.843   0.976  19.021 -0.2124  1.3167  0.8936
 4935TIP3    H239001   2.712   1.045  18.993 -1.2501 -0.7786  0.3857
 4936TIP3   OH239002   3.704   4.905  17.757  0.5300  0.0233  0.1772
 4936TIP3    H139003   3.611   4.931  17.757 -0.8559 -4.1311  0.9152
 4936TIP3    H239004   3.729   4.909  17.849  1.1830  1.2540 -0.0372
 4937TIP3   OH239005   4.054   3.717  20.008 -0.2218  0.0236  0.1415
 4937TIP3    H139006   4.083   3.776  20.079  0.8765 -0.7269  0.3523
 4937TIP3    H239007   3.987   3.662  20.049  1.8110 -1.7829  1.2820
 4938TIP3   OH239008   3.801   5.296  17.418  0.4882 -0.0615  0.1255
 4938TIP3    H139009   3.745   5.238  17.365  1.2537  0.4887 -1.3539
 4938TIP3    H239010   3.751   5.310  17.498 -0.7878 -0.8442 -0.4904
 4939TIP3   OH239011   4.380   4.883  18.558 -0.1403  0.6261 -0.5963
 4939TIP3    H139012   4.404   4.794  18.534  0.8600  0.3530  1.2117
 4939TIP3    H239013   4.285   4.882  18.561 -0.1233 -0.6515  0.2590
 4940TIP3   OH239014   0.974   4.849  18.629  0.6877  0.4987  0.1453
 4940TIP3    H139015   1.058   4.813  18.656  1.0946  2.0132  1.0089
 4940TIP3    H239016   0.990   4.884  18.541  0.4480 -0.8138 -0.4469
 4941TIP3   OH239017   4.342   0.258  18.068  0.1085 -0.0710 -0.3074
 4941TIP3    H139018   4.269   0.205  18.037  0.9178 -0.8214 -0.9786
 4941TIP3    H239019   4.301   0.333  18.110 -1.0404  0.3770 -2.1227
 4942TIP3   OH239020   4.675   4.153  16.740  0.0208 -0.1817 -0.2744
 4942TIP3    H139021   4.637   4.115  16.820  1.1223  1.6289  1.2083
 4942TIP3    H239022   4.610   4.216  16.711  0.3426  0.3878  0.2161
 4943TIP3   OH239023   0.304   5.926  19.602 -0.6188  0.2228 -0.0702
 4943TIP3    H139024   0.339   5.866  19.536 -0.6011  1.4910 -1.2449
 4943TIP3    H239025   0.231   5.878  19.641  1.0728 -1.6413  0.9626
 4944TIP3   OH239026   0.509   3.960  18.104  0.5490 -0.4876 -0.2911
 4944TIP3    H139027   0.561   3.889  18.143  1.9437  1.0194  0.7616
 4944TIP3    H239028   0.450   3.916  18.043  0.6864 -2.6337  1.0105
 4945TIP3   OH239029   2.106   1.476  19.336 -1.0070  0.2251  0.9452
 4945TIP3    H139030   2.089   1.570  19.339 -0.3921  0.3282  1.4501
 4945TIP3    H239031   2.082   1.445  19.424 -1.3908 -0.1196  0.7177
 4946TIP3   OH239032   5.696   2.800  18.276  0.0291  0.4930 -0.1717
 4946TIP3    H139033   5.731   2.721  18.236 -0.3187  0.3077 -0.1129
 4946TIP3    H239034   5.723   2.796  18.368  0.1837  0.5452 -0.2141
 4947TIP3   OH239035   2.994   0.820  18.926  1.0338  0.1115 -0.4378
 4947TIP3    H139036   3.058   0.749  18.925  0.4300 -0.4572 -2.4853
 4947TIP3    H239037   2.924   0.791  18.868 -0.0229  1.7018 -0.0523
 4948TIP3   OH239038   3.099   1.245  18.350 -0.1624 -0.3232  0.1865
 4948TIP3    H139039   3.064   1.327  18.384 -1.4565 -0.9819  0.5024
 4948TIP3    H239040   3.037   1.179  18.379  1.0375 -1.4673  0.2188
 4949TIP3   OH239041   0.405   3.949  18.366  0.6561  0.4178 -0.3854
 4949TIP3    H139042   0.340   3.992  18.311 -0.0209  0.2076  0.2389
 4949TIP3    H239043   0.456   3.896  18.305 -1.1447 -1.1399 -0.6248
 4950TIP3   OH239044   1.685   2.106  17.408  0.2084  0.4727  0.0030
 4950TIP3    H139045   1.661   2.014  17.421 -2.1488  1.0977  0.6315
 4950TIP3    H239046   1.779   2.110  17.427  1.0788 -2.3062 -2.9089
 4951TIP3   OH239047   4.114   1.405  17.194 -0.6678 -0.3038  0.6557
 4951TIP3    H139048   4.118   1.326  17.140  0.1656 -0.2539  0.6372
 4951TIP3    H239049   4.047   1.459  17.153 -3.9089 -2.4484  2.6378
 4952TIP3   OH239050   3.084   2.674  16.603 -0.2708  0.0297  0.4134
 4952TIP3    H139051   3.088   2.665  16.698  0.9656  2.2729  0.6519
 4952TIP3    H239052   3.136   2.600  16.570  1.5185  0.6657  1.6352
 4953TIP3   OH239053   6.493   1.730  20.580  0.2423 -0.1942  0.2190
 4953TIP3    H139054   6.470   1.807  20.633 -0.0229 -1.6051  2.2594
 4953TIP3    H239055   6.411   1.706  20.536  0.6357  1.4220 -1.5302
 4954TIP3   OH239056   2.836   4.579  18.583  0.2147 -0.3679 -0.5869
 4954TIP3    H139057   2.873   4.653  18.535 -0.8266 -0.5525 -1.7243
 4954TIP3    H239058   2.868   4.590  18.673  0.3341  1.2845 -0.8022
 4955TIP3   OH239059   5.923   3.856  16.923 -0.0599  0.2627 -0.1053
 4955TIP3    H139060   5.902   3.930  16.866  0.7428  0.1238 -0.6009
 4955TIP3    H239061   5.857   3.859  16.992 -1.0818  0.4043 -1.0637
 4956TIP3   OH239062   5.113   3.423  17.359  0.4487  0.0031  0.7336
 4956TIP3    H139063   5.178   3.381  17.416  0.7895  0.0728  0.4024
 4956TIP3    H239064   5.052   3.465  17.420 -0.3728 -1.6245  1.0976
 4957TIP3   OH239065   1.916   3.096  17.279 -0.3037  0.0030 -0.4108
 4957TIP3    H139066   1.912   3.045  17.360  3.6662 -1.2707 -0.7867
 4957TIP3    H239067   1.880   3.037  17.213 -0.8054 -0.1444 -0.0123
 4958TIP3   OH239068   3.146   2.714  17.843 -0.5124  0.1199  0.7713
 4958TIP3    H139069   3.147   2.641  17.905  1.6710 -0.6228 -0.0611
 4958TIP3    H239070   3.053   2.723  17.819 -0.8304 -2.7213  0.5301
 4959TIP3   OH239071   0.943   3.831  19.549 -0.0777  0.4898  0.1843
 4959TIP3    H139072   1.006   3.764  19.523  1.2293  1.7862 -0.1220
 4959TIP3    H239073   0.927   3.881  19.470 -0.5848  0.9115  0.5435
 4960TIP3   OH239074   0.172   4.645  18.404 -0.4390  0.5372  0.4663
 4960TIP3    H139075   0.149   4.581  18.472  0.6096  0.1244  0.4496
 4960TIP3    H239076   0.189   4.592  18.326  0.5974  0.8140  0.4952
 4961TIP3   OH239077   0.068   1.517  19.157 -0.1338 -0.4243  0.1445
 4961TIP3    H139078   0.027   1.603  19.169 -0.9322 -1.0596  2.4936
 4961TIP3    H239079   0.001   1.454  19.185  1.3858 -1.6573  1.1843
 4962TIP3   OH239080   2.225   2.865  18.685 -0.2072  0.2538  0.4923
 4962TIP3    H139081   2.221   2.939  18.624 -2.2799  0.1192  0.4154
 4962TIP3    H239082   2.282   2.801  18.641 -1.7687  0.0846 -1.4160
 4963TIP3   OH239083   3.856   2.251  17.584  0.1336  0.3917 -0.2791
 4963TIP3    H139084   3.861   2.297  17.669  0.8594 -1.9908  1.0668
 4963TIP3    H239085   3.926   2.291  17.532  1.3334  0.3003  1.1581
 4964TIP3   OH239086   0.312   3.028  19.000  0.3063 -0.0883 -0.4967
 4964TIP3    H139087   0.381   2.966  19.022  1.0542  0.5615 -0.9391
 4964TIP3    H239088   0.231   2.986  19.028  0.7863 -1.3046 -0.9020
 4965TIP3   OH239089   2.164   0.634  19.725  0.4916 -0.5216 -0.0015
 4965TIP3    H139090   2.156   0.681  19.808  2.5776  0.6113 -0.3880
 4965TIP3    H239091   2.240   0.577  19.737 -0.3534 -1.8299 -0.5115
 4966TIP3   OH239092   6.170   2.379  19.658  0.1856  0.2781 -0.1119
 4966TIP3    H139093   6.087   2.338  19.681  1.1140 -0.9176  1.2580
 4966TIP3    H239094   6.174   2.459  19.711 -0.2283  0.5183 -0.4388
 4967TIP3   OH239095   3.123   4.952  16.744 -0.4901  0.2125  0.5583
 4967TIP3    H139096   3.125   4.858  16.766  0.7522 -0.0667 -0.6334
 4967TIP3    H239097   3.092   4.954  16.653 -2.0402  1.0974  1.0639
 4968TIP3   OH239098   6.151   3.220  20.304  0.4782 -0.2367  0.0443
 4968TIP3    H139099   6.236   3.230  20.261 -0.9547  1.7778 -2.6030
 4968TIP3    H239100   6.133   3.126  20.301  1.8482 -0.4965 -0.8926
 4969TIP3   OH239101   4.353   4.087  18.146  0.4427  0.5032  0.1386
 4969TIP3    H139102   4.324   4.147  18.078  3.6629  1.9431 -0.1587
 4969TIP3    H239103   4.273   4.058  18.189 -1.5491  1.1489 -2.8896
 4970TIP3   OH239104   0.199   3.144  18.015 -0.0236 -0.3390  0.3533
 4970TIP3    H139105   0.204   3.096  17.932 -0.9972 -1.4043  0.8768
 4970TIP3    H239106   0.151   3.085  18.074  1.1846  0.1359  1.8666
 4971TIP3   OH239107   6.341   4.963  16.695 -0.2610  0.0775  0.0959
 4971TIP3    H139108   6.249   4.947  16.671 -0.3550 -0.8396  0.9632
 4971TIP3    H239109   6.366   5.041  16.646 -1.3202 -0.0222 -0.6336
 4972TIP3   OH239110   0.432   3.921  20.041  0.1902  0.5008 -0.2029
 4972TIP3    H139111   0.361   3.857  20.036 -0.1946  0.9597 -0.7574
 4972TIP3    H239112   0.511   3.871  20.021 -0.1349  0.2378 -0.8648
 4973TIP3   OH239113   0.198   0.878  20.081  0.3548  0.3058 -0.1215
 4973TIP3    H139114   0.217   0.927  20.001  0.1237  1.2909  0.4156
 4973TIP3    H239115   0.205   0.786  20.054  0.0346  0.6111 -1.3338
 4974TIP3   OH239116   4.529   3.579  19.846  0.0369  0.4896  0.5753
 4974TIP3    H139117   4.552   3.486  19.848  0.2395  0.5203  0.0220
 4974TIP3    H239118   4.443   3.584  19.889  0.0486  0.0546  0.6506
 4975TIP3   OH239119   4.644   6.128  18.056 -0.0544  0.2104 -0.1948
 4975TIP3    H139120   4.688   6.053  18.017 -0.9268 -1.0205  1.0732
 4975TIP3    H239121   4.687   6.139  18.141  0.5853  1.6689 -0.6762
 4976TIP3   OH239122   3.187   2.853  20.196  0.0262 -0.1366 -0.0086
 4976TIP3    H139123   3.217   2.778  20.144  0.5399  0.1696 -0.1709
 4976TIP3    H239124   3.094   2.837  20.211  0.2194 -1.0082  0.3070
 4977TIP3   OH239125   5.558   1.914  19.070  0.2286 -0.2789  0.4569
 4977TIP3    H139126   5.649   1.910  19.042 -0.0142  1.2423 -0.6988
 4977TIP3    H239127   5.514   1.845  19.020  0.3307  0.5575 -0.8273
 4978TIP3   OH239128   6.530   5.288  20.132 -0.4991 -0.1003  0.1830
 4978TIP3    H139129   6.548   5.264  20.041 -1.1277  1.8101 -0.4942
 4978TIP3    H239130   6.616   5.305  20.170 -0.2319 -0.9318 -0.0252
 4979TIP3   OH239131   5.051   0.846  18.001 -0.1476  0.0792  0.0816
 4979TIP3    H139132   5.076   0.790  18.074 -0.3063  0.0527  0.1157
 4979TIP3    H239133   5.045   0.934  18.038 -1.7112 -0.1535  0.4434
 4980TIP3   OH239134   0.466   1.363  18.405 -0.1988 -0.7103 -0.5457
 4980TIP3    H139135   0.403   1.399  18.467  0.0258 -0.6358 -0.3555
 4980TIP3    H239136   0.499   1.284  18.447  0.6953 -0.1260 -0.1004
 4981TIP3   OH239137   0.623   0.413  17.542 -0.4395  0.2134 -0.3118
 4981TIP3    H139138   0.655   0.440  17.629  0.9196  0.2682 -0.8003
 4981TIP3    H239139   0.530   0.434  17.543 -1.0266 -1.8707  1.9724
 4982TIP3   OH239140   4.050   0.562  19.950  0.0472  0.0242 -0.2640
 4982TIP3    H139141   4.080   0.511  20.026  0.8480 -0.6654 -1.0198
 4982TIP3    H239142   3.984   0.507  19.909  0.8277 -0.3836 -1.0135
 4983TIP3   OH239143   2.802   0.730  17.590 -0.2030 -0.4327 -0.1927
 4983TIP3    H139144   2.818   0.767  17.677 -0.5694 -1.6351  0.4162
 4983TIP3    H239145   2.763   0.802  17.540  1.0345  0.6100  0.2830
 4984TIP3   OH239146   2.466   1.900  17.227  0.1248 -0.3272  0.1629
 4984TIP3    H139147   2.519   1.960  17.175  0.9112 -0.2521  1.0219
 4984TIP3    H239148   2.402   1.865  17.166 -0.3719  1.4033 -0.3440
 4985TIP3   OH239149   2.938   0.960  18.635 -0.0559  0.5330 -0.2251
 4985TIP3    H139150   2.925   0.866  18.645  0.5233  0.5049  0.3788
 4985TIP3    H239151   3.003   0.968  18.565  0.0938  0.4646 -0.0956
 4986TIP3   OH239152   3.298   2.141  19.299 -0.2344 -0.3725 -0.8559
 4986TIP3    H139153   3.297   2.205  19.371 -2.4370  1.0254 -2.0226
 4986TIP3    H239154   3.296   2.056  19.342 -3.4039  0.4108  0.8573
 4987TIP3   OH239155   6.022   5.937  19.148  0.4060  0.4239 -0.9816
 4987TIP3    H139156   6.035   5.915  19.056 -1.8888  0.9268 -1.4938
 4987TIP3    H239157   5.932   5.969  19.153  1.3373  3.1856  0.9136
 4988TIP3   OH239158   1.571   0.550  17.276 -0.4672  0.6126 -0.2736
 4988TIP3    H139159   1.623   0.514  17.348 -1.4019 -0.1594  0.0424
 4988TIP3    H239160   1.589   0.491  17.202 -2.2804 -0.8076  0.3442
 4989TIP3   OH239161   1.492   0.235  17.711  0.1040  0.2520 -0.6758
 4989TIP3    H139162   1.541   0.307  17.749 -1.0748 -0.1110  1.6770
 4989TIP3    H239163   1.419   0.277  17.665  0.3292  0.6079 -0.7058
 4990TIP3   OH239164   2.232   4.761  19.378  0.6122  0.4203  0.3987
 4990TIP3    H139165   2.272   4.825  19.436  0.6408  0.5541  0.2296
 4990TIP3    H239166   2.290   4.685  19.381 -0.3843 -0.3301  2.0773
 4991TIP3   OH239167   2.137   5.151  18.683  0.6948  0.0530  0.2538
 4991TIP3    H139168   2.080   5.229  18.684  0.2124 -0.2977  1.1790
 4991TIP3    H239169   2.157   5.135  18.775  1.1756 -0.6458  0.0322
 4992TIP3   OH239170   0.959   1.197  18.291 -0.3717  0.0576 -0.2229
 4992TIP3    H139171   1.014   1.127  18.325 -0.3318 -0.2070 -0.8169
 4992TIP3    H239172   0.963   1.265  18.357  0.1033 -0.2464  0.0659
 4993TIP3   OH239173   4.437   2.217  19.557  0.3168 -0.2607  0.0826
 4993TIP3    H139174   4.529   2.211  19.581  0.5250 -1.3064 -0.8708
 4993TIP3    H239175   4.438   2.253  19.468 -0.2517  0.5032  0.3714
 4994TIP3   OH239176   3.016   5.077  17.556  0.3870 -0.2246  0.3790
 4994TIP3    H139177   2.939   5.105  17.606  0.2150 -0.6043  0.3276
 4994TIP3    H239178   2.982   5.054  17.470  0.5760 -0.2981  0.3240
 4995TIP3   OH239179   6.553   5.202  17.210 -0.2952 -0.2174  0.1721
 4995TIP3    H139180   6.633   5.191  17.160 -0.8567 -1.5606 -0.4841
 4995TIP3    H239181   6.548   5.296  17.228  0.8144  0.0409 -0.7826
 4996TIP3   OH239182   0.805   1.609  18.890  0.1352 -0.1490 -0.2554
 4996TIP3    H139183   0.879   1.563  18.930  1.4060  0.5542 -1.7031
 4996TIP3    H239184   0.792   1.686  18.945 -1.1233 -1.4739  1.3939
 4997TIP3   OH239185   0.980   0.360  17.245  0.3063  0.6201 -0.8410
 4997TIP3    H139186   1.042   0.388  17.177  2.2372  0.3959  0.7621
 4997TIP3    H239187   1.019   0.281  17.282 -1.8159 -0.5309 -0.8826
 4998TIP3   OH239188   4.139   3.816  18.400 -0.1976  0.1837  0.0462
 4998TIP3    H139189   4.136   3.900  18.353  0.1930  0.6236  0.7773
 4998TIP3    H239190   4.174   3.839  18.486 -0.7923 -0.6174  0.5126
 4999TIP3   OH239191   1.725   2.999  18.095 -0.2200 -0.1981  0.0145
 4999TIP3    H139192   1.758   3.087  18.114  1.1176 -0.5341 -0.6231
 4999TIP3    H239193   1.649   2.989  18.152 -0.8356  1.6306 -0.3921
 5000TIP3   OH239194   4.619   4.254  20.042  0.2531  0.2229 -0.5855
 5000TIP3    H139195   4.651   4.173  20.082 -2.5883 -0.8690 -0.3243
 5000TIP3    H239196   4.698   4.295  20.007  2.1413 -1.4045  1.4308
 5001TIP3   OH239197   0.977   3.038  17.060  0.3400  0.0334  0.3196
 5001TIP3    H139198   0.911   2.970  17.046 -0.8462  0.9020  1.4670
 5001TIP3    H239199   1.040   3.024  16.989 -0.5989 -1.3751 -0.3005
 5002TIP3   OH239200   5.382   0.176  18.051  0.2675 -0.0845 -0.2317
 5002TIP3    H139201   5.355   0.244  17.989 -0.4486 -1.6706 -1.7445
 5002TIP3    H239202   5.465   0.143  18.016  1.0700  0.5879  0.9879
 5003TIP3   OH239203   4.214   2.157  19.245 -0.4951  0.4317  0.2283
 5003TIP3    H139204   4.168   2.196  19.171 -0.6467 -0.1950 -0.0115
 5003TIP3    H239205   4.268   2.088  19.207  1.7111  1.9997  0.3109
 5004TIP3   OH239206   0.564   1.446  20.015  0.8028  0.0675  0.1798
 5004TIP3    H139207   0.589   1.533  20.048  0.8730 -0.4055  1.4229
 5004TIP3    H239208   0.640   1.391  20.032  0.5029 -0.3968  0.0414
 5005TIP3   OH239209   2.372   2.781  17.678  0.3821  0.5597 -0.5788
 5005TIP3    H139210   2.434   2.710  17.698  0.5098  0.7387 -0.3396
 5005TIP3    H239211   2.417   2.833  17.611 -0.0848 -0.0931 -1.4180
 5006TIP3   OH239212   4.353   5.238  18.822 -0.5655 -0.5737 -0.3048
 5006TIP3    H139213   4.296   5.231  18.745 -1.0484 -0.5031  0.0494
 5006TIP3    H239214   4.325   5.167  18.879 -0.0336 -0.7873 -0.2982
 5007TIP3   OH239215   0.062   0.932  18.467 -0.4918  0.1358 -0.0731
 5007TIP3    H139216   0.147   0.915  18.508 -0.8289 -0.6264  0.3340
 5007TIP3    H239217   0.057   1.027  18.460 -0.3499  0.2868  1.5205
 5008TIP3   OH239218   3.932   1.175  17.985 -0.6018  0.3750 -0.0103
 5008TIP3    H139219   3.926   1.182  17.890 -2.3839  0.5615  0.0747
 5008TIP3    H239220   3.971   1.258  18.013  0.1501  0.2218 -0.5774
 5009TIP3   OH239221   6.073   4.057  17.308  0.1884  0.4863 -0.4021
 5009TIP3    H139222   6.122   4.139  17.304  0.1144  0.6160  0.9612
 5009TIP3    H239223   6.139   3.989  17.322  0.2789  0.2507 -1.8055
 5010TIP3   OH239224   3.266   2.357  19.480  0.7636 -0.0055  0.2647
 5010TIP3    H139225   3.343   2.412  19.494  0.7497  0.1454 -0.2325
 5010TIP3    H239226   3.193   2.419  19.470  0.3658 -0.1711  1.8999
 5011TIP3   OH239227   2.393   4.527  18.085 -0.0000 -0.7702  0.7739
 5011TIP3    H139228   2.457   4.534  18.156 -0.7584  0.7624  1.3532
 5011TIP3    H239229   2.392   4.434  18.063  1.7774 -0.9642  1.3345
 5012TIP3   OH239230   0.304   5.886  19.983  0.1008  0.2256 -0.3684
 5012TIP3    H139231   0.315   5.950  20.054 -0.6677 -0.5690  0.4827
 5012TIP3    H239232   0.214   5.900  19.953 -0.2549 -0.8149  0.1894
 5013TIP3   OH239233   3.376   2.902  18.017  0.1713  0.4537 -0.1822
 5013TIP3    H139234   3.385   2.996  17.999  0.0175  0.4938 -0.0563
 5013TIP3    H239235   3.312   2.871  17.953  1.4599  0.0885 -1.3308
 5014TIP3   OH239236   0.018   0.838  17.754  0.8081 -0.8130  0.0432
 5014TIP3    H139237  -0.037   0.864  17.829  0.1146 -1.6522 -0.1627
 5014TIP3    H239238  -0.032   0.770  17.710  1.0787 -0.1374 -1.3690
 5015TIP3   OH239239   6.722   3.253  16.668 -0.0447  0.1113 -0.0574
 5015TIP3    H139240   6.733   3.339  16.629 -0.1332  0.0073 -0.3150
 5015TIP3    H239241   6.634   3.255  16.706  0.5969  0.7466  1.5027
 5016TIP3   OH239242   2.303   2.438  19.804 -0.6431  0.4022 -0.7198
 5016TIP3    H139243   2.352   2.356  19.818  0.3782  1.0079 -0.6686
 5016TIP3    H239244   2.211   2.413  19.819 -0.3412 -0.7082 -0.5891
 5017TIP3   OH239245   5.765   1.005  18.721 -0.0280 -0.1342 -0.1931
 5017TIP3    H139246   5.676   1.041  18.731  0.1665  1.0536 -2.1891
 5017TIP3    H239247   5.787   1.021  18.630  2.1724 -0.6470  0.1887
 5018TIP3   OH239248   1.957   3.875  19.732 -0.0008  0.1424 -0.2264
 5018TIP3    H139249   1.955   3.905  19.823 -0.9611 -0.3591 -0.0650
 5018TIP3    H239250   1.930   3.783  19.737 -0.2787  0.1724 -1.0487
 5019TIP3   OH239251   3.187   1.834  18.541 -0.4440  0.3986  0.0952
 5019TIP3    H139252   3.245   1.909  18.536 -0.6441  0.6418  1.1130
 5019TIP3    H239253   3.154   1.835  18.631 -0.6968 -0.7185  0.0355
 5020TIP3   OH239254   5.462   2.483  19.859  0.3254 -0.2804  0.1140
 5020TIP3    H139255   5.384   2.522  19.897 -0.2801 -0.2887 -1.0831
 5020TIP3    H239256   5.534   2.518  19.911 -0.3288  1.1611  0.0977
 5021TIP3   OH239257   2.206   1.924  19.103 -0.7143 -0.5359  0.1168
 5021TIP3    H139258   2.222   1.997  19.164 -0.4140 -0.1811 -0.3736
 5021TIP3    H239259   2.144   1.868  19.148 -1.3573  0.2996  0.2964
 5022TIP3   OH239260   0.079   3.298  18.637  0.4802  0.0447  0.0183
 5022TIP3    H139261   0.112   3.213  18.611 -0.3329 -0.9024  1.8739
 5022TIP3    H239262   0.141   3.361  18.600  1.8571 -1.4090 -0.2414
 5023TIP3   OH239263   1.200   5.997  19.177  0.7443  0.3513 -0.0806
 5023TIP3    H139264   1.154   6.048  19.245 -0.9559 -2.0940  0.7721
 5023TIP3    H239265   1.284   6.041  19.167 -0.7924  3.6605  0.0816
 5024TIP3   OH239266   3.367   3.173  17.967 -0.1925 -0.6818 -0.3213
 5024TIP3    H139267   3.287   3.217  17.938  0.0830 -0.1886 -0.3433
 5024TIP3    H239268   3.438   3.232  17.940  0.0552  0.1570  1.9524
 5025TIP3   OH239269   2.006   1.432  19.596 -0.1295  0.1767  0.2785
 5025TIP3    H139270   2.066   1.469  19.661 -0.7621  1.1060  0.3494
 5025TIP3    H239271   1.928   1.408  19.646  0.0199 -0.6396  0.1213
 5026TIP3   OH239272   3.942   1.897  19.190 -0.1522 -0.1091 -0.2183
 5026TIP3    H139273   3.985   1.877  19.273  0.1224  0.8589 -0.1171
 5026TIP3    H239274   3.888   1.820  19.172  0.7214 -0.8549  0.2396
 5027TIP3   OH239275   4.461   2.135  17.886 -0.3303 -0.3538  0.0227
 5027TIP3    H139276   4.464   2.119  17.980 -0.3816 -5.4142 -0.5753
 5027TIP3    H239277   4.368   2.152  17.868 -0.4625 -0.2884  0.7330
 5028TIP3   OH239278   0.332   3.833  19.043 -0.2531  0.3363  0.3710
 5028TIP3    H139279   0.268   3.895  19.008 -1.5997 -1.2460 -0.1355
 5028TIP3    H239280   0.333   3.762  18.979 -0.4092 -1.1722  1.9665
 5029TIP3   OH239281   5.517   1.451  20.384  0.0577 -0.3350  0.2692
 5029TIP3    H139282   5.438   1.425  20.337  0.7451  0.0862 -1.1846
 5029TIP3    H239283   5.503   1.543  20.407 -0.2481 -0.5207  0.8446
 5030TIP3   OH239284   1.633   6.435  18.252  0.1199  0.4983  0.7370
 5030TIP3    H139285   1.724   6.461  18.270  1.2299 -1.2685 -1.7253
 5030TIP3    H239286   1.605   6.495  18.183  0.5035 -0.8167 -0.5935
 5031TIP3   OH239287   1.128   0.821  17.047 -0.0342  0.3067  0.3058
 5031TIP3    H139288   1.201   0.771  17.085 -0.8192 -0.7604  0.4693
 5031TIP3    H239289   1.133   0.906  17.090  0.8788  0.1171  0.6085
 5032TIP3   OH239290   2.764   2.366  19.417  0.3326 -0.4023 -0.4776
 5032TIP3    H139291   2.775   2.275  19.387 -3.1362 -0.6606 -1.4176
 5032TIP3    H239292   2.731   2.358  19.506  0.3780 -0.0688 -0.4315
 5033TIP3   OH239293   5.029   0.835  19.976 -0.4124  0.6277 -0.1801
 5033TIP3    H139294   5.070   0.880  20.051 -1.0674 -0.6300  0.9876
 5033TIP3    H239295   5.020   0.744  20.006 -1.3324  0.2464 -1.5521
 5034TIP3   OH239296   0.399   5.071  17.306  0.3948 -0.2334  0.4077
 5034TIP3    H139297   0.371   4.980  17.314  0.4710 -0.3223 -0.2549
 5034TIP3    H239298   0.478   5.067  17.251  2.1353 -0.0638  2.7320
 5035TIP3   OH239299   5.020   1.863  19.045 -0.1129  0.3593  0.0053
 5035TIP3    H139300   5.086   1.932  19.040  1.2362 -0.7286  1.6282
 5035TIP3    H239301   4.964   1.888  19.118  0.4586 -0.2814  0.6819
 5036TIP3   OH239302   0.053   1.661  17.555  0.6615  0.0123  0.5570
 5036TIP3    H139303   0.029   1.606  17.480 -0.9648 -0.4318  1.3543
 5036TIP3    H239304   0.091   1.739  17.516 -0.0196 -0.2672 -0.7446
 5037TIP3   OH239305   1.787   6.153  17.792 -0.0391 -0.5959 -0.4950
 5037TIP3    H139306   1.697   6.162  17.825  0.6849  0.8644  1.2700
 5037TIP3    H239307   1.784   6.188  17.703 -1.5526 -2.2379 -1.1538
 5038TIP3   OH239308   6.020   3.077  17.993  0.7915  0.0596 -0.6479
 5038TIP3    H139309   5.986   3.063  17.905 -3.5925  1.5848  0.5295
 5038TIP3    H239310   6.037   3.171  17.997  3.1375 -0.3090 -0.3975
 5039TIP3   OH239311   4.393   3.421  18.032  0.2387 -0.2634  0.2625
 5039TIP3    H139312   4.468   3.469  18.067  0.0574  0.4677 -0.3203
 5039TIP3    H239313   4.318   3.456  18.080  0.1141 -0.0053 -0.1163
 5040TIP3   OH239314   4.872   0.321  19.833  0.2710  0.6131  0.0894
 5040TIP3    H139315   4.791   0.271  19.832  1.4042 -1.3780 -1.9329
 5040TIP3    H239316   4.925   0.282  19.764  2.3233  2.9251  0.2145
 5041TIP3   OH239317   3.512   1.702  18.291  0.2177  0.5397  0.1007
 5041TIP3    H139318   3.473   1.665  18.371  1.7172 -0.3072  0.4726
 5041TIP3    H239319   3.510   1.631  18.228  1.5099  0.3519  0.2574
 5042TIP3   OH239320   1.686   3.137  17.549 -0.3840  0.2687  1.0731
 5042TIP3    H139321   1.749   3.197  17.587  0.2001 -0.6829  1.6623
 5042TIP3    H239322   1.672   3.169  17.460 -0.1926  1.3289  1.4133
 5043TIP3   OH239323   4.779   0.353  20.356 -0.0925 -0.7171 -0.0335
 5043TIP3    H139324   4.771   0.273  20.305 -1.8527 -0.4361 -0.2610
 5043TIP3    H239325   4.799   0.421  20.292 -2.3273 -0.3594 -0.4418
 5044TIP3   OH239326   5.177   5.295  19.703 -0.0745 -0.3672 -0.0939
 5044TIP3    H139327   5.234   5.348  19.759  0.6841  0.1959 -1.3475
 5044TIP3    H239328   5.126   5.242  19.764  0.7958  0.1391  1.1194
 5045TIP3   OH239329   5.391   2.544  18.299  0.1306 -0.0010 -0.2532
 5045TIP3    H139330   5.375   2.458  18.261  1.7291 -1.0291  1.2677
 5045TIP3    H239331   5.345   2.542  18.383 -0.4289  0.9220 -0.5239
 5046TIP3   OH239332   4.872   3.072  17.903 -0.4062  0.3383  0.4834
 5046TIP3    H139333   4.959   3.068  17.862 -0.7605 -3.0556 -0.1531
 5046TIP3    H239334   4.873   3.002  17.968 -1.8681  1.9041  2.3048
 5047TIP3   OH239335   3.388   1.031  17.567 -0.4593  0.1508  0.1692
 5047TIP3    H139336   3.478   1.063  17.570  0.0076 -1.1901  1.6283
 5047TIP3    H239337   3.396   0.939  17.543 -1.6393  0.5140 -1.9235
 5048TIP3   OH239338   0.467   2.529  16.677  0.1237 -0.6062  0.2195
 5048TIP3    H139339   0.416   2.483  16.611  0.1043  0.0257 -0.2158
 5048TIP3    H239340   0.447   2.622  16.663  0.5403 -0.4289  0.7537
 5049TIP3   OH239341   3.751   5.963  17.326  0.1460  0.7853 -0.2329
 5049TIP3    H139342   3.834   5.978  17.372 -1.0892 -1.3775  3.0627
 5049TIP3    H239343   3.753   5.870  17.304 -0.7288  1.0851 -1.6799
 5050TIP3   OH239344   0.943   3.875  17.613  0.0583  0.0002 -0.6012
 5050TIP3    H139345   0.916   3.953  17.566 -0.4895 -0.5255 -1.1808
 5050TIP3    H239346   1.000   3.828  17.551  0.6086  0.0698 -0.1600
 5051TIP3   OH239347   5.108   3.017  19.772 -0.6842  0.1239 -0.1892
 5051TIP3    H139348   5.107   2.921  19.779  2.6276  0.0120  0.6118
 5051TIP3    H239349   5.075   3.035  19.684  0.7485 -1.9628 -1.2340
 5052TIP3   OH239350   3.036   5.277  18.073  0.2539  0.0397  0.7344
 5052TIP3    H139351   2.956   5.254  18.119 -1.1107  1.0150 -1.0318
 5052TIP3    H239352   3.099   5.210  18.100 -1.7479 -2.0554  0.5270
 5053TIP3   OH239353   2.964   2.608  20.096  0.6991 -0.4418 -0.1724
 5053TIP3    H139354   2.919   2.554  20.030  1.4009 -0.0283 -0.9968
 5053TIP3    H239355   2.956   2.697  20.063 -0.2881 -0.0262  1.0938
 5054TIP3   OH239356   4.168   4.897  17.907 -0.5181  0.2290 -0.2466
 5054TIP3    H139357   4.215   4.965  17.858 -0.2844 -0.4361 -0.9659
 5054TIP3    H239358   4.077   4.926  17.907 -0.3486  0.7700 -0.1484
 5055TIP3   OH239359   5.412   3.085  19.050  0.1122  0.2053  0.5035
 5055TIP3    H139360   5.495   3.114  19.012  0.4974 -0.9955  0.3891
 5055TIP3    H239361   5.378   3.163  19.095  0.7487  1.0171 -0.3736
 5056TIP3   OH239362   6.613   5.443  18.029 -0.3518 -0.0322  0.4394
 5056TIP3    H139363   6.576   5.376  18.087 -1.6730  0.8618  0.6722
 5056TIP3    H239364   6.639   5.394  17.951 -0.1857 -0.9905  1.0647
 5057TIP3   OH239365   0.876   2.645  18.995  0.2439  0.3401  0.4265
 5057TIP3    H139366   0.840   2.557  18.983  0.0626  0.4941 -0.1835
 5057TIP3    H239367   0.948   2.651  18.932  0.0735  0.7261  0.2596
 5058TIP3   OH239368   6.696   3.708  19.344  0.3922 -0.0851  1.0265
 5058TIP3    H139369   6.710   3.759  19.264  0.7112 -0.1416  1.0480
 5058TIP3    H239370   6.783   3.696  19.381  0.1097  1.3143  2.2506
 5059TIP3   OH239371   3.869   1.801  19.727 -0.1788 -0.1354  0.2599
 5059TIP3    H139372   3.936   1.870  19.721 -1.0219  0.6495 -0.7723
 5059TIP3    H239373   3.897   1.735  19.664 -0.8998  0.7111 -1.0009
 5060TIP3   OH239374   5.850   1.883  16.649  0.1675 -0.5981 -0.1696
 5060TIP3    H139375   5.908   1.807  16.646 -0.5297 -1.1070 -2.0147
 5060TIP3    H239376   5.798   1.877  16.569 -1.4906  0.5869  0.7653
 5061TIP3   OH239377   3.998   4.993  19.361 -0.7146  0.0167  0.5036
 5061TIP3    H139378   3.976   4.965  19.272  2.0336  0.5895 -0.4653
 5061TIP3    H239379   3.973   5.085  19.364  0.4338  0.3805 -0.2180
 5062TIP3   OH239380   0.927   0.123  17.866 -0.1402  0.6439  0.2514
 5062TIP3    H139381   0.843   0.119  17.821 -0.0287  0.2786  0.0720
 5062TIP3    H239382   0.905   0.147  17.956 -0.3138  1.9867 -0.1327
 5063TIP3   OH239383   6.013   5.260  19.066 -0.3136  0.2417  0.1314
 5063TIP3    H139384   6.028   5.207  19.145  0.7173  0.7345  0.2956
 5063TIP3    H239385   6.043   5.348  19.091  0.7912  0.2330 -1.0400
 5064TIP3   OH239386   6.132   5.658  17.886  0.3387 -0.1270  0.1670
 5064TIP3    H139387   6.119   5.651  17.792  1.2840  3.2663 -0.3268
 5064TIP3    H239388   6.055   5.616  17.924 -0.8194 -0.2149 -2.1370
 5065TIP3   OH239389   4.424   6.171  18.375 -0.5016 -0.3207 -0.2337
 5065TIP3    H139390   4.443   6.170  18.469  0.3049  0.1797 -0.3811
 5065TIP3    H239391   4.510   6.183  18.333 -0.6728 -1.8519 -1.0980
 5066TIP3   OH239392   4.115   4.508  18.887  0.6641  0.3413 -0.1378
 5066TIP3    H139393   4.052   4.446  18.924  1.1789 -0.7997 -1.0858
 5066TIP3    H239394   4.199   4.483  18.927  1.0182 -0.1318 -1.1467
 5067TIP3   OH239395   4.164   4.438  19.218  0.3605  0.4455 -0.2153
 5067TIP3    H139396   4.202   4.352  19.200 -0.7154  0.1536 -1.2447
 5067TIP3    H239397   4.201   4.464  19.302  0.6780 -1.0427  0.1320
 5068TIP3   OH239398   4.911   2.535  18.236 -0.9542 -0.1558 -0.0792
 5068TIP3    H139399   4.944   2.625  18.242 -1.9429  0.2302 -0.3404
 5068TIP3    H239400   4.854   2.535  18.159 -0.8289 -1.0582 -0.1858
 5069TIP3   OH239401   0.309   4.818  17.078 -0.3762 -0.7960 -0.3453
 5069TIP3    H139402   0.308   4.817  16.983 -1.4488  0.9330 -0.3821
 5069TIP3    H239403   0.402   4.812  17.101  0.2422  2.0656 -1.6366
 5070TIP3   OH239404   2.660   5.760  18.905 -0.1216  0.8942  0.2637
 5070TIP3    H139405   2.717   5.706  18.851 -0.1555 -0.2245  1.2984
 5070TIP3    H239406   2.573   5.720  18.894 -0.4957  1.8586 -0.3756
 5071TIP3   OH239407   1.966   5.034  20.231 -0.4369  0.0725  0.0448
 5071TIP3    H139408   2.031   5.098  20.262  0.3987 -0.9006  0.3652
 5071TIP3    H239409   2.016   4.976  20.174 -1.3422  0.1201 -0.8079
 5072TIP3   OH239410   1.979   2.788  18.802  0.3608 -0.3817  0.2154
 5072TIP3    H139411   2.060   2.826  18.768 -0.0878 -1.5004 -2.3341
 5072TIP3    H239412   2.006   2.705  18.841  0.2823 -2.0643 -2.9886
 5073TIP3   OH239413   2.220   3.627  19.915 -0.0835 -0.0525 -0.2414
 5073TIP3    H139414   2.151   3.582  19.867  0.8469 -0.7115 -0.9934
 5073TIP3    H239415   2.229   3.712  19.871 -0.5563  0.1267 -0.0008
 5074TIP3   OH239416   4.106   1.544  19.825 -0.0426 -0.4464  0.4118
 5074TIP3    H139417   4.155   1.463  19.838 -1.5635 -1.2027  1.7919
 5074TIP3    H239418   4.033   1.538  19.887  0.6624  2.7316  1.7264
 5075TIP3   OH239419   0.462   6.200  17.398  0.0178  0.1541  0.2373
 5075TIP3    H139420   0.506   6.284  17.384 -0.5879  0.6248  1.1222
 5075TIP3    H239421   0.527   6.135  17.369  1.1545  0.8521  1.1025
 5076TIP3   OH239422   1.809   5.645  18.863 -0.0353  0.2213  0.1076
 5076TIP3    H139423   1.798   5.549  18.868 -1.1454  0.3075 -0.2498
 5076TIP3    H239424   1.813   5.664  18.770  2.2789  0.3509  0.1867
 5077TIP3   OH239425   4.760   6.347  19.349  0.2230  0.3971  0.0254
 5077TIP3    H139426   4.780   6.266  19.301  2.5385  0.3485  0.9588
 5077TIP3    H239427   4.690   6.322  19.409  1.5985 -1.2306  1.0197
 5078TIP3   OH239428   5.478   4.266  20.195  0.0099 -0.1304  0.6352
 5078TIP3    H139429   5.419   4.281  20.268  0.9050  2.5319  0.9139
 5078TIP3    H239430   5.527   4.348  20.186  1.1934 -1.0038 -1.8062
 5079TIP3   OH239431   6.130   1.274  17.518 -0.4457  0.0172 -0.1947
 5079TIP3    H139432   6.173   1.280  17.432 -0.3815 -0.8017 -0.2260
 5079TIP3    H239433   6.037   1.275  17.498 -0.4437  0.6780 -0.2064
 5080TIP3   OH239434   3.652   6.304  18.979  0.3151  0.1796 -0.2728
 5080TIP3    H139435   3.585   6.291  18.911  1.9961  2.3410 -2.5259
 5080TIP3    H239436   3.603   6.337  19.054 -1.2115  2.5787 -2.1361
 5081TIP3   OH239437   4.203   5.565  19.479 -0.3009 -0.5623 -0.1592
 5081TIP3    H139438   4.196   5.499  19.548  1.4462 -0.4052  0.2052
 5081TIP3    H239439   4.117   5.608  19.479 -0.5463 -0.9634  1.5110
 5082TIP3   OH239440   2.862   5.813  18.085 -0.5721  0.7208  0.3673
 5082TIP3    H139441   2.952   5.840  18.105  0.1463 -0.5847 -0.9233
 5082TIP3    H239442   2.852   5.729  18.130 -0.9686  0.6058  0.0653
 5083TIP3   OH239443   4.946   6.484  19.833  0.1238  0.7112 -0.2794
 5083TIP3    H139444   4.854   6.465  19.853  0.3147 -1.7368 -1.3483
 5083TIP3    H239445   4.986   6.398  19.820  2.3490  1.7533 -0.8305
 5084TIP3   OH239446   0.703   0.613  19.093 -0.3685 -0.3825  0.7088
 5084TIP3    H139447   0.711   0.527  19.135 -0.1311 -0.0549  1.3430
 5084TIP3    H239448   0.735   0.598  19.004  1.1963 -0.6126  1.2757
 5085TIP3   OH239449   5.710   4.191  17.926 -0.2482  0.4883 -0.2774
 5085TIP3    H139450   5.653   4.223  17.856  0.3280 -1.9285 -1.9614
 5085TIP3    H239451   5.799   4.210  17.896  0.0691 -1.6827 -0.9279
 5086TIP3   OH239452   2.617   2.664  16.562 -0.3562  0.1186  0.1210
 5086TIP3    H139453   2.562   2.642  16.487 -0.3978 -0.4324  0.3079
 5086TIP3    H239454   2.706   2.644  16.532 -0.3908 -0.2980  0.2790
 5087TIP3   OH239455   2.337   6.455  18.982  0.3041  0.2640 -0.3551
 5087TIP3    H139456   2.407   6.462  19.048  0.1542 -0.3855 -0.1104
 5087TIP3    H239457   2.257   6.450  19.034  0.3157 -2.3075 -0.4358
 5088TIP3   OH239458   4.833   1.427  18.069 -0.0183  0.2145  0.0490
 5088TIP3    H139459   4.863   1.516  18.088 -0.8767  0.2802  1.2524
 5088TIP3    H239460   4.864   1.375  18.144  0.0767 -0.4190 -0.4165
 5089TIP3   OH239461   4.816   4.517  17.183  0.5518  0.1084  0.3844
 5089TIP3    H139462   4.858   4.571  17.116  1.6275 -0.3152  0.6884
 5089TIP3    H239463   4.752   4.464  17.135  0.1532  0.9726 -0.0536
 5090TIP3   OH239464   6.014   2.541  20.156  0.0408 -0.3469  0.1367
 5090TIP3    H139465   6.073   2.491  20.099  0.6785  0.7030 -0.1633
 5090TIP3    H239466   5.998   2.622  20.108 -1.5099 -0.5190  0.3123
 5091TIP3   OH239467   0.149   5.736  17.977 -0.6583 -0.0169 -0.2570
 5091TIP3    H139468   0.210   5.745  17.904  0.1218 -0.5543  0.3204
 5091TIP3    H239469   0.196   5.686  18.043 -0.6940  1.9496  1.3718
 5092TIP3   OH239470   5.068   5.153  17.896 -0.1920  0.5895 -0.6776
 5092TIP3    H139471   5.043   5.215  17.965 -1.8661 -0.9920  0.2296
 5092TIP3    H239472   5.031   5.070  17.925  1.0857 -0.6345 -2.3690
 5093TIP3   OH239473   1.662   3.591  16.725 -0.3602 -0.0301 -0.4549
 5093TIP3    H139474   1.638   3.607  16.634 -0.8079 -0.3143 -0.3917
 5093TIP3    H239475   1.745   3.637  16.737 -1.4140  1.9727 -0.3663
 5094TIP3   OH239476   1.500   6.702  18.242 -0.0457  0.8164 -0.3435
 5094TIP3    H139477   1.485   6.646  18.318 -0.9512  1.0251 -0.3551
 5094TIP3    H239478   1.479   6.790  18.273  2.3236  1.3461 -0.0240
 5095TIP3   OH239479   6.114   1.900  19.186  0.2024  0.0511 -0.2520
 5095TIP3    H139480   6.197   1.859  19.212  0.1317  1.0345  1.6765
 5095TIP3    H239481   6.050   1.864  19.246  0.0311  2.4393  1.1152
 5096TIP3   OH239482   6.652   0.278  18.889 -0.1733  0.0594  0.0331
 5096TIP3    H139483   6.610   0.321  18.814  0.7085  1.0996  0.0994
 5096TIP3    H239484   6.683   0.350  18.943 -0.5395 -0.6872  1.2648
 5097TIP3   OH239485   2.228   5.424  17.840 -0.4319  0.9324 -0.1843
 5097TIP3    H139486   2.302   5.397  17.786 -0.0240  1.1595  0.2556
 5097TIP3    H239487   2.268   5.463  17.918 -0.9685 -1.2893  1.3024
 5098TIP3   OH239488   5.357   2.376  18.899  0.4898 -0.2649  0.0529
 5098TIP3    H139489   5.362   2.441  18.969 -0.1710 -1.1210  0.9178
 5098TIP3    H239490   5.407   2.302  18.932  1.4456 -0.1256 -1.0320
 5099TIP3   OH239491   6.232   0.638  19.882 -1.1299 -0.3291  0.0763
 5099TIP3    H139492   6.262   0.712  19.936  0.0163 -1.8340  1.5933
 5099TIP3    H239493   6.237   0.670  19.792  0.0837  1.1882  0.6439
 5100TIP3   OH239494   5.162   4.411  19.992 -0.1512 -0.5191  0.3296
 5100TIP3    H139495   5.181   4.319  20.011  0.9418 -0.2436  0.6204
 5100TIP3    H239496   5.123   4.444  20.073  0.9224 -0.3369  0.7930
 5101TIP3   OH239497   1.425   6.146  19.124 -0.4420 -0.1180  0.1707
 5101TIP3    H139498   1.472   6.205  19.183 -2.0423  0.0458  1.3521
 5101TIP3    H239499   1.485   6.132  19.051 -0.4500  3.9815 -0.8225
 5102TIP3   OH239500   4.557   3.782  18.728  0.4356  0.0487  0.1175
 5102TIP3    H139501   4.583   3.784  18.636 -0.1695  0.4978 -0.0556
 5102TIP3    H239502   4.599   3.859  18.766 -0.1261  0.4352 -0.0245
 5103TIP3   OH239503   3.407   2.311  18.269 -0.1164  0.0995  0.0000
 5103TIP3    H139504   3.445   2.359  18.196 -0.3254 -0.1289 -0.2578
 5103TIP3    H239505   3.398   2.377  18.338 -0.9992  0.5861 -0.5568
 5104TIP3   OH239506   3.589   5.097  17.353  0.8485 -0.1315  0.0499
 5104TIP3    H139507   3.512   5.041  17.343  0.9938 -0.7176  1.9516
 5104TIP3    H239508   3.663   5.037  17.352  1.0858  0.1326  0.9754
 5105TIP3   OH239509   5.045   3.976  18.638 -0.1718  0.1398  0.6063
 5105TIP3    H139510   5.076   3.915  18.571 -1.5904  0.0165  0.0224
 5105TIP3    H239511   5.104   4.051  18.630  0.7287 -0.5734  0.3852
 5106TIP3   OH239512   5.940   1.595  17.547 -0.1859 -0.5001  0.4908
 5106TIP3    H139513   5.879   1.549  17.604 -0.9631 -1.0374 -0.7434
 5106TIP3    H239514   5.908   1.578  17.459  1.7783 -0.8575 -0.2044
 5107TIP3   OH239515   3.164   2.828  19.780 -0.0989 -0.1817  0.1971
 5107TIP3    H139516   3.173   2.888  19.853  0.0028 -1.7679  1.5477
 5107TIP3    H239517   3.153   2.742  19.820 -0.6701 -1.0348 -1.6512
 5108TIP3   OH239518   2.650   0.516  17.970  0.2701  0.6673 -0.4855
 5108TIP3    H139519   2.650   0.504  17.875 -0.6631  0.9624 -0.5290
 5108TIP3    H239520   2.590   0.449  18.003  0.3843  0.7380 -0.1306
 5109TIP3   OH239521   1.147   2.574  19.875 -0.3740 -0.3623 -0.0075
 5109TIP3    H139522   1.136   2.567  19.969  2.2085 -2.6278  0.2620
 5109TIP3    H239523   1.220   2.635  19.863  0.2075 -1.1074 -0.4025
 5110TIP3   OH239524   1.786   3.276  19.733  0.2717  0.0201  0.0745
 5110TIP3    H139525   1.771   3.347  19.671  1.0022  1.2267  1.2465
 5110TIP3    H239526   1.881   3.271  19.741  0.1906  0.0059  1.2214
 5111TIP3   OH239527   2.808   4.831  17.779 -0.5671  0.1181  0.2943
 5111TIP3    H139528   2.726   4.881  17.786 -0.1552  0.9889 -0.8324
 5111TIP3    H239529   2.873   4.888  17.819 -0.1249  0.4342 -0.8390
 5112TIP3   OH239530   3.117   0.383  20.203 -0.0287  0.0695  0.1519
 5112TIP3    H139531   3.094   0.458  20.258  0.0490  1.9397 -2.1886
 5112TIP3    H239532   3.038   0.364  20.154  0.4034 -0.3369 -0.4039
 5113TIP3   OH239533   5.509   5.707  17.745  0.4670  0.0997 -0.4205
 5113TIP3    H139534   5.434   5.669  17.790  0.7073 -0.6545 -0.6470
 5113TIP3    H239535   5.569   5.634  17.731  0.1513  0.1733 -2.4618
 5114TIP3   OH239536   4.644   4.881  16.693 -0.0127 -0.0022 -0.0303
 5114TIP3    H139537   4.602   4.962  16.667 -0.2392  0.2483  1.0509
 5114TIP3    H239538   4.730   4.883  16.651  1.5064  2.5748  2.7701
 5115TIP3   OH239539   1.777   4.634  19.598  0.2489  0.3376 -0.7077
 5115TIP3    H139540   1.822   4.584  19.531 -0.1665 -0.2545 -0.5579
 5115TIP3    H239541   1.842   4.648  19.667  0.5169  0.4696 -0.9893
 5116TIP3   OH239542   4.032   0.563  18.222 -0.2914  0.3039  0.2071
 5116TIP3    H139543   3.968   0.544  18.153 -1.2160  1.1272  0.8143
 5116TIP3    H239544   3.981   0.605  18.292  0.8387  0.6078  0.8794
 5117TIP3   OH239545   3.958   5.252  19.414 -0.2141 -0.0291  1.3735
 5117TIP3    H139546   4.023   5.285  19.476  0.1190 -1.0288  1.5678
 5117TIP3    H239547   3.877   5.248  19.465  0.0985 -1.0207  1.8046
 5118TIP3   OH239548   0.730   4.374  16.647  0.1697  0.3177 -0.1372
 5118TIP3    H139549   0.792   4.432  16.602  0.5566 -0.4569 -0.6218
 5118TIP3    H239550   0.649   4.381  16.597  0.5854 -0.5038 -0.9433
 5119TIP3   OH239551   5.909   1.742  18.529  0.2169 -0.2967  0.2578
 5119TIP3    H139552   5.883   1.656  18.496  1.5386 -1.5214  2.1845
 5119TIP3    H239553   5.934   1.791  18.451  0.9633 -2.2307 -0.7886
 5120TIP3   OH239554   1.536   2.840  18.225 -0.1351 -0.4314  0.3300
 5120TIP3    H139555   1.449   2.870  18.197 -0.5426 -2.1592 -0.4139
 5120TIP3    H239556   1.525   2.818  18.317  0.0681  1.2121  0.7775
 5121TIP3   OH239557   4.374   2.654  18.464 -0.4618  0.1701  0.5532
 5121TIP3    H139558   4.389   2.663  18.370 -1.5978 -1.5248  0.1545
 5121TIP3    H239559   4.436   2.587  18.492 -1.0031 -0.2701  0.7292
 5122TIP3   OH239560   4.802   5.864  18.063 -0.2757 -0.6026  0.1476
 5122TIP3    H139561   4.736   5.818  18.116 -0.7259 -0.1923 -0.0498
 5122TIP3    H239562   4.870   5.889  18.126 -0.1747 -1.2630  0.3089
 5123TIP3   OH239563   5.374   4.740  19.152  0.6979 -0.2672  0.6591
 5123TIP3    H139564   5.401   4.651  19.174  0.9173 -0.2426  0.4956
 5123TIP3    H239565   5.410   4.754  19.064 -1.0654 -0.7533 -0.1772
 5124TIP3   OH239566   4.909   4.549  17.519  1.0230  0.5232 -1.0424
 5124TIP3    H139567   4.817   4.568  17.534  0.9046 -0.3406 -0.6255
 5124TIP3    H239568   4.920   4.555  17.424  0.0775 -1.2884 -1.2972
 5125TIP3   OH239569   4.371   1.247  18.028 -0.0504  0.0460 -0.0928
 5125TIP3    H139570   4.451   1.300  18.024 -0.2492  0.5724  1.8876
 5125TIP3    H239571   4.346   1.235  17.936  0.1464  3.1852 -0.6818
 5126TIP3   OH239572   5.959   3.914  19.110  0.1173 -0.3497  0.3655
 5126TIP3    H139573   5.961   3.907  19.015 -0.0345 -1.8324  0.4458
 5126TIP3    H239574   5.866   3.924  19.132  0.1699  0.1845  0.3525
 5127TIP3   OH239575   5.873   5.374  20.052 -0.2329  0.4946 -0.3804
 5127TIP3    H139576   5.946   5.349  20.108 -0.8836 -0.2813  0.1469
 5127TIP3    H239577   5.881   5.318  19.975 -1.4695 -1.1600  0.6299
 5128TIP3   OH239578   0.307   1.393  18.625  0.1276 -0.0506  0.5134
 5128TIP3    H139579   0.245   1.452  18.582  1.6465 -0.8367 -3.1229
 5128TIP3    H239580   0.264   1.368  18.707 -1.6856  3.9900  1.0612
 5129TIP3   OH239581   5.107   6.373  17.038 -0.0246  0.0485  0.5719
 5129TIP3    H139582   5.079   6.435  16.969 -0.1362 -0.5514  0.0720
 5129TIP3    H239583   5.181   6.327  17.000  1.3119  1.2013  1.6747
 5130TIP3   OH239584   3.239   6.118  19.503 -0.2007 -0.3967 -0.0982
 5130TIP3    H139585   3.158   6.123  19.453  0.5361  1.7249 -1.2135
 5130TIP3    H239586   3.252   6.206  19.537  2.0992 -0.4125 -0.7507
 5131TIP3   OH239587   3.746   0.236  18.530  0.1037  0.1770  0.3258
 5131TIP3    H139588   3.718   0.301  18.465  0.3138 -1.1949 -1.1908
 5131TIP3    H239589   3.731   0.279  18.614 -0.2283  1.9990 -0.6095
 5132TIP3   OH239590   2.853   1.343  18.602 -0.1474  0.0848 -0.0196
 5132TIP3    H139591   2.857   1.256  18.563  0.3473  0.1851 -0.2022
 5132TIP3    H239592   2.811   1.397  18.534 -3.2908 -0.5881  1.1929
 5133TIP3   OH239593   6.362   2.461  19.127  0.0821 -0.4494 -0.3010
 5133TIP3    H139594   6.405   2.431  19.208 -0.1218  0.6220  0.2160
 5133TIP3    H239595   6.286   2.510  19.157 -0.6858 -1.0766 -1.1880
 5134TIP3   OH239596   4.037   4.939  17.157  0.1921 -0.3871 -0.2200
 5134TIP3    H139597   4.095   4.947  17.081 -1.0257  1.6084 -1.0285
 5134TIP3    H239598   4.087   4.974  17.230  0.9003 -1.0678 -0.3732
 5135TIP3   OH239599   5.972   1.076  17.314  0.1208 -0.0323  0.1083
 5135TIP3    H139600   5.909   1.035  17.255  1.5464 -1.0600 -0.7732
 5135TIP3    H239601   6.057   1.061  17.273  0.8747  2.4424  0.5841
 5136TIP3   OH239602   1.032   3.216  18.813 -0.0757 -0.2795  0.6383
 5136TIP3    H139603   1.033   3.213  18.909  0.2370 -0.3206  0.6352
 5136TIP3    H239604   0.997   3.302  18.792  0.5310  0.0138  0.7976
 5137TIP3   OH239605   2.145   4.515  19.744 -0.2730  0.2294  0.0210
 5137TIP3    H139606   2.084   4.575  19.702 -0.3909  0.7598  0.9087
 5137TIP3    H239607   2.225   4.521  19.692 -0.4656  0.7432 -0.2265
 5138TIP3   OH239608   6.415   0.920  19.698 -0.4474 -0.0169 -0.1219
 5138TIP3    H139609   6.460   0.986  19.751  0.4231  0.3856 -1.3088
 5138TIP3    H239610   6.482   0.855  19.678 -0.4733  0.3333 -1.4996
 5139TIP3   OH239611   3.615   4.594  17.856  0.2648 -0.4074 -0.2044
 5139TIP3    H139612   3.626   4.679  17.812 -1.3119 -0.5439 -0.9243
 5139TIP3    H239613   3.613   4.615  17.949  0.5786  0.2618 -0.3440
 5140TIP3   OH239614   2.822   3.614  18.887  0.4506  0.6185  0.4629
 5140TIP3    H139615   2.785   3.657  18.964  2.3008  1.8175  0.7405
 5140TIP3    H239616   2.816   3.679  18.817 -0.7776 -0.2954 -0.3367
 5141TIP3   OH239617   1.150   3.111  19.796 -0.1317  0.0471  0.4188
 5141TIP3    H139618   1.164   3.206  19.803  1.7448 -0.2318  0.7861
 5141TIP3    H239619   1.117   3.086  19.883  1.8518  0.0132  1.2220
 5142TIP3   OH239620   6.586   6.040  17.378 -0.4856 -0.3535 -0.0664
 5142TIP3    H139621   6.665   6.060  17.328 -0.1774 -1.7533 -0.2002
 5142TIP3    H239622   6.577   5.945  17.370 -0.7541 -0.5582  2.0285
 5143TIP3   OH239623   3.711   6.734  19.924  0.7078 -0.1567  0.4954
 5143TIP3    H139624   3.632   6.787  19.931  0.1458 -0.9043 -0.0308
 5143TIP3    H239625   3.765   6.762  19.998 -1.2863 -1.6553  2.6764
 5144TIP3   OH239626   0.682   4.897  18.315  0.0681 -0.1115 -0.0050
 5144TIP3    H139627   0.688   4.987  18.284 -3.3231  0.9476  1.8292
 5144TIP3    H239628   0.682   4.905  18.411 -2.4103 -1.7103  0.2308
 5145TIP3   OH239629   0.469   3.695  18.768  0.1002 -0.1340  0.6014
 5145TIP3    H139630   0.391   3.656  18.729 -0.6573  0.4760  1.4596
 5145TIP3    H239631   0.495   3.763  18.705 -0.0600 -0.3344  0.3173
 5146TIP3   OH239632   4.743   4.425  19.746  0.9201 -0.0120 -0.2915
 5146TIP3    H139633   4.659   4.464  19.771  1.2672  0.2401  0.5037
 5146TIP3    H239634   4.769   4.473  19.667 -0.4375 -1.1717 -1.4924
 5147TIP3   OH239635   6.494   1.492  18.467  0.5871 -0.1249 -0.2120
 5147TIP3    H139636   6.415   1.504  18.415  0.8327 -0.3121 -0.6288
 5147TIP3    H239637   6.558   1.455  18.406  0.4786 -1.6109  0.5240
 5148TIP3   OH239638   5.343   6.040  17.452  0.2988 -0.6745  0.4007
 5148TIP3    H139639   5.302   6.052  17.537  0.3082 -1.6787  0.5567
 5148TIP3    H239640   5.394   6.119  17.439 -2.1022  0.9236 -0.0556
 5149TIP3   OH239641   0.883   4.093  16.988 -0.0880 -0.2940 -0.4812
 5149TIP3    H139642   0.855   4.046  17.067  0.4476  1.9367  1.1406
 5149TIP3    H239643   0.801   4.117  16.944 -0.4682 -0.2057  0.2601
 5150TIP3   OH239644   1.608   5.990  19.427  0.5316 -0.3546  0.3918
 5150TIP3    H139645   1.644   6.046  19.358 -3.1964 -0.2583 -1.7182
 5150TIP3    H239646   1.639   5.902  19.406  0.8741 -0.0585 -0.3610
 5151TIP3   OH239647   0.200   3.727  20.026 -0.1635 -0.1513 -0.3251
 5151TIP3    H139648   0.214   3.691  19.939  0.3731  1.2189 -0.8344
 5151TIP3    H239649   0.155   3.658  20.074  1.5006 -1.7678 -1.0147
 5152TIP3   OH239650   3.540   4.863  19.678 -0.2039  1.0477 -0.2023
 5152TIP3    H139651   3.508   4.775  19.693 -2.0200  1.4687 -1.2730
 5152TIP3    H239652   3.632   4.852  19.654  0.1687 -0.3354  1.6816
 5153TIP3   OH239653   4.552   4.457  17.333 -0.0388  0.1724 -0.4900
 5153TIP3    H139654   4.485   4.526  17.328 -0.1270  0.0078 -2.6468
 5153TIP3    H239655   4.627   4.494  17.285  0.0868 -1.0333 -1.2450
 5154TIP3   OH239656   2.496   3.392  17.842  0.5971 -0.0724 -0.2475
 5154TIP3    H139657   2.556   3.322  17.867  2.9776  2.2110  0.9245
 5154TIP3    H239658   2.483   3.380  17.748  3.7885 -0.1155 -0.7818
 5155TIP3   OH239659   4.276   4.563  19.410 -0.3436 -0.0597 -0.0399
 5155TIP3    H139660   4.257   4.632  19.346  1.5491 -0.2036 -0.8179
 5155TIP3    H239661   4.358   4.590  19.450 -0.5395 -0.9398  0.9850
 5156TIP3   OH239662   3.582   0.850  19.997 -0.4169 -0.3069 -0.3507
 5156TIP3    H139663   3.581   0.770  20.050  0.5795  0.9681  1.7308
 5156TIP3    H239664   3.497   0.852  19.954 -0.2657 -2.7351 -0.8955
 5157TIP3   OH239665   0.140   6.311  16.803 -0.4463 -0.0065  0.2252
 5157TIP3    H139666   0.120   6.385  16.745  0.4727 -0.5317 -0.8073
 5157TIP3    H239667   0.212   6.344  16.858  2.0271 -0.9815 -2.2089
 5158TIP3   OH239668   5.473   3.619  18.369  0.8815 -0.7545 -0.2446
 5158TIP3    H139669   5.378   3.623  18.380  0.8370  0.1474 -0.8420
 5158TIP3    H239670   5.501   3.549  18.428 -0.1616 -1.1053 -0.1447
 5159TIP3   OH239671   3.513   5.103  19.927  0.1900  0.3570  0.1953
 5159TIP3    H139672   3.520   5.009  19.910  1.5062  0.8998 -2.8175
 5159TIP3    H239673   3.426   5.113  19.967 -0.6530 -1.9874 -0.8513
 5160TIP3   OH239674   4.150   1.161  19.645  0.0602 -0.5899 -0.0883
 5160TIP3    H139675   4.216   1.182  19.578  0.1471 -0.3242  0.0778
 5160TIP3    H239676   4.177   1.213  19.721  0.2420 -1.2745  0.3166
 5161TIP3   OH239677   1.856   1.113  18.929  0.0837 -0.5385  0.2006
 5161TIP3    H139678   1.781   1.078  18.978 -0.5550 -1.5471 -1.4126
 5161TIP3    H239679   1.832   1.204  18.910  0.6986  0.1378  2.3673
 5162TIP3   OH239680   4.965   1.475  18.718  0.8107  0.1931  0.2498
 5162TIP3    H139681   4.897   1.461  18.784 -1.2291  1.9368 -1.3422
 5162TIP3    H239682   4.995   1.564  18.733 -0.1425  0.8417 -1.5156
 5163TIP3   OH239683   2.943   5.693  19.539  0.1002  0.5343  0.2577
 5163TIP3    H139684   2.979   5.739  19.615  0.5946 -0.1296  0.4336
 5163TIP3    H239685   2.868   5.746  19.512  1.5915  2.3560 -0.5493
 5164TIP3   OH239686   1.740   4.876  19.905 -0.3963  0.2472 -0.4140
 5164TIP3    H139687   1.655   4.838  19.879 -0.0664 -0.2561 -0.7747
 5164TIP3    H239688   1.717   4.947  19.965 -1.0845  0.2413 -0.6615
 5165TIP3   OH239689   3.389   4.636  19.426 -0.5496 -0.0103 -0.4196
 5165TIP3    H139690   3.402   4.565  19.362 -1.3579 -0.0717 -0.5281
 5165TIP3    H239691   3.301   4.621  19.460 -0.1221  0.0156  0.7314
 5166TIP3   OH239692   3.885   1.707  18.762 -0.8125 -0.0900  0.5151
 5166TIP3    H139693   3.862   1.702  18.855  0.6006 -0.1949  0.8797
 5166TIP3    H239694   3.980   1.693  18.760 -0.5031  1.8179 -0.7548
 5167TIP3   OH239695   3.771   4.598  18.740 -0.6270  0.3356  0.0777
 5167TIP3    H139696   3.733   4.601  18.828 -0.7919  1.7942 -0.0121
 5167TIP3    H239697   3.862   4.625  18.752 -0.1389 -1.1982  0.0195
 5168TIP3   OH239698   4.598   4.808  17.935  0.2000 -0.4613 -0.3175
 5168TIP3    H139699   4.677   4.754  17.939  0.5516  0.0855  0.1626
 5168TIP3    H239700   4.528   4.745  17.920  0.9173 -0.7945 -2.6772
 5169TIP3   OH239701   4.634   5.000  19.565  0.3607 -0.0319  0.1392
 5169TIP3    H139702   4.600   4.927  19.512  0.0345  0.4179 -0.2891
 5169TIP3    H239703   4.579   5.074  19.540  0.6577  0.3496  0.6089
 5170TIP3   OH239704   3.717   4.372  19.730  0.3460  0.3165 -0.2565
 5170TIP3    H139705   3.700   4.314  19.804  1.5071 -0.8394 -0.8496
 5170TIP3    H239706   3.664   4.450  19.747 -1.3406 -0.9453  0.5337
 5171TIP3   OH239707   2.225   1.100  19.818  0.3049 -0.2688 -0.1411
 5171TIP3    H139708   2.237   1.056  19.734 -0.5688  1.6048 -1.3055
 5171TIP3    H239709   2.282   1.177  19.814 -0.7665  0.5983  0.3775
 5172TIP3   OH239710   0.166   1.888  18.090 -0.7205 -0.0068  0.0947
 5172TIP3    H139711   0.183   1.800  18.125  0.3463  0.0680 -0.1847
 5172TIP3    H239712   0.253   1.921  18.066 -1.1413  1.0096 -0.0848
 5173TIP3   OH239713   3.456   2.228  19.715  0.1680  0.0113 -0.1710
 5173TIP3    H139714   3.518   2.265  19.652  1.2721  0.3889  1.0857
 5173TIP3    H239715   3.478   2.135  19.719 -0.5002 -0.1903 -0.9863
 5174TIP3   OH239716   5.508   1.254  19.382  0.9231 -0.0704 -0.2381
 5174TIP3    H139717   5.421   1.237  19.346  0.4566  0.1413  0.7611
 5174TIP3    H239718   5.532   1.340  19.347  0.5272  0.0793 -0.1539
 5175TIP3   OH239719   3.394   4.410  17.752 -0.4108 -0.4890  0.2890
 5175TIP3    H139720   3.326   4.417  17.819 -2.1378  4.0176 -1.5246
 5175TIP3    H239721   3.466   4.463  17.785 -0.6937  0.5580 -0.7058
 5176TIP3   OH239722   4.386   2.039  19.830 -0.5434  0.4350  0.7499
 5176TIP3    H139723   4.293   2.057  19.841 -0.3289  2.5455 -0.2450
 5176TIP3    H239724   4.429   2.118  19.861  0.9848 -0.7207  1.7086
 5177TIP3   OH239725   3.431   1.695  19.623 -0.2784  0.5336  0.4465
 5177TIP3    H139726   3.423   1.612  19.669  0.4219  0.7640  1.0116
 5177TIP3    H239727   3.347   1.707  19.579  0.3515 -1.5423 -1.4908
 5178TIP3   OH239728   4.205   5.193  18.271  0.7641 -0.3239 -0.2556
 5178TIP3    H139729   4.247   5.277  18.291  1.3856 -0.5241 -0.6630
 5178TIP3    H239730   4.277   5.129  18.277  0.9012 -0.4726 -2.5272
 5179TIP3   OH239731   6.523   6.601  18.466 -0.3499  0.5599 -0.0445
 5179TIP3    H139732   6.522   6.532  18.532  0.4189 -0.8450 -1.4332
 5179TIP3    H239733   6.430   6.624  18.454 -0.8196 -1.4778 -0.7473
 5180TIP3   OH239734   5.757   3.411  19.973  0.4073  0.3589 -0.7767
 5180TIP3    H139735   5.746   3.489  19.919  0.2190  1.3300  0.6130
 5180TIP3    H239736   5.841   3.424  20.017 -0.0846  0.2777  0.2157
 5181TIP3   OH239737   0.624   1.527  19.191 -0.1092 -0.2718 -0.1016
 5181TIP3    H139738   0.567   1.512  19.116 -0.2187 -1.6908  0.2523
 5181TIP3    H239739   0.656   1.441  19.215  0.6487  0.2762  0.9268
 5182TIP3   OH239740   1.470   3.370  17.898  0.1519  0.0074  0.1449
 5182TIP3    H139741   1.538   3.437  17.908 -1.1761  1.1938  1.7762
 5182TIP3    H239742   1.449   3.344  17.987 -2.3597  0.5837 -0.2067
 5183TIP3   OH239743   2.649   6.158  19.224  0.2771  0.0706  0.5574
 5183TIP3    H139744   2.595   6.101  19.278  0.8974 -1.4877 -0.4095
 5183TIP3    H239745   2.660   6.110  19.141  1.3918  1.2832 -0.0335
 5184TIP3   OH239746   5.161   4.005  17.092 -0.2086  0.0040  0.4233
 5184TIP3    H139747   5.125   4.094  17.086 -1.6089 -0.6319 -1.7374
 5184TIP3    H239748   5.113   3.956  17.025  0.2697 -2.4800  1.7993
 5185TIP3   OH239749   4.090   4.902  18.572  0.5812 -0.4407 -0.5920
 5185TIP3    H139750   4.073   4.879  18.663  1.1592 -0.9877 -0.6172
 5185TIP3    H239751   4.038   4.839  18.522  1.4638 -1.1451 -0.6507
 5186TIP3   OH239752   0.657   1.637  20.189 -0.5667  0.6610 -0.3663
 5186TIP3    H139753   0.620   1.600  20.269 -1.3487 -0.4539 -1.2220
 5186TIP3    H239754   0.748   1.655  20.211 -0.7039  0.1424  0.6930
 5187TIP3   OH239755   1.264   6.245  19.523 -0.4134 -0.0848  0.1176
 5187TIP3    H139756   1.250   6.337  19.542  0.5489  0.1185 -0.0851
 5187TIP3    H239757   1.352   6.227  19.557  0.1737 -0.4480 -1.5098
 5188TIP3   OH239758   0.185   5.886  18.718  0.2469  0.1789 -0.1802
 5188TIP3    H139759   0.263   5.840  18.750  0.9314  1.5812  0.2527
 5188TIP3    H239760   0.130   5.896  18.796 -0.2426 -0.5325 -0.4228
 5189TIP3   OH239761   0.572   4.339  19.135  0.0364 -0.3340  0.2504
 5189TIP3    H139762   0.575   4.396  19.058 -0.2578  2.0786  1.9277
 5189TIP3    H239763   0.481   4.311  19.141  0.2008 -1.1136 -0.6334
 5190TIP3   OH239764   2.497   4.075  17.941 -0.4180  0.6501  0.5608
 5190TIP3    H139765   2.505   3.992  17.895 -0.9251 -0.5101  2.4328
 5190TIP3    H239766   2.587   4.100  17.962 -0.2992  0.1599  0.6491
 5191TIP3   OH239767   4.179   2.846  18.788 -0.0472 -0.1579 -0.2963
 5191TIP3    H139768   4.164   2.850  18.693  0.8673 -2.3903 -0.6070
 5191TIP3    H239769   4.160   2.934  18.819 -1.2570  0.3962 -2.4180
 5192TIP3   OH239770   4.150   3.803  17.937  0.4090  0.6137 -0.2994
 5192TIP3    H139771   4.237   3.771  17.914  0.3559  0.0174  0.3075
 5192TIP3    H239772   4.150   3.895  17.910  1.0258  0.4626 -0.8295
 5193TIP3   OH239773   6.418   4.381  19.489  0.4535  0.1881 -0.4459
 5193TIP3    H139774   6.487   4.381  19.555  3.1188 -0.8732 -3.0297
 5193TIP3    H239775   6.389   4.290  19.483 -0.5424  0.4592 -0.0739
 5194TIP3   OH239776   0.043   2.878  16.888 -0.5293  0.0629 -0.1959
 5194TIP3    H139777   0.060   2.941  16.818 -3.6984  1.4648  0.1000
 5194TIP3    H239778   0.049   2.793  16.845  2.5077  0.5328 -0.9222
 5195TIP3   OH239779   3.789   2.662  20.215 -0.0937 -0.2340  0.2461
 5195TIP3    H139780   3.866   2.670  20.159 -0.4655  2.1390 -0.0282
 5195TIP3    H239781   3.824   2.653  20.303  0.7199  4.4300  0.6351
 5196TIP3   OH239782   1.216   1.245  19.865  0.9362  0.6471  0.4648
 5196TIP3    H139783   1.141   1.303  19.858  2.0513  2.0050 -1.0234
 5196TIP3    H239784   1.186   1.173  19.921 -1.4955  1.0342 -0.2321
 5197TIP3   OH239785   6.628   0.208  20.245 -0.1109  0.3433 -0.4418
 5197TIP3    H139786   6.604   0.298  20.267 -0.4862  0.1703 -0.1345
 5197TIP3    H239787   6.545   0.165  20.227  0.1059  0.1725 -1.0388
 5198TIP3   OH239788   1.069   0.854  17.856  0.3045  0.4182 -0.1369
 5198TIP3    H139789   1.049   0.772  17.812  0.5766  0.5293 -0.4752
 5198TIP3    H239790   1.157   0.877  17.826  2.0573 -1.3176  3.1893
 5199TIP3   OH239791   1.061   4.282  17.087 -0.3618  0.0356 -0.4901
 5199TIP3    H139792   1.155   4.266  17.081 -0.2605  0.8920 -1.3085
 5199TIP3    H239793   1.022   4.195  17.080  0.3775 -0.3830  0.3598
 5200TIP3   OH239794   4.387   5.930  18.113  0.6850  0.3857  0.1830
 5200TIP3    H139795   4.363   6.017  18.146 -1.7789 -0.0835 -0.2007
 5200TIP3    H239796   4.381   5.939  18.018 -1.7018 -0.6843  0.1708
 5201TIP3   OH239797   0.431   5.433  16.440 -0.4094  0.2758 -0.1809
 5201TIP3    H139798   0.479   5.356  16.471  0.8425  1.0716 -0.0919
 5201TIP3    H239799   0.351   5.434  16.491  0.0644 -0.3623  0.5951
 5202TIP3   OH239800   4.916   1.073  18.498  0.1841  0.7329  0.0726
 5202TIP3    H139801   4.887   1.044  18.584  0.0616  0.8357  0.0652
 5202TIP3    H239802   5.007   1.042  18.492  0.3787  1.2102  0.4633
 5203TIP3   OH239803   1.975   3.581  16.903 -0.4757  0.2226 -0.2054
 5203TIP3    H139804   1.964   3.570  16.809 -3.4812  0.7961 -0.0220
 5203TIP3    H239805   1.920   3.512  16.942 -0.5986  1.0153  1.0871
 5204TIP3   OH239806   5.170   5.713  17.579 -0.2187  0.0052  0.4384
 5204TIP3    H139807   5.220   5.635  17.552 -0.5520 -0.4083  1.0115
 5204TIP3    H239808   5.095   5.679  17.627  0.5014  0.7330  2.1523
 5205TIP3   OH239809   2.172   6.705  19.803  0.0478 -0.2980 -0.4424
 5205TIP3    H139810   2.116   6.782  19.801 -0.2921 -0.5409 -0.3779
 5205TIP3    H239811   2.260   6.739  19.788  0.1567  0.3366  1.3760
 5206TIP3   OH239812   2.751   5.035  16.637  0.3321 -0.3589  0.4213
 5206TIP3    H139813   2.799   4.999  16.562 -0.5806 -0.2758 -0.2180
 5206TIP3    H239814   2.757   5.130  16.626  0.1098 -0.3470  0.3854
 5207TIP3   OH239815   6.667   4.725  17.102 -0.0380  0.1714 -0.0886
 5207TIP3    H139816   6.717   4.807  17.105 -2.6941  1.9903 -1.2915
 5207TIP3    H239817   6.576   4.753  17.092 -1.0398 -2.9587 -0.9800
 5208TIP3   OH239818   5.897   4.851  18.200 -0.0939 -0.2658 -0.2969
 5208TIP3    H139819   5.898   4.902  18.281 -1.0849 -1.0120  0.1972
 5208TIP3    H239820   5.899   4.918  18.131 -0.2557  0.4079  0.3305
 5209TIP3   OH239821   1.884   4.178  16.608  0.0442 -0.1420 -0.1476
 5209TIP3    H139822   1.935   4.098  16.595 -0.4494 -0.8063  1.6708
 5209TIP3    H239823   1.813   4.151  16.667 -0.3865  1.5481  0.1363
 5210TIP3   OH239824   3.807   1.716  19.050 -0.5474 -0.1844  0.0423
 5210TIP3    H139825   3.799   1.622  19.062 -2.0668 -0.0622  0.0853
 5210TIP3    H239826   3.724   1.752  19.080  0.2051  1.2333  0.5307
 5211TIP3   OH239827   3.696   5.448  19.988  0.0568  0.2142 -0.0159
 5211TIP3    H139828   3.690   5.358  20.022 -1.4674 -0.1898 -1.2557
 5211TIP3    H239829   3.755   5.492  20.050 -0.7696 -1.0803  1.8044
 5212TIP3   OH239830   4.468   3.504  18.443 -0.1201  0.4668  0.0056
 5212TIP3    H139831   4.458   3.594  18.414 -0.6686  0.0923 -1.0156
 5212TIP3    H239832   4.392   3.458  18.408  1.0109 -0.7505 -0.9812
 5213TIP3   OH239833   2.192   2.533  16.697  0.2937  0.2646  0.1410
 5213TIP3    H139834   2.137   2.611  16.690 -0.3591  0.0110  1.9262
 5213TIP3    H239835   2.196   2.498  16.608 -2.1353  0.5010 -0.1077
 5214TIP3   OH239836   2.751   6.139  17.779 -0.3171 -0.0968 -0.4669
 5214TIP3    H139837   2.684   6.082  17.816 -1.0602  0.4546 -0.9317
 5214TIP3    H239838   2.830   6.084  17.775 -0.5119 -0.4967  0.8523
 5215TIP3   OH239839   6.318   2.612  19.514  0.1577  0.3955 -0.4024
 5215TIP3    H139840   6.249   2.591  19.451  0.1333 -3.3421  0.6460
 5215TIP3    H239841   6.276   2.604  19.600  1.3391  0.5501  0.2083
 5216TIP3   OH239842   4.771   0.414  19.250  0.2067  0.1977 -0.5500
 5216TIP3    H139843   4.849   0.393  19.199  0.7094 -2.4253  1.0882
 5216TIP3    H239844   4.793   0.495  19.296  1.7639 -0.2002 -0.5390
 5217TIP3   OH239845   1.209   1.431  18.928 -0.3452 -0.0920  0.7471
 5217TIP3    H139846   1.140   1.476  18.978 -0.5663 -1.5749  1.8548
 5217TIP3    H239847   1.175   1.342  18.917  0.2739 -0.1436 -0.9920
 5218TIP3   OH239848   2.622   2.512  18.024 -0.0805  0.3618  0.7358
 5218TIP3    H139849   2.528   2.517  18.039 -0.2566 -3.4043  1.8983
 5218TIP3    H239850   2.659   2.489  18.109  1.2054 -2.9572 -0.5373
 5219TIP3   OH239851   2.661   3.882  20.333  0.3392  0.1851  0.5967
 5219TIP3    H139852   2.643   3.788  20.338  0.4314  0.1870  1.0189
 5219TIP3    H239853   2.756   3.887  20.321 -0.0000  0.1288 -3.2054
 5220TIP3   OH239854   2.254   5.137  20.199 -0.1533  0.0028  0.4044
 5220TIP3    H139855   2.329   5.087  20.166  0.2773  1.2036 -0.5444
 5220TIP3    H239856   2.290   5.224  20.217 -0.8155 -0.0933  2.3078
 5221TIP3   OH239857   6.218   4.082  19.702  0.4333 -0.1453 -0.2059
 5221TIP3    H139858   6.310   4.083  19.730  0.8267  2.2116 -1.3605
 5221TIP3    H239859   6.221   4.106  19.609 -1.3993  0.8456 -0.0533
 5222TIP3   OH239860   6.002   2.245  18.351 -0.5895  0.1366 -0.5702
 5222TIP3    H139861   6.050   2.328  18.344 -1.5012  0.7780  0.3710
 5222TIP3    H239862   5.972   2.243  18.442  0.1755 -1.6902 -0.3186
 5223TIP3   OH239863   5.698   1.530  18.626 -0.1323  0.7007 -0.0601
 5223TIP3    H139864   5.732   1.508  18.539 -2.1498 -2.4314 -0.2127
 5223TIP3    H239865   5.766   1.501  18.686 -0.0259 -0.0892 -0.5363
 5224TIP3   OH239866   4.230   0.518  19.764 -0.1812  0.2949  0.5311
 5224TIP3    H139867   4.252   0.425  19.768  0.8053  0.5576  1.6050
 5224TIP3    H239868   4.154   0.527  19.822 -0.8306  0.0335 -0.2507
 5225TIP3   OH239869   6.525   4.434  17.721 -0.4151  0.4998 -0.1014
 5225TIP3    H139870   6.528   4.529  17.720 -0.7804  0.5235  0.3524
 5225TIP3    H239871   6.585   4.409  17.791  1.3968  0.2863 -1.6607
 5226TIP3   OH239872   3.313   2.466  17.552  0.1599  0.2013 -0.5887
 5226TIP3    H139873   3.391   2.440  17.503  0.2167  0.0368 -0.4137
 5226TIP3    H239874   3.246   2.480  17.486  0.3047  0.2224 -0.7311
 5227TIP3   OH239875   0.995   4.247  19.236  0.4892 -0.5007 -0.3765
 5227TIP3    H139876   1.026   4.231  19.325 -1.3743 -3.4804 -0.1152
 5227TIP3    H239877   0.924   4.310  19.247 -0.4251 -1.6245  0.4710
 5228TIP3   OH239878   1.211   0.394  19.271 -0.0932  0.1319 -0.5595
 5228TIP3    H139879   1.157   0.467  19.243 -1.0090 -1.2753 -2.7218
 5228TIP3    H239880   1.296   0.433  19.292 -0.9046  1.9311 -0.5174
 5229TIP3   OH239881   2.327   2.782  19.458  0.2781  0.3391  0.1478
 5229TIP3    H139882   2.274   2.722  19.511 -0.8492  0.0955 -1.1917
 5229TIP3    H239883   2.310   2.868  19.495 -1.2711  0.2923 -0.3862
 5230TIP3   OH239884   2.681   1.443  19.692  0.1508 -0.7225  0.2713
 5230TIP3    H139885   2.774   1.451  19.673  0.1819 -1.3301  0.1565
 5230TIP3    H239886   2.665   1.510  19.759  0.3181  0.5176 -0.8729
 5231TIP3   OH239887   0.443   3.897  19.678 -0.2128 -0.1619  0.0736
 5231TIP3    H139888   0.405   3.957  19.615 -0.3874  0.6532  0.9285
 5231TIP3    H239889   0.497   3.838  19.626 -0.5280  0.3442 -0.8503
 5232TIP3   OH239890   2.939   4.500  20.233  0.5908  0.1560  0.1867
 5232TIP3    H139891   2.898   4.435  20.176  1.1288  1.3217 -1.6088
 5232TIP3    H239892   3.020   4.459  20.261  0.5692 -0.2548 -0.3257
 5233TIP3   OH239893   4.019   4.204  19.643 -0.7483  0.4738  0.1446
 5233TIP3    H139894   4.102   4.250  19.648 -0.3013 -0.3195  0.1787
 5233TIP3    H239895   3.981   4.231  19.559 -0.4000  0.7258  0.0677
 5234TIP3   OH239896   2.547   5.630  19.239  0.1179 -0.0881 -0.1519
 5234TIP3    H139897   2.473   5.629  19.178 -0.2254  0.0788  0.2569
 5234TIP3    H239898   2.618   5.589  19.190 -0.4802 -1.0370 -0.2566
 5235TIP3   OH239899   3.309   1.178  17.937  0.6388 -0.2389  0.2505
 5235TIP3    H139900   3.259   1.132  17.870  1.3518 -2.4717  1.1433
 5235TIP3    H239901   3.400   1.172  17.908  0.7433  0.7926  0.3188
 5236TIP3   OH239902   5.463   4.966  16.976  0.2410  0.2053 -0.1360
 5236TIP3    H139903   5.502   4.963  17.064  0.4705 -1.0529 -0.2538
 5236TIP3    H239904   5.384   5.018  16.986  0.9973  1.2702  0.5117
 5237TIP3   OH239905   0.716   0.470  17.815 -0.6471  0.1704  0.0090
 5237TIP3    H139906   0.777   0.473  17.889  1.9324 -0.1256 -1.9773
 5237TIP3    H239907   0.693   0.561  17.800 -0.4764  0.3167  0.5977
 5238TIP3   OH239908   3.913   3.507  20.105 -0.2052 -0.3317 -0.0309
 5238TIP3    H139909   3.819   3.514  20.117 -0.0309 -0.0797  1.3714
 5238TIP3    H239910   3.929   3.415  20.087 -0.5220 -0.8203  1.9647
 5239TIP3   OH239911   3.267   1.639  17.535 -0.0900 -0.0502 -0.1959
 5239TIP3    H139912   3.234   1.728  17.518  1.5754  0.5518 -0.4722
 5239TIP3    H239913   3.309   1.614  17.453 -2.3488 -1.9971 -0.8700
 5240TIP3   OH239914   6.557   3.500  18.505 -0.1112 -0.2725  0.1270
 5240TIP3    H139915   6.608   3.493  18.585  1.5186 -2.0873 -0.9719
 5240TIP3    H239916   6.496   3.426  18.509 -1.2834  0.6873  0.4892
 5241TIP3   OH239917   5.877   3.132  17.131  0.3553  0.3455 -0.8712
 5241TIP3    H139918   5.962   3.155  17.168 -0.1581  0.2166  0.4697
 5241TIP3    H239919   5.814   3.183  17.183 -0.5696 -1.5119 -0.0413
 5242TIP3   OH239920   5.829   1.903  19.349 -0.0101  0.1530 -0.0533
 5242TIP3    H139921   5.818   1.994  19.322  0.7602  0.1451 -0.4176
 5242TIP3    H239922   5.881   1.907  19.429 -0.4400  0.0530  0.2399
 5243TIP3   OH239923   6.461   1.682  17.401 -0.5102  0.0649  0.2222
 5243TIP3    H139924   6.419   1.653  17.482 -0.0327 -1.1948  0.0539
 5243TIP3    H239925   6.407   1.645  17.331 -0.2897  0.1878 -0.0158
 5244TIP3   OH239926   5.764   4.537  19.307 -0.2457  0.1017 -0.1842
 5244TIP3    H139927   5.803   4.522  19.393  2.2436 -0.2749 -1.2942
 5244TIP3    H239928   5.739   4.450  19.276 -1.3375  0.2591  0.2028
 5245TIP3   OH239929   3.809   2.852  17.249 -0.1052 -0.4744 -1.1199
 5245TIP3    H139930   3.829   2.792  17.177  4.7485  2.1095 -2.3647
 5245TIP3    H239931   3.890   2.858  17.299 -0.6027  3.9526 -0.3964
 5246TIP3   OH239932   6.278   5.809  18.453  0.3536  0.1600  0.3791
 5246TIP3    H139933   6.207   5.772  18.506 -0.5480 -0.1059 -0.9839
 5246TIP3    H239934   6.249   5.800  18.363  0.9353  2.4695 -0.1243
 5247TIP3   OH239935   4.192   2.158  17.846 -0.2537  0.7425 -0.1971
 5247TIP3    H139936   4.118   2.115  17.803 -0.6135 -0.6274  1.6754
 5247TIP3    H239937   4.157   2.186  17.931  1.1735  0.7599  0.4151
 5248TIP3   OH239938   5.192   5.166  19.997 -0.2506 -0.4529 -0.0308
 5248TIP3    H139939   5.102   5.141  19.980 -1.1585  3.4521 -2.0531
 5248TIP3    H239940   5.245   5.102  19.949 -2.1970 -0.1591 -2.7617
 5249TIP3   OH239941   4.784   5.918  18.524 -0.5736  0.4355 -0.0109
 5249TIP3    H139942   4.791   5.840  18.470 -2.0476  0.2538  0.0269
 5249TIP3    H239943   4.818   5.989  18.468 -0.4180 -0.0312 -0.5131
 5250TIP3   OH239944   2.749   0.014  18.933  0.4052  0.0851  0.0447
 5250TIP3    H139945   2.797   0.096  18.933 -0.4659  0.6103  0.2234
 5250TIP3    H239946   2.677   0.028  18.994 -0.2907 -0.4882 -0.6172
 5251TIP3   OH239947   2.448   5.354  19.589  0.1560  0.6137 -0.1438
 5251TIP3    H139948   2.384   5.357  19.660 -0.4950 -0.4928 -0.6526
 5251TIP3    H239949   2.446   5.442  19.552 -1.2439  0.5608 -0.2729
 5252TIP3   OH239950   5.174   3.662  18.401 -0.2973  0.1681  0.1823
 5252TIP3    H139951   5.078   3.663  18.398 -0.4327 -0.2158  2.3622
 5252TIP3    H239952   5.194   3.590  18.461  1.3004  1.1449  0.8577
 5253TIP3   OH239953   6.588   5.758  17.421 -0.2342  0.0539  0.1368
 5253TIP3    H139954   6.532   5.702  17.367  1.0231 -0.1361 -1.0518
 5253TIP3    H239955   6.586   5.718  17.508 -0.4171 -1.0547 -0.3587
 5254TIP3   OH239956   0.033   6.300  18.873 -0.3258 -0.3233  0.5001
 5254TIP3    H139957  -0.026   6.249  18.817 -2.7577  1.2892  1.4102
 5254TIP3    H239958   0.014   6.268  18.961  0.4848 -0.0585  0.7739
 5255TIP3   OH239959   2.048   1.767  18.515  0.4744 -0.0417 -0.9411
 5255TIP3    H139960   2.009   1.714  18.446 -0.5470  0.1109 -0.5004
 5255TIP3    H239961   2.078   1.704  18.580 -1.0988 -0.1301 -0.2280
 5256TIP3   OH239962   2.329   5.167  17.586 -0.1031 -0.2348  0.2701
 5256TIP3    H139963   2.316   5.259  17.563  1.2681 -0.2518 -0.6399
 5256TIP3    H239964   2.251   5.123  17.552  0.4109  0.2281 -1.6085
 5257TIP3   OH239965   5.738   1.170  19.820 -0.0456  0.1689  0.1747
 5257TIP3    H139966   5.673   1.172  19.890  0.0353 -2.1581  0.3701
 5257TIP3    H239967   5.716   1.247  19.766 -2.4408 -0.0661  0.6902
 5258TIP3   OH239968   5.778   3.595  17.065  0.6477 -0.6267  0.1450
 5258TIP3    H139969   5.845   3.577  17.131  1.1906  0.5736 -0.0456
 5258TIP3    H239970   5.704   3.629  17.114  1.3268  0.9879  0.1003
 5259TIP3   OH239971   2.418   4.016  18.699  0.4211  0.1640  0.4587
 5259TIP3    H139972   2.483   3.969  18.751 -0.4692  0.8403  2.3073
 5259TIP3    H239973   2.453   4.105  18.690  0.0483  0.3722  0.9664
 5260TIP3   OH239974   6.574   5.203  19.870 -0.0737  0.2376 -0.3842
 5260TIP3    H139975   6.664   5.171  19.864  0.0390  0.7393 -1.8431
 5260TIP3    H239976   6.553   5.231  19.781 -1.8879 -0.4140 -0.2042
 5261TIP3   OH239977   3.680   5.694  19.617  0.8179  0.0058  0.3468
 5261TIP3    H139978   3.699   5.643  19.696  0.4225  0.2770  0.6246
 5261TIP3    H239979   3.735   5.655  19.550 -1.0437 -2.2564  0.0028
 5262TIP3   OH239980   2.550   3.575  19.028 -0.1098  0.1562 -0.2882
 5262TIP3    H139981   2.534   3.551  18.937 -1.3337  0.3990 -0.1532
 5262TIP3    H239982   2.472   3.546  19.075  1.4178 -1.9764  1.1001
 5263TIP3   OH239983   2.992   1.182  19.876 -0.7123 -0.9712 -0.4685
 5263TIP3    H139984   2.959   1.093  19.886 -0.3274 -1.0396  0.2463
 5263TIP3    H239985   2.924   1.228  19.826 -1.1949 -1.4988 -0.2977
 5264TIP3   OH239986   3.073   0.513  18.997 -0.2981  0.0184  0.0592
 5264TIP3    H139987   3.014   0.446  18.962 -1.0932  0.3289  0.7817
 5264TIP3    H239988   3.029   0.544  19.076  0.5037  0.7535  0.2195
 5265TIP3   OH239989   5.060   2.718  19.688 -0.6563  0.3371 -0.0763
 5265TIP3    H139990   5.115   2.690  19.761 -0.4516 -0.7945 -0.6439
 5265TIP3    H239991   5.000   2.645  19.674 -0.0527  0.1006 -1.6546
 5266TIP3   OH239992   0.968   1.399  19.855 -0.5129 -0.2919 -0.0249
 5266TIP3    H139993   0.978   1.487  19.892  1.8593 -0.8146  0.7567
 5266TIP3    H239994   0.891   1.363  19.899 -0.7893  0.9541  0.5519
 5267TIP3   OH239995   1.740   4.386  17.303 -0.6070  0.6382  0.3726
 5267TIP3    H139996   1.808   4.407  17.366 -0.3009 -1.2081  0.7086
 5267TIP3    H239997   1.765   4.433  17.224  1.7432 -0.8664  0.1201
 5268TIP3   OH239998   0.031   0.513  19.069  0.6848 -0.2519 -0.3431
 5268TIP3    H139999   0.097   0.460  19.114  0.7323 -0.5301 -0.7424
 5268TIP3    H240000  -0.052   0.489  19.110  0.9344  0.8719  0.9082
 5269TIP3   OH240001   5.077   6.218  19.118  0.1861  0.5866  0.4119
 5269TIP3    H140002   5.145   6.167  19.162 -1.2101 -1.7221  0.0180
 5269TIP3    H240003   4.998   6.164  19.124 -1.1442  2.2646 -0.9234
 5270TIP3   OH240004   2.710   3.898  17.862  0.0096  0.1929  0.1358
 5270TIP3    H140005   2.694   3.886  17.956  0.2901 -1.1143  0.0485
 5270TIP3    H240006   2.805   3.891  17.853 -0.0672 -0.4073 -0.3137
 5271TIP3   OH240007   2.233   6.382  17.337  0.0817  0.0687 -0.0336
 5271TIP3    H140008   2.311   6.333  17.313  1.4392  1.8123  0.6029
 5271TIP3    H240009   2.165   6.316  17.348  1.0984 -1.3868 -1.9015
 5272TIP3   OH240010   3.068   0.167  19.482 -0.3206  0.1733  0.4099
 5272TIP3    H140011   3.033   0.238  19.427  0.0169  0.6572  0.8101
 5272TIP3    H240012   3.161   0.164  19.461 -0.4427 -0.5728 -0.0586
 5273TIP3   OH240013   3.985   5.527  18.342  0.0285  0.5203 -0.0851
 5273TIP3    H140014   3.998   5.496  18.432 -1.5950  0.3902  0.1401
 5273TIP3    H240015   4.073   5.530  18.305  0.6702 -0.0526  1.3016
 5274TIP3   OH240016   4.996   6.488  17.515  0.0168 -0.2493 -0.2305
 5274TIP3    H140017   5.019   6.447  17.599 -0.4812  1.2416  0.6912
 5274TIP3    H240018   5.063   6.555  17.503  0.5903 -1.0229 -1.5004
 5275TIP3   OH240019   5.830   3.411  17.943 -0.7052 -0.3356 -0.2843
 5275TIP3    H140020   5.806   3.458  18.022 -0.0950 -1.5451  0.6498
 5275TIP3    H240021   5.796   3.465  17.871 -2.9664 -0.1585  0.8339
 5276TIP3   OH240022   0.814   4.008  18.539 -0.0491 -0.1409 -0.3601
 5276TIP3    H140023   0.809   4.088  18.487  1.3038  0.2416  0.0689
 5276TIP3    H240024   0.727   4.001  18.580 -0.8198  0.0526 -1.8953
 5277TIP3   OH240025   5.104   3.682  19.266  0.3279 -0.4509 -0.5696
 5277TIP3    H140026   5.110   3.694  19.361  1.0547 -1.0622 -0.5288
 5277TIP3    H240027   5.026   3.628  19.254  1.0306 -1.6121 -0.1759
 5278TIP3   OH240028   2.146   0.523  19.099  0.2117 -0.0154 -0.0488
 5278TIP3    H140029   2.128   0.557  19.011 -0.6943 -0.1665  0.0630
 5278TIP3    H240030   2.113   0.591  19.158  0.5463 -0.0467  0.1785
 5279TIP3   OH240031   0.401   5.159  20.150 -0.1491  0.8605 -0.3640
 5279TIP3    H140032   0.377   5.209  20.228 -0.4400  0.8646 -0.4555
 5279TIP3    H240033   0.338   5.087  20.148 -0.7770  1.4087 -1.1348
 5280TIP3   OH240034   1.234   6.137  17.796  0.2898  0.2753 -0.2797
 5280TIP3    H140035   1.154   6.084  17.791 -1.6300  2.9194  0.5834
 5280TIP3    H240036   1.229   6.195  17.720  1.2054  0.7319 -0.0071
 5281TIP3   OH240037   2.644   0.307  17.796  1.2973  0.4306 -0.4039
 5281TIP3    H140038   2.711   0.265  17.851  0.6417  0.0345  0.0973
 5281TIP3    H240039   2.690   0.324  17.713  2.2193  0.8029  0.1625
 5282TIP3   OH240040   3.870   2.296  18.659 -0.0783  0.1994 -0.3437
 5282TIP3    H140041   3.873   2.257  18.572 -1.6917  0.0100 -0.3318
 5282TIP3    H240042   3.900   2.227  18.717 -0.1994 -0.0861 -0.6199
 5283TIP3   OH240043   3.851   5.315  17.114  0.2814 -0.0206 -0.1429
 5283TIP3    H140044   3.858   5.363  17.032  0.1176 -0.8946 -0.6889
 5283TIP3    H240045   3.882   5.227  17.092 -2.7113 -1.2135 -0.1184
 5284TIP3   OH240046   3.917   5.516  16.397  0.6451  0.7994  0.0976
 5284TIP3    H140047   3.821   5.520  16.398  0.6315  2.1716 -1.9882
 5284TIP3    H240048   3.936   5.422  16.395 -0.7584  0.4855 -2.1622
 5285TIP3   OH240049   6.540   5.059  19.251  0.0081  0.1834  0.1716
 5285TIP3    H140050   6.514   5.151  19.247  1.3644  0.6209  0.6947
 5285TIP3    H240051   6.634   5.060  19.233  0.1758 -1.0233  0.8576
 5286TIP3   OH240052   4.262   3.175  18.005 -0.5347  0.2969 -0.0515
 5286TIP3    H140053   4.263   3.128  17.921  0.5756 -0.8114  0.5535
 5286TIP3    H240054   4.326   3.244  17.995 -0.9555  0.6459 -0.3706
 5287TIP3   OH240055   0.133   3.643  18.718  0.8275  0.2683  0.1677
 5287TIP3    H140056   0.136   3.634  18.813 -1.3223 -1.3876  0.1362
 5287TIP3    H240057   0.196   3.579  18.685  1.5685  0.8392  0.4442
 5288TIP3   OH240058   3.789   0.167  18.880  0.6883  0.2816  0.3340
 5288TIP3    H140059   3.856   0.213  18.931  2.2588 -0.4977 -0.9606
 5288TIP3    H240060   3.832   0.088  18.849 -1.3798 -1.1490  0.8910
 5289TIP3   OH240061   6.318   4.403  17.532 -0.0724 -0.0142  0.1087
 5289TIP3    H140062   6.337   4.480  17.478  2.8942 -0.8403 -0.2070
 5289TIP3    H240063   6.394   4.394  17.589 -1.1707 -1.6748  1.4154
 5290TIP3   OH240064   5.320   4.420  18.703 -0.3556  0.1368 -0.5435
 5290TIP3    H140065   5.357   4.508  18.700  0.6755 -0.1837  1.0881
 5290TIP3    H240066   5.341   4.388  18.791 -3.3596 -0.6314  0.0063
 5291TIP3   OH240067   1.215   5.178  18.577  0.4097 -0.2435 -0.7664
 5291TIP3    H140068   1.288   5.171  18.515  0.8911 -1.3950 -0.1126
 5291TIP3    H240069   1.252   5.146  18.660 -0.5935  0.0024 -0.2113
 5292TIP3   OH240070   5.413   5.591  19.138  0.6448 -0.3223 -0.1055
 5292TIP3    H140071   5.385   5.682  19.136 -0.0115 -0.5176 -1.8503
 5292TIP3    H240072   5.348   5.547  19.194  0.3678  0.1068 -0.0828
 5293TIP3   OH240073   1.833   3.291  18.471  0.1501  0.0259 -0.3458
 5293TIP3    H140074   1.861   3.278  18.561  2.3425  1.4155 -0.7646
 5293TIP3    H240075   1.748   3.247  18.466  0.8685 -1.7819  1.8443
 5294TIP3   OH240076   1.915   4.547  17.721  0.2520 -0.1242 -0.1729
 5294TIP3    H140077   1.833   4.570  17.677  0.6547  0.8628 -0.4392
 5294TIP3    H240078   1.907   4.586  17.808  0.8856  0.9686 -0.5830
 5295TIP3   OH240079   6.433   2.453  18.084 -0.3890 -0.2201  0.3592
 5295TIP3    H140080   6.408   2.469  17.993  1.9694  0.4027 -0.2440
 5295TIP3    H240081   6.438   2.358  18.092 -1.7792 -0.3268  0.2294
 5296TIP3   OH240082   3.894   3.196  17.815 -0.0503 -0.0786 -0.4752
 5296TIP3    H140083   3.975   3.232  17.780  0.6853 -1.5788 -0.3761
 5296TIP3    H240084   3.914   3.170  17.905 -1.0374  0.7978  0.0196
 5297TIP3   OH240085   1.167   4.029  16.886  0.3710  0.3735  0.0870
 5297TIP3    H140086   1.126   3.943  16.889 -0.3122  0.7013  0.2427
 5297TIP3    H240087   1.097   4.090  16.908  0.7732  0.9985 -0.3420
 5298TIP3   OH240088   3.865   3.994  19.733  0.4827  0.2143 -0.2012
 5298TIP3    H140089   3.922   4.067  19.710  0.2264  0.3749 -0.3331
 5298TIP3    H240090   3.893   3.968  19.820  1.3458 -0.2765 -0.6109
 5299TIP3   OH240091   3.305   6.292  19.169 -0.2402 -0.5719  0.0907
 5299TIP3    H140092   3.296   6.209  19.217 -0.2057  1.4311  3.9522
 5299TIP3    H240093   3.397   6.317  19.183 -0.8764  1.2820  1.3439
 5300TIP3   OH240094   4.800   2.992  17.546  0.0780  0.0104  0.3089
 5300TIP3    H140095   4.760   3.078  17.559 -1.8752 -0.6892 -0.7468
 5300TIP3    H240096   4.824   2.991  17.453 -0.7448 -0.9069  0.0977
 5301TIP3   OH240097   4.030   1.902  17.372 -0.2609 -0.0846  0.1198
 5301TIP3    H140098   3.970   1.941  17.435  0.5730 -0.9939  1.5209
 5301TIP3    H240099   3.973   1.853  17.312 -1.0476  0.5410  0.3384
 5302TIP3   OH240100   0.974   1.583  17.975 -0.1600  0.2902 -0.1183
 5302TIP3    H140101   1.032   1.596  17.900  0.0503  1.2150  0.1887
 5302TIP3    H240102   0.985   1.491  17.999  0.1321  0.1137 -0.9221
 5303TIP3   OH240103   1.225   3.034  18.593  0.4965  0.1297 -0.2655
 5303TIP3    H140104   1.203   3.001  18.680 -0.8573 -0.4394 -0.7934
 5303TIP3    H240105   1.238   3.128  18.606 -2.3316  0.5668  0.1630
 5304TIP3   OH240106   5.512   1.694  16.892  0.0046 -0.5570 -0.0393
 5304TIP3    H140107   5.419   1.674  16.898  0.4150 -2.8806 -0.3604
 5304TIP3    H240108   5.553   1.611  16.866  2.0460  0.6724 -1.0155
 5305TIP3   OH240109   5.199   5.981  19.500 -0.2241 -0.3613  0.2696
 5305TIP3    H140110   5.105   5.991  19.517 -0.4447  0.6631 -1.2685
 5305TIP3    H240111   5.208   5.893  19.465 -0.7162 -0.2789 -0.0795
 5306TIP3   OH240112   5.144   3.019  17.854  0.1607  0.6524 -0.6787
 5306TIP3    H140113   5.239   3.030  17.864  0.1692 -0.2980  0.4751
 5306TIP3    H240114   5.125   2.935  17.895 -1.1631  0.7477 -1.0531
 5307TIP3   OH240115   1.133   2.860  18.432  0.2310  0.4670  0.7911
 5307TIP3    H140116   1.152   2.940  18.481 -0.6081  0.8472  0.5002
 5307TIP3    H240117   1.041   2.841  18.450 -0.0825  0.5799 -0.5734
 5308TIP3   OH240118   3.150   5.261  17.049 -0.6494  0.4316  0.0767
 5308TIP3    H140119   3.218   5.193  17.053 -1.7119 -0.6957 -0.4363
 5308TIP3    H240120   3.095   5.236  16.975 -1.1995  1.7476  0.0128
 5309TIP3   OH240121   2.122   2.816  19.849  0.0358  0.3442 -0.1769
 5309TIP3    H140122   2.157   2.754  19.913 -1.8949 -1.0970 -0.4294
 5309TIP3    H240123   2.164   2.899  19.870  1.4521 -0.6866  1.2421
 5310TIP3   OH240124   6.218   3.939  16.965  0.2538 -0.0571  0.5638
 5310TIP3    H140125   6.136   3.953  16.918  0.5009  0.6977  0.3449
 5310TIP3    H240126   6.235   4.022  17.009  0.5592 -0.4202  1.1494
 5311TIP3   OH240127   5.885   2.362  18.079 -0.6800  0.4627  0.0012
 5311TIP3    H140128   5.874   2.443  18.129 -1.0130  0.6105 -0.3008
 5311TIP3    H240129   5.831   2.298  18.125  0.1582  0.2256  0.6564
 5312TIP3   OH240130   3.712   6.748  18.059 -0.0314  0.6829  0.2018
 5312TIP3    H140131   3.741   6.837  18.042 -1.6807  1.3704  0.7804
 5312TIP3    H240132   3.682   6.749  18.150 -0.3226 -0.3925  0.1364
 5313TIP3   OH240133   0.439   4.750  16.830 -0.0605 -0.5372  0.0699
 5313TIP3    H140134   0.500   4.676  16.837 -0.2670 -0.6126  1.3126
 5313TIP3    H240135   0.421   4.758  16.737 -0.5842 -2.5193 -0.0355
 5314TIP3   OH240136   0.731   3.313  19.005 -0.2000 -0.5962  0.3109
 5314TIP3    H140137   0.714   3.258  19.081 -0.8789 -0.4405  0.2860
 5314TIP3    H240138   0.668   3.385  19.014  0.3703 -0.0661  0.1108
 5315TIP3   OH240139   4.452   5.051  18.263  0.4792  0.2888  0.1814
 5315TIP3    H140140   4.399   4.972  18.255 -2.3838  1.9191  1.7395
 5315TIP3    H240141   4.504   5.036  18.343 -2.9047  1.3184  2.8341
 5316TIP3   OH240142   3.211   1.253  19.319  0.6629 -0.4928  0.2666
 5316TIP3    H140143   3.297   1.255  19.278  0.3638  0.5210 -0.3553
 5316TIP3    H240144   3.183   1.345  19.321 -0.2255 -0.7561  0.8463
 5317TIP3   OH240145   5.315   5.705  18.437 -0.2176 -0.0454 -0.7792
 5317TIP3    H140146   5.234   5.662  18.409  0.2973 -1.4944 -0.1141
 5317TIP3    H240147   5.378   5.634  18.448  0.0095  0.5232  2.6323
 5318TIP3   OH240148   1.859   0.807  18.009  0.0680 -0.2092 -0.2241
 5318TIP3    H140149   1.899   0.763  17.934 -0.2060 -2.0660  0.6629
 5318TIP3    H240150   1.765   0.805  17.991  0.1355  1.8618 -1.0968
 5319TIP3   OH240151   0.622   3.795  17.135 -0.2155  0.0590  0.1225
 5319TIP3    H140152   0.549   3.794  17.197  0.1538 -0.1509  0.5600
 5319TIP3    H240153   0.676   3.869  17.163  2.4205 -2.6145  3.0092
 5320TIP3   OH240154   0.082   3.022  18.571  0.0277  0.2472 -0.2304
 5320TIP3    H140155  -0.002   2.979  18.589 -0.1966  0.7789  0.0139
 5320TIP3    H240156   0.146   2.972  18.621 -0.4494  1.1081  1.2823
 5321TIP3   OH240157   0.967   0.573  19.498  0.0344 -0.0184  0.2599
 5321TIP3    H140158   1.032   0.508  19.524 -0.5562 -0.9784 -0.5726
 5321TIP3    H240159   1.002   0.611  19.417  0.6959  1.1992  1.0950
 5322TIP3   OH240160   6.266   1.693  17.807  0.2129  0.8907  0.2136
 5322TIP3    H140161   6.186   1.654  17.844  1.2296 -0.1910  1.3495
 5322TIP3    H240162   6.277   1.648  17.723  0.5391 -0.1947  0.8222
 5323TIP3   OH240163   3.733   6.039  18.896 -0.0655 -0.3430 -0.3292
 5323TIP3    H140164   3.825   6.027  18.918 -0.6927  0.1078  3.0859
 5323TIP3    H240165   3.715   6.130  18.918 -1.3266 -0.4061 -1.0029
 5324TIP3   OH240166   0.813   5.719  17.736  0.2730 -0.3469  0.1826
 5324TIP3    H140167   0.852   5.666  17.806 -0.4290 -0.0375  0.8318
 5324TIP3    H240168   0.742   5.766  17.780  0.0310  0.1039 -0.6811
 5325TIP3   OH240169   5.437   6.149  18.655  0.6596 -0.1698  0.1738
 5325TIP3    H140170   5.407   6.239  18.642 -0.8549 -0.4863  1.2271
 5325TIP3    H240171   5.429   6.109  18.568 -0.2803  0.2628  0.0507
 5326TIP3   OH240172   2.720   0.453  19.635 -0.1869  0.3554  0.6736
 5326TIP3    H140173   2.629   0.476  19.619  0.5797  3.4975  0.2304
 5326TIP3    H240174   2.735   0.472  19.727  0.1116  0.2102  0.6579
 5327TIP3   OH240175   5.167   4.976  19.178  0.3380 -0.3335 -0.3389
 5327TIP3    H140176   5.224   4.976  19.101 -1.8833 -0.7971 -2.0682
 5327TIP3    H240177   5.180   4.890  19.217  1.0684 -0.3000 -0.4821
 5328TIP3   OH240178   6.645   2.719  17.232  0.0776 -0.7823  0.0092
 5328TIP3    H140179   6.630   2.797  17.177 -0.9463 -0.9044  0.0995
 5328TIP3    H240180   6.562   2.706  17.278  0.6635 -1.1717  0.9755
 5329TIP3   OH240181   0.975   6.697  19.433  0.3785 -0.0052 -0.0092
 5329TIP3    H140182   1.047   6.749  19.397  0.8507 -0.3258  0.4540
 5329TIP3    H240183   0.928   6.758  19.490 -0.8208  0.7218 -1.6822
 5330TIP3   OH240184   2.444   2.377  19.346 -0.0005  0.3993  0.0529
 5330TIP3    H140185   2.397   2.452  19.312 -1.2213 -0.5589 -0.4652
 5330TIP3    H240186   2.526   2.413  19.380 -0.5330  1.9353 -0.2085
 5331TIP3   OH240187   1.295   0.623  17.372 -0.2348 -0.0923  0.1446
 5331TIP3    H140188   1.389   0.638  17.363  0.1842 -1.4602  1.6905
 5331TIP3    H240189   1.263   0.614  17.282  1.7217 -2.9086 -0.4223
 5332TIP3   OH240190   1.060   5.037  16.903 -0.4283 -0.2147  0.1978
 5332TIP3    H140191   1.083   4.970  16.967 -1.5945  1.2819  2.3079
 5332TIP3    H240192   1.120   5.110  16.921  0.5524 -0.4616 -1.7830
 5333TIP3   OH240193   5.752   6.260  20.390  0.3262  0.4023  0.1973
 5333TIP3    H140194   5.754   6.214  20.473  0.2655  0.7021  0.3672
 5333TIP3    H240195   5.813   6.212  20.334  0.2407  0.1009  0.3610
 5334TIP3   OH240196   5.041   1.148  16.964 -0.2606 -0.4516  0.3808
 5334TIP3    H140197   5.063   1.135  17.056  1.7958 -0.8701 -0.1133
 5334TIP3    H240198   4.983   1.075  16.942  0.9807 -1.5896  0.8172
 5335TIP3   OH240199   0.631   3.278  19.534 -0.1263 -0.5783 -0.3039
 5335TIP3    H140200   0.724   3.260  19.533  0.0594  0.2725 -1.7739
 5335TIP3    H240201   0.625   3.373  19.526 -1.1119 -0.3205  2.3330
 5336TIP3   OH240202   2.973   2.873  19.413  0.1735  0.3339  0.6066
 5336TIP3    H140203   3.011   2.799  19.365  2.5694  0.6952  1.8181
 5336TIP3    H240204   3.045   2.934  19.424 -1.4113  2.2531  0.8732
 5337TIP3   OH240205   6.348   4.810  19.416  0.1373  0.9139  0.1403
 5337TIP3    H140206   6.255   4.804  19.393 -0.6805  2.9255  2.5528
 5337TIP3    H240207   6.375   4.895  19.381  2.0575 -0.8863 -3.2903
 5338TIP3   OH240208   1.823   2.882  17.867  0.0614 -0.0113 -0.1499
 5338TIP3    H140209   1.808   2.787  17.869  1.5367 -0.2903 -1.2290
 5338TIP3    H240210   1.805   2.910  17.957  0.9239 -1.5451  0.5476
 5339TIP3   OH240211   1.929   2.801  20.195  0.5166 -0.2142  0.3715
 5339TIP3    H140212   2.007   2.756  20.162 -0.3632 -2.4073  1.0806
 5339TIP3    H240213   1.878   2.821  20.117  1.5043  0.7538 -0.0573
 5340TIP3   OH240214   6.461   2.890  16.815 -0.0330  0.2186  0.2705
 5340TIP3    H140215   6.529   2.830  16.787 -0.4586  0.0462 -0.4019
 5340TIP3    H240216   6.390   2.879  16.752  0.2458  2.1047 -0.4551
 5341TIP3   OH240217   0.223   0.122  18.528  0.2447 -0.1571  0.6602
 5341TIP3    H140218   0.192   0.141  18.616 -1.0952  1.4974 -0.1123
 5341TIP3    H240219   0.267   0.202  18.500  1.6773 -1.0563  0.2176
 5342TIP3   OH240220   4.372   4.278  17.205 -0.0296 -0.1378  0.3615
 5342TIP3    H140221   4.409   4.348  17.259 -0.6125 -0.9730  1.9088
 5342TIP3    H240222   4.448   4.237  17.164  0.6371 -0.5995  1.9666
 5343TIP3   OH240223   6.359   0.084  19.406 -0.1914 -0.2817 -0.3321
 5343TIP3    H140224   6.425   0.152  19.421 -0.4736 -0.0869  0.0481
 5343TIP3    H240225   6.302   0.089  19.483 -0.2626 -0.8930 -0.3440
 5344TIP3   OH240226   1.353   4.505  19.772 -0.4003  0.0543  0.1669
 5344TIP3    H140227   1.321   4.465  19.853  1.3426  0.0113  0.8838
 5344TIP3    H240228   1.414   4.441  19.736 -0.4878  0.4557 -0.7104
 5345TIP3   OH240229   6.446   6.373  18.014  0.4969  0.5745  0.0870
 5345TIP3    H140230   6.363   6.383  17.966  0.3445 -1.0535 -0.0644
 5345TIP3    H240231   6.449   6.280  18.035  2.6936  0.4521 -0.6097
 5346TIP3   OH240232   0.825   3.633  16.984  0.5644 -0.1741 -0.2523
 5346TIP3    H140233   0.818   3.555  17.039 -1.1505 -0.8469 -1.3128
 5346TIP3    H240234   0.757   3.692  17.016  0.0802 -0.2425 -1.1069
 5347TIP3   OH240235   2.522   3.911  19.924 -0.6437  0.0611  0.5360
 5347TIP3    H140236   2.574   3.842  19.883 -1.8987 -0.6678  0.0983
 5347TIP3    H240237   2.504   3.878  20.012 -0.8494  0.0184  0.4802
 5348TIP3   OH240238   6.362   3.835  19.821  0.2644  0.1214 -0.3923
 5348TIP3    H140239   6.269   3.813  19.814  0.0877  0.7480 -0.1149
 5348TIP3    H240240   6.382   3.825  19.913  0.5567 -0.3233 -0.5034
 5349TIP3   OH240241   1.750   3.475  19.562  0.0089  0.2858 -0.2503
 5349TIP3    H140242   1.786   3.537  19.499  4.0190 -2.6654 -1.2362
 5349TIP3    H240243   1.679   3.432  19.515 -0.1559  1.3155 -0.9774
 5350TIP3   OH240244   1.348   3.134  17.403 -0.6398 -0.0848 -0.3075
 5350TIP3    H140245   1.348   3.038  17.401  0.1573 -0.0963  0.0005
 5350TIP3    H240246   1.377   3.157  17.491  0.8926  0.4263 -0.9043
 5351TIP3   OH240247   2.837   2.961  17.623 -0.0210  0.0733 -0.0782
 5351TIP3    H140248   2.872   3.016  17.552 -0.3674 -0.6000 -0.7910
 5351TIP3    H240249   2.744   2.986  17.627  0.1427  0.5895  0.6024
 5352TIP3   OH240250   3.267   0.271  18.358  0.6415  0.4825  0.0847
 5352TIP3    H140251   3.313   0.276  18.442 -0.9340 -0.0336  1.0187
 5352TIP3    H240252   3.242   0.361  18.338  2.4804  0.8619 -0.7277
 5353TIP3   OH240253   4.835   6.481  18.707 -0.2081 -0.4800 -0.3015
 5353TIP3    H140254   4.881   6.565  18.707  1.6858 -1.4473 -1.6811
 5353TIP3    H240255   4.858   6.440  18.791  1.9656 -1.1665 -1.1807
 5354TIP3   OH240256   1.822   5.346  19.031 -0.0378  0.5575 -0.1657
 5354TIP3    H140257   1.894   5.362  18.970 -0.8610  1.9873 -0.8090
 5354TIP3    H240258   1.772   5.275  18.991 -0.4108  1.2910 -1.0321
 5355TIP3   OH240259   4.597   6.581  19.700 -0.0828  0.5364  0.8181
 5355TIP3    H140260   4.639   6.541  19.776  1.6907  3.2862  1.4411
 5355TIP3    H240261   4.611   6.675  19.712  1.7436  1.0709 -3.6600
 5356TIP3   OH240262   6.400   3.965  20.090  0.0913 -0.4082  0.0541
 5356TIP3    H140263   6.433   4.036  20.145 -1.3342  0.0640  0.3515
 5356TIP3    H240264   6.469   3.899  20.092  0.7809  0.3136  1.0604
 5357TIP3   OH240265   2.499   3.500  17.568  0.0612  0.0503  0.1113
 5357TIP3    H140266   2.486   3.550  17.487 -0.5780 -0.3571 -0.0488
 5357TIP3    H240267   2.451   3.418  17.553 -0.1594  0.0213  0.9494
 5358TIP3   OH240268   4.675   2.744  19.724  0.5377 -0.3735  0.6005
 5358TIP3    H140269   4.729   2.683  19.673  0.7543  0.7359 -0.5487
 5358TIP3    H240270   4.718   2.829  19.714 -0.5748  0.2481  0.9291
 5359TIP3   OH240271   4.801   5.081  18.184 -0.1903 -0.3676 -0.4910
 5359TIP3    H140272   4.745   5.075  18.106  0.4599  0.9842 -1.0904
 5359TIP3    H240273   4.833   5.171  18.184 -0.0609 -0.3740  1.2861
 5360TIP3   OH240274   4.831   3.732  19.553 -0.0549  0.3140 -0.1196
 5360TIP3    H140275   4.854   3.779  19.633 -0.9586 -0.2043  0.4494
 5360TIP3    H240276   4.745   3.767  19.528 -0.3140 -0.3767 -0.2073
 5361TIP3   OH240277   2.782   1.230  17.942 -0.0988  0.5228 -0.1024
 5361TIP3    H140278   2.794   1.324  17.958  0.6399  0.3356  0.4865
 5361TIP3    H240279   2.729   1.226  17.862  3.3559  1.4256 -2.6494
 5362TIP3   OH240280   0.481   6.400  19.640 -0.6055 -0.5845  0.5167
 5362TIP3    H140281   0.507   6.392  19.731  1.6640 -1.5823 -0.1453
 5362TIP3    H240282   0.422   6.326  19.625 -3.0001  0.9513  1.7059
 5363TIP3   OH240283   0.554   5.603  19.224 -0.4095  0.1886 -0.5479
 5363TIP3    H140284   0.635   5.655  19.222 -0.3227  0.0368 -1.4656
 5363TIP3    H240285   0.584   5.512  19.227 -0.5351  0.1336 -0.8503
 5364TIP3   OH240286   0.773   4.595  17.294  0.4531  0.2935 -0.0842
 5364TIP3    H140287   0.703   4.619  17.354 -0.0980 -1.5985  0.0853
 5364TIP3    H240288   0.744   4.513  17.254  2.7767 -0.8379  0.3559
 5365TIP3   OH240289   0.942   1.583  20.081 -0.3738  0.5256  1.1663
 5365TIP3    H140290   0.866   1.636  20.058 -2.2418 -1.8906  1.4026
 5365TIP3    H240291   0.982   1.630  20.154 -1.7365  1.7720  1.1617
 5366TIP3   OH240292   3.269   3.607  17.445 -0.5413 -0.5354  0.3381
 5366TIP3    H140293   3.175   3.625  17.445 -0.6349 -0.8647  1.7642
 5366TIP3    H240294   3.275   3.512  17.435 -0.3707 -0.5399  0.4721
 5367TIP3   OH240295   3.216   1.953  16.485 -0.2539  0.2172 -0.3377
 5367TIP3    H140296   3.280   1.895  16.526 -0.1041 -0.1068 -1.0104
 5367TIP3    H240297   3.131   1.919  16.514 -0.1798 -0.5006 -0.9006
 5368TIP3   OH240298   4.883   4.547  19.267 -0.2367  0.4605  0.0402
 5368TIP3    H140299   4.924   4.617  19.318 -1.4638  2.2078 -1.2138
 5368TIP3    H240300   4.930   4.546  19.184  0.7689 -1.3260  0.5804
 5369TIP3   OH240301   4.310   0.657  18.549  0.1235 -0.0700  0.3778
 5369TIP3    H140302   4.287   0.568  18.574 -1.4228  0.4897  1.1358
 5369TIP3    H240303   4.312   0.705  18.632  0.7827  0.6277 -0.0317
 5370TIP3   OH240304   3.278   0.296  19.057  0.0643 -0.0068  0.1459
 5370TIP3    H140305   3.251   0.378  19.017 -2.3526 -0.7964 -0.0179
 5370TIP3    H240306   3.307   0.320  19.145  1.8149  1.2797 -0.7304
 5371TIP3   OH240307   2.250   3.165  19.396  0.7724 -0.5100  0.1646
 5371TIP3    H140308   2.215   3.166  19.307  0.6904  1.1463  0.1741
 5371TIP3    H240309   2.342   3.139  19.386  1.0877  0.7912 -0.5719
 5372TIP3   OH240310   5.847   3.010  20.196 -0.0403 -0.1437  0.1878
 5372TIP3    H140311   5.820   3.094  20.160  1.4874 -0.5270 -2.0212
 5372TIP3    H240312   5.767   2.956  20.192 -0.2988  0.2985 -1.2887
 5373TIP3   OH240313   0.395   6.120  19.287 -0.0651 -0.0088  0.0592
 5373TIP3    H140314   0.469   6.094  19.342  0.7183 -1.1153 -1.4525
 5373TIP3    H240315   0.379   6.211  19.311  1.8817  0.3090  0.3485
 5374TIP3   OH240316   4.979   4.529  19.609 -0.7347 -0.2383  0.1066
 5374TIP3    H140317   5.003   4.546  19.700 -1.1626  0.2112  0.1438
 5374TIP3    H240318   4.928   4.606  19.583 -1.0332 -0.5843 -0.3598
 5375TIP3   OH240319   3.345   2.678  18.178 -0.4438  0.0378 -0.2588
 5375TIP3    H140320   3.312   2.607  18.123 -0.2482  0.7537 -1.3409
 5375TIP3    H240321   3.352   2.752  18.119  1.7815  0.2846  0.2284
 5376TIP3   OH240322   1.834   3.337  20.194 -0.6255 -0.1764 -0.0970
 5376TIP3    H140323   1.869   3.248  20.194 -1.2962 -0.4642 -0.8871
 5376TIP3    H240324   1.745   3.326  20.161 -0.2769  0.9307 -1.5048
 5377TIP3   OH240325   3.186   4.594  17.665 -0.5210  0.7855 -0.3061
 5377TIP3    H140326   3.173   4.579  17.759 -0.2448  0.6548 -0.2885
 5377TIP3    H240327   3.256   4.533  17.641 -1.1247  0.2523 -0.7635
 5378TIP3   OH240328   4.048   5.920  16.791 -0.5721 -0.0688  0.6015
 5378TIP3    H140329   3.973   5.904  16.848 -0.6363 -0.0151  0.5327
 5378TIP3    H240330   4.009   5.938  16.705 -0.4549 -0.7311  0.4076
 5379TIP3   OH240331   1.136   0.074  18.089  0.2914  0.5142 -0.2635
 5379TIP3    H140332   1.052   0.035  18.111  0.8862 -0.4180  0.4051
 5379TIP3    H240333   1.173   0.102  18.172  0.4426  1.3609 -0.6044
 5380TIP3   OH240334   0.703   1.202  20.244 -0.4066 -0.4908  0.4309
 5380TIP3    H140335   0.786   1.206  20.293  1.1007  2.0145 -1.9827
 5380TIP3    H240336   0.636   1.228  20.307  1.1900  0.9203  1.6422
 5381TIP3   OH240337   2.683   5.793  16.923 -0.0827  0.3847 -0.1607
 5381TIP3    H140338   2.602   5.836  16.950 -1.1733 -1.4744 -0.2722
 5381TIP3    H240339   2.725   5.856  16.865 -1.1590  1.6274  0.3546
 5382TIP3   OH240340   0.151   4.925  16.533  0.5028  0.4052 -0.2984
 5382TIP3    H140341   0.084   4.913  16.465  1.1521  1.0488 -1.0712
 5382TIP3    H240342   0.107   4.977  16.600 -0.8608 -2.1261  0.8932
 5383TIP3   OH240343   2.209   5.599  19.467  0.7204 -0.0171  0.7975
 5383TIP3    H140344   2.136   5.633  19.519 -0.2878 -0.7201 -0.1025
 5383TIP3    H240345   2.240   5.675  19.417 -0.8524 -0.1164 -0.4397
 5384TIP3   OH240346   2.886   2.608  17.486 -0.0670 -0.2118  0.1046
 5384TIP3    H140347   2.881   2.678  17.421 -0.1739  0.0102  0.3500
 5384TIP3    H240348   2.963   2.557  17.460  0.3791  0.3608  0.2852
 5385TIP3   OH240349   2.989   3.772  16.858 -0.6049 -0.3529 -0.2180
 5385TIP3    H140350   3.080   3.754  16.883 -0.6131  0.8071  0.7339
 5385TIP3    H240351   2.944   3.689  16.871  0.3271 -0.9716 -0.7858
 5386TIP3   OH240352   2.238   4.777  17.948 -0.0506  0.0793  0.2103
 5386TIP3    H140353   2.161   4.749  17.998 -0.4033 -0.9337 -0.8507
 5386TIP3    H240354   2.311   4.727  17.985 -0.1185  0.1532  0.4395
 5387TIP3   OH240355   0.403   5.299  16.758 -0.8853 -0.3104  0.0647
 5387TIP3    H140356   0.458   5.278  16.683  0.3652 -0.0026  0.8692
 5387TIP3    H240357   0.335   5.356  16.723 -0.9712 -1.0552 -1.0367
 5388TIP3   OH240358   0.192   4.660  17.661  0.2028 -0.0385  0.6509
 5388TIP3    H140359   0.150   4.612  17.590  0.8031  0.0630  0.2110
 5388TIP3    H240360   0.222   4.593  17.722  1.2348 -0.2655 -0.0690
 5389TIP3   OH240361   5.909   4.877  18.730  0.3045  0.6125 -0.3067
 5389TIP3    H140362   5.903   4.856  18.823 -0.2895  1.4430 -0.1474
 5389TIP3    H240363   5.931   4.970  18.727  0.6149  0.5226 -0.9973
 5390TIP3   OH240364   1.986   3.086  17.825  0.0489 -0.1509  0.4075
 5390TIP3    H140365   1.949   3.001  17.848  0.9686 -0.5547  0.4445
 5390TIP3    H240366   2.068   3.065  17.781 -0.2177  0.6984 -0.5264
 5391TIP3   OH240367   3.548   3.844   9.568 -0.1213  0.3709 -0.2747
 5391TIP3    H140368   3.543   3.751   9.546 -0.9218  0.3190  0.1039
 5391TIP3    H240369   3.467   3.863   9.615  0.5125  1.0084  0.6105
 5392TIP3   OH240370   0.486   0.712  12.088  0.6620 -0.1232 -0.1840
 5392TIP3    H140371   0.485   0.616  12.090  0.5124 -0.2531 -3.0716
 5392TIP3    H240372   0.463   0.737  12.178  0.6168 -2.7696  0.6454
 5393TIP3   OH240373   2.976   0.958  11.314 -0.3030 -0.1021 -0.3200
 5393TIP3    H140374   2.909   0.937  11.249  0.3499 -0.1651 -0.9875
 5393TIP3    H240375   3.012   1.042  11.286 -0.5241  0.2463  0.3932
 5394TIP3   OH240376   4.707   5.408   8.687 -0.1115  0.4481 -0.3934
 5394TIP3    H140377   4.632   5.452   8.646  0.4966 -0.4799 -2.6382
 5394TIP3    H240378   4.761   5.479   8.721 -1.8002  1.1487  0.9398
 5395TIP3   OH240379   1.277   3.611  10.437 -0.2166 -0.1895 -0.1260
 5395TIP3    H140380   1.221   3.688  10.425 -0.4007 -0.0866  1.1721
 5395TIP3    H240381   1.286   3.573  10.350 -0.6436  0.9438 -0.6824
 5396TIP3   OH240382   1.546   3.541  10.449 -0.4287  0.3585 -0.8161
 5396TIP3    H140383   1.469   3.586  10.482 -0.0633 -0.3312  1.1164
 5396TIP3    H240384   1.513   3.458  10.416 -0.8037  1.0704 -2.3208
 5397TIP3   OH240385   3.451   5.847  11.341  0.9284 -0.3700  0.0593
 5397TIP3    H140386   3.453   5.779  11.407  0.8015 -0.9841 -0.5577
 5397TIP3    H240387   3.417   5.804  11.262  0.8103  0.4087 -0.3309
 5398TIP3   OH240388   5.136   5.988   8.866 -0.3404 -0.5264  0.2265
 5398TIP3    H140389   5.227   6.002   8.890 -0.9057 -0.6852  2.8514
 5398TIP3    H240390   5.130   5.894   8.847  0.0455 -0.5180  0.0708
 5399TIP3   OH240391   2.097   0.867   8.614 -0.1491 -0.3712  0.1440
 5399TIP3    H140392   2.177   0.866   8.666  0.3187  0.0138 -0.5475
 5399TIP3    H240393   2.062   0.955   8.625 -0.1385 -0.3412 -0.0575
 5400TIP3   OH240394   3.071   3.751  10.373 -0.0252 -0.3626 -0.5175
 5400TIP3    H140395   3.109   3.805  10.303  1.4614  1.0166  1.2503
 5400TIP3    H240396   2.981   3.783  10.381  0.3515  0.7749 -0.5748
 5401TIP3   OH240397   2.851   3.594   9.293  0.1122  0.3472  0.2632
 5401TIP3    H140398   2.812   3.585   9.380  0.4288 -0.5814  0.3206
 5401TIP3    H240399   2.934   3.547   9.298  0.5986  1.1285 -0.2634
 5402TIP3   OH240400   0.063   0.191  10.772 -0.5572 -0.3441  1.1237
 5402TIP3    H140401   0.006   0.135  10.719  1.3305 -1.8120  0.5191
 5402TIP3    H240402   0.087   0.137  10.847  1.8740 -0.7081  0.1707
 5403TIP3   OH240403   1.621   2.104  11.007 -0.4190  0.6296 -0.1838
 5403TIP3    H140404   1.541   2.153  11.025 -0.4148  1.6175 -2.4914
 5403TIP3    H240405   1.692   2.167  11.023 -0.0948 -0.0633  1.2794
 5404TIP3   OH240406   0.984   0.146  12.011 -0.2042  0.1347 -0.1518
 5404TIP3    H140407   1.050   0.150  12.079  0.1502  0.1667 -0.4946
 5404TIP3    H240408   0.920   0.213  12.035 -0.0190  0.2264  0.0826
 5405TIP3   OH240409   3.680   4.683   9.018  0.3224  0.0464  0.2185
 5405TIP3    H140410   3.763   4.644   9.047 -0.5128 -0.6953  1.7196
 5405TIP3    H240411   3.687   4.775   9.041  1.2709  0.3081 -0.9771
 5406TIP3   OH240412   3.564   1.498  10.321 -0.5324 -0.0386 -0.3148
 5406TIP3    H140413   3.561   1.563  10.251 -1.4844 -1.6523 -1.8586
 5406TIP3    H240414   3.648   1.513  10.364  0.8953 -0.0593 -2.9082
 5407TIP3   OH240415   2.298   2.897   9.184  0.4718  0.1000  0.1331
 5407TIP3    H140416   2.295   2.818   9.131 -0.1998  0.2642 -0.0791
 5407TIP3    H240417   2.312   2.968   9.121  0.2225  0.2392  0.2355
 5408TIP3   OH240418   0.545   6.523  10.999  0.0586  0.1788 -0.3037
 5408TIP3    H140419   0.537   6.618  10.994  0.3526  0.2873  0.8981
 5408TIP3    H240420   0.537   6.503  11.092 -0.3514 -1.0131 -0.5756
 5409TIP3   OH240421   6.238   0.987  10.606 -0.0882  0.4775  0.9869
 5409TIP3    H140422   6.295   0.965  10.533 -0.7095 -1.7244  1.0973
 5409TIP3    H240423   6.251   1.081  10.619  2.3665  0.3298  0.0809
 5410TIP3   OH240424   0.739   4.558  10.775 -0.1349 -0.0196  0.5903
 5410TIP3    H140425   0.673   4.504  10.732  0.2495 -0.4458  0.5216
 5410TIP3    H240426   0.718   4.552  10.868 -0.9518  0.8819  0.4687
 5411TIP3   OH240427   2.209   1.647  10.415  0.2348 -0.1435 -0.1218
 5411TIP3    H140428   2.186   1.737  10.438 -0.6133 -0.1300 -0.9626
 5411TIP3    H240429   2.208   1.600  10.499 -2.4782 -0.0383 -0.0102
 5412TIP3   OH240430   5.076   2.956  12.150  0.1150  0.1973 -0.3715
 5412TIP3    H140431   5.166   2.946  12.180  0.0901  0.6357 -0.1499
 5412TIP3    H240432   5.057   2.873  12.104  0.7579  0.2602 -0.7691
 5413TIP3   OH240433   6.451   0.646  11.969  0.2207 -0.2826  0.3768
 5413TIP3    H140434   6.490   0.723  12.009  1.8753 -1.2139  0.6265
 5413TIP3    H240435   6.441   0.583  12.042 -1.2866 -0.2592  0.2194
 5414TIP3   OH240436   1.671   1.697  12.131 -0.2670  0.2742  0.1493
 5414TIP3    H140437   1.600   1.634  12.142 -0.9203  1.3093  2.4891
 5414TIP3    H240438   1.631   1.782  12.150  0.8795  1.2835 -1.7099
 5415TIP3   OH240439   4.617   4.968  11.635  0.8534  0.9047  0.0349
 5415TIP3    H140440   4.654   5.034  11.694 -0.0916  0.1516  1.5471
 5415TIP3    H240441   4.684   4.900  11.631  0.6662  0.6671  0.7771
 5416TIP3   OH240442   0.453   1.354  10.142  0.2141 -0.4703 -0.6110
 5416TIP3    H140443   0.545   1.337  10.162  0.3012  0.5079 -0.1121
 5416TIP3    H240444   0.455   1.433  10.087 -0.3126 -0.5277 -0.7159
 5417TIP3   OH240445   4.360   3.948   9.789  0.2183  0.2797 -0.6075
 5417TIP3    H140446   4.281   3.893   9.788  0.5161 -0.1425 -2.1582
 5417TIP3    H240447   4.329   4.032   9.825 -0.5170 -0.4553  0.5715
 5418TIP3   OH240448   3.900   0.393  11.554 -0.2280  0.2302 -0.2536
 5418TIP3    H140449   3.920   0.300  11.539 -1.4911  0.3163 -2.9048
 5418TIP3    H240450   3.846   0.393  11.633  0.0894 -1.2356 -0.0076
 5419TIP3   OH240451   2.632   4.834   9.772  0.3965  0.5525 -0.2913
 5419TIP3    H140452   2.607   4.820   9.681  1.6045 -0.8077 -0.4459
 5419TIP3    H240453   2.562   4.794   9.823  1.2136 -1.5448 -0.6998
 5420TIP3   OH240454   3.858   3.082   8.800 -0.1086  0.2788  0.0062
 5420TIP3    H140455   3.905   3.126   8.871  1.0433  1.0261 -1.1621
 5420TIP3    H240456   3.927   3.047   8.744 -0.9265 -3.3666  0.9652
 5421TIP3   OH240457   2.354   4.081   9.396  1.0899 -0.7845 -0.2781
 5421TIP3    H140458   2.444   4.112   9.384  1.4319 -1.7538 -0.3109
 5421TIP3    H240459   2.345   4.009   9.333 -0.5722  0.9717 -2.1706
 5422TIP3   OH240460   0.114   4.648  10.680 -0.8214  0.1094 -0.0409
 5422TIP3    H140461   0.048   4.711  10.710 -2.1423 -1.1638 -0.1585
 5422TIP3    H240462   0.079   4.615  10.598 -0.0050 -0.5617 -0.1231
 5423TIP3   OH240463   3.383   1.597  11.004 -0.2345 -0.2324  0.2551
 5423TIP3    H140464   3.383   1.516  10.953  2.6293  0.0510 -0.3543
 5423TIP3    H240465   3.368   1.568  11.094 -0.5458 -1.2835 -0.1175
 5424TIP3   OH240466   0.337   2.728  10.072  0.5849  0.8186 -0.2885
 5424TIP3    H140467   0.256   2.697  10.112  1.4471  1.4693  2.1387
 5424TIP3    H240468   0.338   2.823  10.089  0.8059  1.2353 -2.3313
 5425TIP3   OH240469   4.129   3.296   8.748 -0.4481  0.4455 -0.6525
 5425TIP3    H140470   4.071   3.330   8.680 -1.2730 -0.4661 -0.4213
 5425TIP3    H240471   4.072   3.279   8.822 -0.3800 -2.6989 -1.1810
 5426TIP3   OH240472   5.347   5.278  11.491 -0.3901 -0.3079 -0.5148
 5426TIP3    H140473   5.385   5.299  11.576  1.3918 -1.5015 -0.9666
 5426TIP3    H240474   5.390   5.339  11.430 -1.1314  0.0681 -0.6655
 5427TIP3   OH240475   1.846   2.708  10.449 -0.1159 -0.0738 -1.1297
 5427TIP3    H140476   1.905   2.689  10.376  1.3104 -0.0079 -0.0462
 5427TIP3    H240477   1.876   2.650  10.519  0.4799  1.8994  0.3299
 5428TIP3   OH240478   1.755   2.050  10.509  0.2469 -0.5548  0.2321
 5428TIP3    H140479   1.814   2.118  10.542 -0.2010  0.5386 -1.1290
 5428TIP3    H240480   1.743   2.071  10.417 -1.0740 -1.6419  0.1232
 5429TIP3   OH240481   1.486   1.105  11.520  0.1424 -0.4697  0.0776
 5429TIP3    H140482   1.460   1.095  11.429 -1.0745 -2.1521  0.5594
 5429TIP3    H240483   1.582   1.108  11.517  0.1408 -1.0277 -1.2215
 5430TIP3   OH240484   3.801   2.691   9.867  0.6546  0.0930  0.1078
 5430TIP3    H140485   3.781   2.633   9.940 -0.1225  1.8486  1.3628
 5430TIP3    H240486   3.867   2.751   9.901  0.6234  0.6576 -0.7851
 5431TIP3   OH240487   5.891   0.035  10.886 -0.1849 -0.3659  0.1826
 5431TIP3    H140488   5.856  -0.029  10.949 -0.3231 -1.1876 -0.7146
 5431TIP3    H240489   5.860   0.119  10.919 -2.3623 -0.9906 -0.1166
 5432TIP3   OH240490   0.641   4.025   8.501 -0.2313  0.3079  0.0878
 5432TIP3    H140491   0.611   4.084   8.432 -0.9709  0.6448  0.6860
 5432TIP3    H240492   0.560   3.992   8.541  0.1856  0.1376  0.8050
 5433TIP3   OH240493   4.346   0.332  11.474 -0.1592 -0.0470 -0.1510
 5433TIP3    H140494   4.419   0.386  11.441 -0.4991  0.9111  0.6133
 5433TIP3    H240495   4.376   0.242  11.463  0.0875  0.2434 -2.2517
 5434TIP3   OH240496   0.216   1.838   9.646 -0.9348  0.3330  0.7388
 5434TIP3    H140497   0.292   1.851   9.589  1.2508 -0.5784  3.2305
 5434TIP3    H240498   0.198   1.925   9.682 -0.8959  0.4991  0.3647
 5435TIP3   OH240499   6.677   6.493  11.259  0.3001  0.0576 -0.2277
 5435TIP3    H140500   6.689   6.580  11.222 -0.8486  1.7342  2.9938
 5435TIP3    H240501   6.761   6.472  11.299 -0.3318  1.2775  1.8885
 5436TIP3   OH240502   3.900   4.805  11.413  0.1087 -0.0505 -0.1529
 5436TIP3    H140503   3.830   4.828  11.474  0.2613  0.3742 -0.1332
 5436TIP3    H240504   3.897   4.710  11.407  1.0518 -0.2454  1.6693
 5437TIP3   OH240505   2.584   1.335  10.360 -0.1794  0.3939 -0.0370
 5437TIP3    H140506   2.534   1.254  10.349  1.1311 -0.4314 -0.2332
 5437TIP3    H240507   2.566   1.363  10.449  0.9760 -1.3235  0.8020
 5438TIP3   OH240508   1.311   1.847  11.530 -0.5707  0.5096  0.3053
 5438TIP3    H140509   1.240   1.801  11.574 -1.2990  0.6444 -0.7007
 5438TIP3    H240510   1.277   1.867  11.443  0.7568  0.4522 -0.2501
 5439TIP3   OH240511   1.720   0.708   8.937  0.2984 -0.0823  0.0519
 5439TIP3    H140512   1.682   0.783   8.891 -0.0311 -0.3561 -0.1286
 5439TIP3    H240513   1.814   0.715   8.919  0.1341 -0.4312 -1.0537
 5440TIP3   OH240514   3.961   5.785  11.860  0.3964 -0.6043  0.4542
 5440TIP3    H140515   3.978   5.693  11.882  0.9846 -0.1308  2.1199
 5440TIP3    H240516   3.873   5.802  11.893 -0.7132 -1.1510 -1.9623
 5441TIP3   OH240517   5.321   2.439   9.453  0.2029 -0.4161  0.3069
 5441TIP3    H140518   5.278   2.519   9.424 -0.3184 -1.1434 -1.0367
 5441TIP3    H240519   5.330   2.449   9.548  0.6598  1.4544  0.1028
 5442TIP3   OH240520   1.886   5.303   9.875 -0.3722 -0.0810 -0.1588
 5442TIP3    H140521   1.940   5.224   9.869 -0.5531 -0.2669  0.5420
 5442TIP3    H240522   1.920   5.361   9.807  0.7659 -0.1749  0.3034
 5443TIP3   OH240523   4.610   2.874  11.157  0.0338  0.2222 -0.5598
 5443TIP3    H140524   4.655   2.917  11.085 -0.9105 -0.1217 -1.3702
 5443TIP3    H240525   4.562   2.943  11.201 -0.9520  0.1248 -1.4584
 5444TIP3   OH240526   4.248   1.383   9.593  1.4287 -0.1659  0.1540
 5444TIP3    H140527   4.155   1.390   9.568  1.8714  1.2972 -1.2631
 5444TIP3    H240528   4.272   1.472   9.618  2.7348 -0.2977 -0.5724
 5445TIP3   OH240529   0.272   4.668  11.938 -0.6287  0.2016 -0.2373
 5445TIP3    H140530   0.295   4.605  12.007 -2.6416 -1.0368 -0.6105
 5445TIP3    H240531   0.296   4.624  11.857  0.1497  0.9505 -0.4312
 5446TIP3   OH240532   3.846   3.720  11.099 -0.2221 -0.0433  0.1675
 5446TIP3    H140533   3.914   3.725  11.032 -0.1646  0.1112  0.2374
 5446TIP3    H240534   3.866   3.639  11.147  1.0917  0.9948  1.4588
 5447TIP3   OH240535   4.106   5.125   9.052  0.1269  0.3323 -0.1695
 5447TIP3    H140536   4.072   5.106   9.139  0.1072  0.9784 -0.0260
 5447TIP3    H240537   4.186   5.174   9.068 -0.7009  1.8729 -0.4927
 5448TIP3   OH240538   0.771   3.948  11.119  0.6639 -0.1190 -0.2790
 5448TIP3    H140539   0.813   3.866  11.097  1.7955  0.6008 -0.8874
 5448TIP3    H240540   0.806   3.971  11.205 -1.4026 -1.3829  0.9773
 5449TIP3   OH240541   2.897   0.739  11.516 -0.1079 -0.2410  0.2763
 5449TIP3    H140542   2.809   0.709  11.495  0.2362 -1.0472 -0.0639
 5449TIP3    H240543   2.916   0.806  11.451  0.2569 -1.4440 -0.9113
 5450TIP3   OH240544   0.333   0.546  11.095 -0.6235 -0.2217  0.0374
 5450TIP3    H140545   0.287   0.493  11.029  0.4557  0.7711 -1.5890
 5450TIP3    H240546   0.391   0.602  11.044  0.1474  0.7152  1.8605
 5451TIP3   OH240547   2.903   2.634  10.917 -0.0795  0.1104 -0.2647
 5451TIP3    H140548   2.908   2.703  10.852  0.9087  0.7326  0.4404
 5451TIP3    H240549   2.816   2.642  10.955 -0.0273  0.8625 -0.3017
 5452TIP3   OH240550   2.552   6.177  11.489 -0.1992 -0.3693  0.5896
 5452TIP3    H140551   2.524   6.172  11.581 -1.1007  1.0848  0.4214
 5452TIP3    H240552   2.644   6.200  11.493 -0.6227  1.3292  1.1490
 5453TIP3   OH240553   5.337   2.296   9.142 -0.4769  0.3849 -0.4945
 5453TIP3    H140554   5.425   2.270   9.114 -0.5823  0.4287 -0.8647
 5453TIP3    H240555   5.330   2.388   9.118 -0.4373  0.5190  0.0010
 5454TIP3   OH240556   4.229   6.740   9.221  0.0846 -0.3847  0.3427
 5454TIP3    H140557   4.298   6.785   9.174 -0.8482  1.1054  0.3508
 5454TIP3    H240558   4.256   6.648   9.221  0.9780 -0.1621 -1.5337
 5455TIP3   OH240559   0.084   4.458   8.632 -0.6412  0.2129  0.0574
 5455TIP3    H140560   0.171   4.468   8.594 -0.0864 -1.8304  0.6902
 5455TIP3    H240561   0.071   4.537   8.684  0.9524  0.4106  0.1898
 5456TIP3   OH240562   5.097   5.972   9.784  0.1244 -0.4325  0.1081
 5456TIP3    H140563   5.066   6.034   9.851 -0.9327  0.0207 -0.7726
 5456TIP3    H240564   5.092   5.887   9.826 -0.2486 -0.1256  0.7062
 5457TIP3   OH240565   2.163   6.285   8.981  0.2595  0.1004 -0.4629
 5457TIP3    H140566   2.229   6.326   9.037 -0.6132  0.2506  0.4963
 5457TIP3    H240567   2.117   6.358   8.940 -1.0566  0.1361  0.9661
 5458TIP3   OH240568   1.925   4.523   9.351 -0.5235  0.1154 -0.5936
 5458TIP3    H140569   2.001   4.465   9.358  0.7052  1.4987 -1.7789
 5458TIP3    H240570   1.858   4.482   9.407  1.0020 -1.2624  0.3094
 5459TIP3   OH240571   0.192   1.522  11.245  0.0275 -0.8500 -0.4973
 5459TIP3    H140572   0.137   1.578  11.191  1.5027  1.9926  0.6858
 5459TIP3    H240573   0.133   1.488  11.313 -0.4543  1.8425  0.5558
 5460TIP3   OH240574   3.860   6.528  10.300  0.0864 -0.8107 -0.0546
 5460TIP3    H140575   3.941   6.512  10.251  0.0487 -0.3293 -0.2861
 5460TIP3    H240576   3.871   6.616  10.336 -1.0421  0.0072 -1.5643
 5461TIP3   OH240577   2.142   3.091  10.079 -0.7901  0.3004  0.1325
 5461TIP3    H140578   2.198   3.142  10.021  0.2841 -0.5556  0.3896
 5461TIP3    H240579   2.061   3.077  10.028  0.2047 -0.6168 -1.2665
 5462TIP3   OH240580   4.046   1.965  10.068  0.0989 -0.3124  0.1856
 5462TIP3    H140581   4.006   1.924   9.992  0.6111  0.9896 -0.8170
 5462TIP3    H240582   4.052   2.058  10.046  0.3494  0.0840  1.7745
 5463TIP3   OH240583   3.906   0.007  11.148 -0.2657 -0.4718 -0.5116
 5463TIP3    H140584   3.866   0.093  11.140  0.2237 -0.2590 -0.6768
 5463TIP3    H240585   3.832  -0.053  11.162 -0.6203 -0.0563 -0.6102
 5464TIP3   OH240586   3.549   1.572   9.088 -0.0635 -0.0143  0.1397
 5464TIP3    H140587   3.544   1.477   9.095  0.9681  0.0579  2.5674
 5464TIP3    H240588   3.458   1.601   9.089 -0.4217 -0.9775 -1.4794
 5465TIP3   OH240589   2.384   1.747   9.655 -0.2478 -0.6142 -0.1347
 5465TIP3    H140590   2.322   1.819   9.643 -1.7630 -1.7704  0.3765
 5465TIP3    H240591   2.467   1.790   9.678 -1.0130  0.9667 -0.1797
 5466TIP3   OH240592   3.181   1.891  11.553  0.6374 -0.1934 -0.2295
 5466TIP3    H140593   3.180   1.840  11.472  0.5372 -1.1820  0.3783
 5466TIP3    H240594   3.097   1.871  11.595 -0.6157  2.5291 -1.1938
 5467TIP3   OH240595   0.192   0.212   9.967  0.1970  0.2616 -0.2592
 5467TIP3    H140596   0.133   0.276   9.928 -0.4980  0.6025  1.2606
 5467TIP3    H240597   0.244   0.262  10.030  1.4181 -0.2340 -0.8355
 5468TIP3   OH240598   5.296   6.231   9.944 -0.2246  0.1113  0.0273
 5468TIP3    H140599   5.299   6.287  10.022  1.2665 -1.0184  0.8380
 5468TIP3    H240600   5.214   6.183   9.952  0.4873 -0.9469  1.6706
 5469TIP3   OH240601   6.001   1.109  12.517 -0.4099  0.2190 -0.1678
 5469TIP3    H140602   5.995   1.155  12.433  1.7416 -0.0445 -0.5142
 5469TIP3    H240603   5.940   1.156  12.574 -2.8034 -0.3090 -2.1326
 5470TIP3   OH240604   0.600   6.222  11.018 -0.0129 -0.6330 -0.1975
 5470TIP3    H140605   0.586   6.316  11.010  0.0402 -0.4572  1.4521
 5470TIP3    H240606   0.546   6.196  11.092  3.7587 -0.9353  2.7950
 5471TIP3   OH240607   0.466   5.097   9.243  0.0417  0.2950 -0.2361
 5471TIP3    H140608   0.412   5.078   9.319 -1.1315 -0.3619 -1.1888
 5471TIP3    H240609   0.556   5.095   9.276 -0.4963  3.6389  1.8569
 5472TIP3   OH240610   2.897   1.822  11.647 -0.2165 -0.5625  1.1277
 5472TIP3    H140611   2.853   1.904  11.671  0.2704 -0.4760  1.7300
 5472TIP3    H240612   2.826   1.761  11.629 -0.5840 -0.1465  1.1464
 5473TIP3   OH240613   3.135   0.639  11.864  0.3983 -0.4822 -0.0170
 5473TIP3    H140614   3.048   0.625  11.827 -0.8492 -1.7134  3.0267
 5473TIP3    H240615   3.130   0.725  11.905  0.5952 -0.5854  0.2274
 5474TIP3   OH240616   3.083   0.293  11.136 -0.3299  0.4295  0.7134
 5474TIP3    H140617   3.117   0.367  11.186 -2.2901 -0.0741  2.9338
 5474TIP3    H240618   3.071   0.328  11.047  2.5428  1.5653  0.6688
 5475TIP3   OH240619   2.124   0.389  10.110  0.2988  0.1832  0.0662
 5475TIP3    H140620   2.102   0.458  10.048 -0.8918 -0.1550  0.0759
 5475TIP3    H240621   2.212   0.361  10.085 -1.0915 -1.8671 -3.3829
 5476TIP3   OH240622   6.270   2.149  10.986 -0.1160  0.7123  0.3037
 5476TIP3    H140623   6.195   2.091  10.998  0.0078  0.5841  0.4700
 5476TIP3    H240624   6.234   2.237  10.995 -0.1762  0.6386  0.7836
 5477TIP3   OH240625   0.324   3.391  11.441 -0.0796 -0.5136  0.1216
 5477TIP3    H140626   0.399   3.419  11.388 -1.6875  2.4331 -0.8117
 5477TIP3    H240627   0.363   3.361  11.523  2.1777 -0.0448 -0.7004
 5478TIP3   OH240628   3.731   4.601  11.666  0.0897  0.0425 -0.1743
 5478TIP3    H140629   3.787   4.529  11.638  1.2426  0.8301  0.0383
 5478TIP3    H240630   3.669   4.613  11.594  0.5044 -0.5330 -0.6362
 5479TIP3   OH240631   4.488   5.517   8.545  0.0095 -0.0599 -0.0781
 5479TIP3    H140632   4.402   5.541   8.580 -0.1666  1.1405 -1.2501
 5479TIP3    H240633   4.469   5.477   8.460  0.5279 -1.3884  0.4016
 5480TIP3   OH240634   5.427   0.796  10.790 -0.4839 -0.3032  0.1510
 5480TIP3    H140635   5.426   0.759  10.878  1.1393 -2.2006 -0.5473
 5480TIP3    H240636   5.449   0.722  10.733 -1.1076  0.9457 -1.8122
 5481TIP3   OH240637   6.078   5.773  10.903 -0.2078  0.0422 -0.0045
 5481TIP3    H140638   5.986   5.790  10.882 -0.7811 -1.0629  1.4137
 5481TIP3    H240639   6.126   5.840  10.856 -1.6801  0.1818 -1.4171
 5482TIP3   OH240640   6.571   0.201  11.023 -0.2493 -0.1335 -0.3879
 5482TIP3    H140641   6.594   0.124  11.074 -0.1330 -0.2956 -0.6839
 5482TIP3    H240642   6.510   0.168  10.957 -0.8519  0.1785  0.0023
 5483TIP3   OH240643   5.120   1.148  10.926  0.2575 -0.3889 -0.1190
 5483TIP3    H140644   5.037   1.133  10.881 -0.5141 -2.2896  1.8066
 5483TIP3    H240645   5.186   1.111  10.867 -0.6731 -2.4360  0.0532
 5484TIP3   OH240646   6.660   0.940   9.687  0.4469  0.5333 -0.0202
 5484TIP3    H140647   6.587   0.879   9.675  0.4172  0.6272 -0.3190
 5484TIP3    H240648   6.718   0.922   9.613  1.1653 -0.1528  0.6828
 5485TIP3   OH240649   4.559   5.244  11.362  0.6197 -0.0610  0.3671
 5485TIP3    H140650   4.530   5.225  11.451  0.0453 -1.9764 -0.1783
 5485TIP3    H240651   4.483   5.221  11.307  1.2063  0.4143 -0.6786
 5486TIP3   OH240652   4.834   0.203  11.137  0.2169 -0.0129  0.1671
 5486TIP3    H140653   4.927   0.199  11.160 -0.0608  0.5793  1.4879
 5486TIP3    H240654   4.794   0.134  11.189 -0.2077  0.2857  0.2333
 5487TIP3   OH240655   3.348   1.919   8.613 -0.0230  0.5908  0.0262
 5487TIP3    H140656   3.289   1.850   8.644 -0.4415  0.8311 -0.2209
 5487TIP3    H240657   3.435   1.879   8.615 -0.3090 -0.0805 -0.4976
 5488TIP3   OH240658   0.268   1.179   9.944  0.2313  0.0017  0.6919
 5488TIP3    H140659   0.235   1.095   9.911 -0.5732  0.8529 -0.7360
 5488TIP3    H240660   0.211   1.198  10.019  2.4463 -2.2257  3.1609
 5489TIP3   OH240661   3.138   4.527  10.389  0.4024 -0.2673 -0.4157
 5489TIP3    H140662   3.217   4.558  10.434 -0.1478  0.2825  0.1852
 5489TIP3    H240663   3.096   4.468  10.452  0.6732 -1.0895 -0.9906
 5490TIP3   OH240664   4.395   0.138   9.426  0.0238 -0.6912 -1.0754
 5490TIP3    H140665   4.474   0.170   9.384  1.8877 -0.3513  2.3080
 5490TIP3    H240666   4.333   0.210   9.419  1.3578  0.5640 -0.5548
 5491TIP3   OH240667   3.076   5.911  10.489  0.1900  0.3823  0.3311
 5491TIP3    H140668   2.996   5.962  10.480  0.3225  0.6690  0.7724
 5491TIP3    H240669   3.047   5.821  10.503 -0.0480  0.4259  0.1143
 5492TIP3   OH240670   0.757   3.994  10.700  0.2379 -0.4839  0.0864
 5492TIP3    H140671   0.770   3.980  10.794  0.7908  0.0621  0.0974
 5492TIP3    H240672   0.807   4.073  10.681 -0.6079 -0.0803 -0.4985
 5493TIP3   OH240673   2.446   5.939  11.329 -0.0173 -0.0421 -0.1244
 5493TIP3    H140674   2.428   5.882  11.404  1.6346 -1.8131 -1.0060
 5493TIP3    H240675   2.451   6.027  11.367 -0.1418 -0.7706  1.6800
 5494TIP3   OH240676   2.534   1.522   9.555 -0.2667 -0.1150  0.1209
 5494TIP3    H140677   2.523   1.451   9.618 -0.5449  0.2428  0.4764
 5494TIP3    H240678   2.486   1.596   9.592  0.9349  0.6081  0.2937
 5495TIP3   OH240679   2.098   6.342  11.722  0.0057  0.6687 -0.2183
 5495TIP3    H140680   2.039   6.267  11.716  0.4148  0.4097 -1.3281
 5495TIP3    H240681   2.079   6.394  11.644  0.3139  1.2829  0.1073
 5496TIP3   OH240682   0.711   4.240   9.823 -0.4082  0.1224 -0.2435
 5496TIP3    H140683   0.654   4.236   9.900 -0.5916  0.0693 -0.3831
 5496TIP3    H240684   0.766   4.317   9.838  0.0334 -0.2802  0.2732
 5497TIP3   OH240685   6.278   4.187  11.691  0.0563 -0.7000  0.1559
 5497TIP3    H140686   6.374   4.186  11.691  0.0718 -0.1787 -0.5000
 5497TIP3    H240687   6.253   4.100  11.662  0.3514 -0.5394 -0.5936
 5498TIP3   OH240688   2.264   5.401  10.399 -0.1146  0.0302  0.3450
 5498TIP3    H140689   2.216   5.431  10.322 -0.3817  0.0915  0.5362
 5498TIP3    H240690   2.273   5.307  10.386 -0.9298 -0.0969  0.6659
 5499TIP3   OH240691   0.702   0.127  11.372  0.1870 -0.3492 -0.4108
 5499TIP3    H140692   0.707   0.204  11.429 -0.7609 -0.3163 -0.3553
 5499TIP3    H240693   0.751   0.060  11.419  0.4462  0.0235 -0.1362
 5500TIP3   OH240694   3.957   1.915  11.342  0.5495 -0.4776  0.0742
 5500TIP3    H140695   3.985   1.884  11.256  0.1275 -1.6376  0.3355
 5500TIP3    H240696   4.028   1.973  11.371  1.2085 -0.9310 -0.5947
 5501TIP3   OH240697   4.807   5.475   9.995  0.0644  0.1871 -0.3033
 5501TIP3    H140698   4.836   5.523   9.917 -0.6107  0.4081 -0.4293
 5501TIP3    H240699   4.712   5.475   9.989 -0.0546  1.2035  1.1167
 5502TIP3   OH240700   4.456   6.062   9.485 -0.4061  0.4826 -0.1327
 5502TIP3    H140701   4.459   6.050   9.390 -2.0192 -0.7156 -0.0659
 5502TIP3    H240702   4.547   6.049   9.514  0.0397  0.5250 -1.4643
 5503TIP3   OH240703   0.877   5.521   9.180 -0.0373 -0.2197 -0.0307
 5503TIP3    H140704   0.851   5.593   9.237  0.5463  0.7482 -0.9477
 5503TIP3    H240705   0.947   5.476   9.228  1.0662  1.1160 -0.3155
 5504TIP3   OH240706   6.201   5.002  10.040 -0.4807 -0.9120 -0.0103
 5504TIP3    H140707   6.250   5.019   9.960 -1.1739  0.3074 -0.1955
 5504TIP3    H240708   6.122   5.054  10.031 -1.1616 -1.7633  0.9071
 5505TIP3   OH240709   4.068   6.249  10.759  0.2097  0.2552 -0.4800
 5505TIP3    H140710   4.087   6.164  10.798  0.9979  0.8994  0.6259
 5505TIP3    H240711   3.972   6.256  10.760  0.1936  0.0555  0.9622
 5506TIP3   OH240712   6.093   2.929  10.518  0.6473  0.1576  0.0256
 5506TIP3    H140713   6.079   2.851  10.465  0.6678 -1.0439  1.7249
 5506TIP3    H240714   6.039   2.996  10.477  0.0038 -0.9565 -1.0017
 5507TIP3   OH240715   4.848   4.419  11.483 -0.3714  0.0626 -0.0810
 5507TIP3    H140716   4.885   4.501  11.448 -0.1028  0.7270  1.6571
 5507TIP3    H240717   4.911   4.391  11.549 -0.3136 -1.7449 -0.8601
 5508TIP3   OH240718   3.940   2.406   9.111 -0.1994  0.0256  0.0186
 5508TIP3    H140719   3.895   2.478   9.066 -1.1551 -0.5585  0.0149
 5508TIP3    H240720   4.003   2.373   9.047 -0.8969 -0.1905 -0.5757
 5509TIP3   OH240721   4.247   0.242  11.163 -0.0828  0.0579 -0.2069
 5509TIP3    H140722   4.341   0.231  11.171 -0.2991 -1.6110  0.4733
 5509TIP3    H240723   4.211   0.194  11.238 -1.4720  0.6199 -0.4892
 5510TIP3   OH240724   1.610   5.801   9.865 -0.4161 -0.0347  0.5235
 5510TIP3    H140725   1.517   5.798   9.842 -0.3497  0.9015  0.0556
 5510TIP3    H240726   1.613   5.846   9.949 -0.3244  1.1048 -0.0577
 5511TIP3   OH240727   2.511   2.893   8.757 -0.4415  0.0393  0.1245
 5511TIP3    H140728   2.479   2.970   8.710  0.3024  0.4760  0.3136
 5511TIP3    H240729   2.605   2.891   8.738 -0.5675 -1.2540 -0.4923
 5512TIP3   OH240730   3.501   0.700  12.312  0.2642 -0.6270  0.0739
 5512TIP3    H140731   3.439   0.730  12.379  1.5562 -0.2554  1.1328
 5512TIP3    H240732   3.574   0.662  12.361  0.6490 -1.5490 -1.1615
 5513TIP3   OH240733   3.593   0.868   9.777  0.1919 -0.2113 -0.1011
 5513TIP3    H140734   3.640   0.948   9.799  0.5588 -0.8854  1.6806
 5513TIP3    H240735   3.655   0.817   9.724 -0.0608  0.6585 -1.2819
 5514TIP3   OH240736   4.206   5.249  11.438 -0.4814 -0.4221  0.3119
 5514TIP3    H140737   4.252   5.240  11.355  1.9053  1.8964  1.2446
 5514TIP3    H240738   4.256   5.194  11.499  1.0514  1.8864  1.2701
 5515TIP3   OH240739   5.750   2.808   9.622  0.4778 -0.1513 -0.0282
 5515TIP3    H140740   5.704   2.858   9.690  0.1644 -0.5665  0.0654
 5515TIP3    H240741   5.805   2.746   9.670  1.0458  0.2528 -0.1429
 5516TIP3   OH240742   6.319   4.375  10.825  0.0628  0.6544  0.6488
 5516TIP3    H140743   6.226   4.351  10.829  0.6318 -1.7021  1.4211
 5516TIP3    H240744   6.361   4.302  10.779  1.4478  2.0867 -0.4855
 5517TIP3   OH240745   5.053   3.332  17.098 -0.1098 -0.1062 -0.0289
 5517TIP3    H140746   5.138   3.339  17.055  0.0007  0.7404  0.3061
 5517TIP3    H240747   5.070   3.354  17.189 -0.6190 -0.3126  0.1196
 5518TIP3   OH240748   5.462   1.618   9.642 -0.5989 -0.2880 -0.5596
 5518TIP3    H140749   5.402   1.592   9.711  0.9644 -0.6478  0.7366
 5518TIP3    H240750   5.473   1.539   9.588  1.3224 -1.3484  1.2398
 5519TIP3   OH240751   5.868   3.475  10.155 -0.5609 -0.5839  0.0667
 5519TIP3    H140752   5.848   3.564  10.186  1.3949  0.3389 -1.1085
 5519TIP3    H240753   5.810   3.462  10.080  0.2362  0.3755 -0.7446
 5520TIP3   OH240754   6.394   6.488   9.384 -0.3523  0.3370  0.4059
 5520TIP3    H140755   6.354   6.432   9.318 -1.6094 -0.7874  2.0219
 5520TIP3    H240756   6.374   6.578   9.356  1.0476  0.0150 -1.8253
 5521TIP3   OH240757   3.124   4.867  11.399 -0.1452  0.2805  0.2427
 5521TIP3    H140758   3.201   4.923  11.398  0.8305 -0.9513  1.5871
 5521TIP3    H240759   3.079   4.889  11.481  0.1208 -0.6851  0.6683
 5522TIP3   OH240760   2.861   6.201  11.500  0.7537  0.1959 -0.2180
 5522TIP3    H140761   2.881   6.129  11.561 -1.3758 -1.3601 -1.2007
 5522TIP3    H240762   2.908   6.178  11.420  0.3337  0.0372 -0.4254
 5523TIP3   OH240763   4.911   1.849  10.528  0.9994 -0.0909 -0.4285
 5523TIP3    H140764   4.901   1.759  10.559 -3.0993  0.5915  0.8446
 5523TIP3    H240765   4.850   1.855  10.454  1.5323  1.5562 -0.7727
 5524TIP3   OH240766   3.009   6.125  10.106  0.2254 -0.7889  0.2937
 5524TIP3    H140767   3.077   6.140  10.172 -0.0583  0.5243  0.2968
 5524TIP3    H240768   3.058   6.108  10.025  0.5940  1.1226  0.0744
 5525TIP3   OH240769   5.839   0.516   9.886 -0.0874 -0.7977 -0.2151
 5525TIP3    H140770   5.754   0.545   9.918  0.0774 -0.9528  0.3806
 5525TIP3    H240771   5.884   0.482   9.964  0.3481 -1.1264 -0.6033
 5526TIP3   OH240772   5.793   5.492  11.110 -0.0333  0.2944 -0.6991
 5526TIP3    H140773   5.727   5.481  11.041  0.1381  3.8456 -1.6104
 5526TIP3    H240774   5.743   5.512  11.188 -0.1573  1.8756 -1.1429
 5527TIP3   OH240775   5.185   2.644   9.369  0.0654  0.3373 -0.0821
 5527TIP3    H140776   5.172   2.709   9.438 -1.9364 -0.9595  0.8825
 5527TIP3    H240777   5.104   2.646   9.318  0.2864 -0.8053 -0.5218
 5528TIP3   OH240778   1.791   6.097   8.645 -0.0754  0.7187 -0.1206
 5528TIP3    H140779   1.745   6.036   8.587 -0.3805  0.2684  0.5767
 5528TIP3    H240780   1.792   6.180   8.597 -4.4409  1.6802  1.0200
 5529TIP3   OH240781   4.977   3.347  19.323  0.4373 -0.1485 -0.0877
 5529TIP3    H140782   5.059   3.348  19.274 -0.6445  1.5677 -1.9666
 5529TIP3    H240783   4.922   3.284  19.277  0.4599 -0.9054  0.8656
 5530TIP3   OH240784   1.744   3.670  11.007  0.1706  0.5197 -0.3012
 5530TIP3    H140785   1.793   3.734  11.057 -1.2697  1.1066  0.4241
 5530TIP3    H240786   1.659   3.665  11.051 -0.1187 -1.1088 -0.9730
 5531TIP3   OH240787   3.290   2.369  10.531  0.8208  0.3439  0.1885
 5531TIP3    H140788   3.337   2.396  10.453  0.7262 -0.9596 -0.3541
 5531TIP3    H240789   3.349   2.306  10.574 -0.8582 -2.4367 -1.2487
 5532TIP3   OH240790   2.520   1.238   9.433 -0.0445  0.3353  0.3597
 5532TIP3    H140791   2.465   1.197   9.500 -1.6678 -0.6448 -1.4834
 5532TIP3    H240792   2.598   1.183   9.430  1.2940  1.8418  3.1246
 5533TIP3   OH240793   1.946   6.318   9.462 -0.4393  0.0725  0.0718
 5533TIP3    H140794   2.022   6.309   9.520  0.3066  1.8981 -0.5592
 5533TIP3    H240795   1.949   6.242   9.405 -0.2359 -0.8892  1.3304
 5534TIP3   OH240796   4.259   4.056  11.499 -0.4124  0.5058 -0.1859
 5534TIP3    H140797   4.287   4.079  11.587  2.2113 -0.0242 -0.8059
 5534TIP3    H240798   4.246   3.961  11.501  0.2765  0.3950 -0.4887
 5535TIP3   OH240799   5.620   0.866  10.143 -0.5930 -0.2377 -0.7311
 5535TIP3    H140800   5.628   0.961  10.136 -1.1217 -0.1991 -0.8317
 5535TIP3    H240801   5.549   0.843  10.083 -0.6856 -0.6601 -0.4651
 5536TIP3   OH240802   0.927   5.253  10.927  0.1047  0.0896 -0.0385
 5536TIP3    H140803   0.868   5.202  10.983 -1.1206 -0.7994 -1.9978
 5536TIP3    H240804   0.995   5.191  10.903 -0.4716 -0.1653 -1.0846
 5537TIP3   OH240805   2.782   3.220  10.281 -0.9201 -0.5621  0.5850
 5537TIP3    H140806   2.855   3.279  10.301 -1.9246  0.5115  1.1722
 5537TIP3    H240807   2.817   3.132  10.299  0.4179 -0.1292  0.2315
 5538TIP3   OH240808   5.272   4.494  10.254 -0.2557  0.7255 -0.0293
 5538TIP3    H140809   5.342   4.435  10.283 -0.0618 -0.2675 -2.3156
 5538TIP3    H240810   5.193   4.441  10.260 -0.3595  0.8463 -0.3319
 5539TIP3   OH240811   1.182   4.952   9.491 -0.0254 -0.0693  0.4462
 5539TIP3    H140812   1.265   4.999   9.502 -0.3892  0.7903 -0.3151
 5539TIP3    H240813   1.141   4.955   9.577  0.3133  0.3215  0.5992
 5540TIP3   OH240814   4.614   4.826  11.049  0.4120  0.7595  0.5237
 5540TIP3    H140815   4.586   4.784  11.131  0.0663 -2.8255 -1.2443
 5540TIP3    H240816   4.548   4.894  11.034 -1.0543 -0.2606  1.9451
 5541TIP3   OH240817   6.234   3.923  11.578 -0.8668  0.3781 -0.1355
 5541TIP3    H140818   6.194   3.878  11.504  1.4165 -0.7997 -0.7149
 5541TIP3    H240819   6.261   3.852  11.637 -1.4842  1.2438  1.2374
 5542TIP3   OH240820   3.716   1.333  11.182 -0.2140 -0.0799  0.1044
 5542TIP3    H140821   3.623   1.348  11.168 -0.2516  3.3285  2.6420
 5542TIP3    H240822   3.721   1.298  11.271  0.9180 -0.5521 -0.1285
 5543TIP3   OH240823   1.124   6.347   9.998  0.8617  0.5695  0.2389
 5543TIP3    H140824   1.050   6.297   9.964  0.3933  1.8591 -0.6929
 5543TIP3    H240825   1.201   6.296   9.972  0.3899  0.2328 -0.5263
 5544TIP3   OH240826   1.964   5.359  11.395  0.0299  0.1428  0.3180
 5544TIP3    H140827   1.999   5.426  11.453  1.4973  1.0552 -1.5054
 5544TIP3    H240828   1.882   5.396  11.362 -0.2551  0.0868  0.9502
 5545TIP3   OH240829   0.816   4.226  10.931  0.0880  0.3134 -0.5584
 5545TIP3    H140830   0.874   4.161  10.971  0.1852  1.5144  1.3569
 5545TIP3    H240831   0.857   4.246  10.847  0.8974 -0.9215 -0.4830
 5546TIP3   OH240832   0.997   0.546   9.984 -0.7995  0.1009  0.3004
 5546TIP3    H140833   1.029   0.635   9.994  1.4467 -0.6168 -0.0167
 5546TIP3    H240834   0.929   0.552   9.916 -0.4113  1.4919  0.0184
 5547TIP3   OH240835   3.863   4.262   8.584  0.5309  0.1148 -0.0772
 5547TIP3    H140836   3.855   4.344   8.633  2.7015  0.2850  0.0737
 5547TIP3    H240837   3.881   4.289   8.494  1.7912 -0.1724  0.0743
 5548TIP3   OH240838   2.029   2.089   9.043 -0.3103 -0.0749 -0.1109
 5548TIP3    H140839   1.943   2.049   9.029 -0.6441  1.1873 -2.0548
 5548TIP3    H240840   2.046   2.076   9.137 -1.2403 -2.9441 -0.2303
 5549TIP3   OH240841   1.856   1.494  11.293  0.0646  0.0280 -0.0750
 5549TIP3    H140842   1.838   1.517  11.384  1.3150 -0.4338  0.3247
 5549TIP3    H240843   1.907   1.413  11.299  4.2115  2.2902 -0.8420
 5550TIP3   OH240844   4.918   0.811   9.489 -0.2977  0.0589  0.6266
 5550TIP3    H140845   5.011   0.791   9.488 -0.1169  0.8988  0.7592
 5550TIP3    H240846   4.891   0.805   9.397 -0.4607 -1.7346  0.7579
 5551TIP3   OH240847   6.362   4.674   9.542 -0.2805  0.3535  0.3692
 5551TIP3    H140848   6.444   4.671   9.492  0.6216  2.1006  1.6382
 5551TIP3    H240849   6.390   4.678   9.633 -1.8037  0.5861  0.8424
 5552TIP3   OH240850   4.084   4.976  10.265  0.3551 -0.1804 -0.0520
 5552TIP3    H140851   4.058   5.006  10.352 -0.3609 -0.7066 -0.0775
 5552TIP3    H240852   4.005   4.987  10.212  0.8899  0.4671 -0.7218
 5553TIP3   OH240853   6.231   3.944  10.396  0.0021  0.1035 -0.5289
 5553TIP3    H140854   6.197   4.030  10.424 -1.7080 -0.3269 -1.1902
 5553TIP3    H240855   6.200   3.934  10.306 -0.4434 -1.5218 -0.2209
 5554TIP3   OH240856   6.372   5.611  10.080  0.8314 -0.2873  0.1980
 5554TIP3    H140857   6.325   5.606  10.163  0.0302  1.5302 -0.1027
 5554TIP3    H240858   6.456   5.569  10.098  0.5917 -0.1269  1.8749
 5555TIP3   OH240859   3.818   6.051   8.690 -0.0862 -0.2488 -0.0075
 5555TIP3    H140860   3.832   6.139   8.654 -1.3196 -0.1259 -0.2531
 5555TIP3    H240861   3.853   6.056   8.779  2.7260 -0.4657 -1.0023
 5556TIP3   OH240862   1.156   4.750   9.220 -1.1841 -0.2229 -0.2964
 5556TIP3    H140863   1.082   4.779   9.273 -1.1311 -0.8299  0.1159
 5556TIP3    H240864   1.233   4.773   9.271 -1.1627 -2.1459  0.6273
 5557TIP3   OH240865   4.078   4.219   8.780 -0.5077 -0.3782 -0.0361
 5557TIP3    H140866   4.002   4.190   8.831 -0.4312 -0.7159 -0.1137
 5557TIP3    H240867   4.045   4.231   8.691 -0.5751 -0.0667  0.0278
 5558TIP3   OH240868   2.919   5.338   8.809 -0.3560  0.0998 -0.0023
 5558TIP3    H140869   2.880   5.327   8.722 -0.7223  0.0765  0.1623
 5558TIP3    H240870   3.007   5.370   8.792 -0.4000  0.0204 -0.3869
 5559TIP3   OH240871   0.393   1.636   9.050 -0.1629  0.6617 -0.2072
 5559TIP3    H140872   0.338   1.610   8.976  1.1059  1.4355 -1.4721
 5559TIP3    H240873   0.467   1.576   9.047 -0.5621  0.0673  1.0675
 5560TIP3   OH240874   5.373   4.966   8.929 -0.0344 -0.0476  0.3307
 5560TIP3    H140875   5.338   5.053   8.952  1.3996  0.5354  0.3915
 5560TIP3    H240876   5.383   4.970   8.834  0.2767 -0.0578  0.3645
 5561TIP3   OH240877   2.688   5.885   9.234 -0.0934 -0.7867  0.6384
 5561TIP3    H140878   2.661   5.799   9.266  1.3052 -1.4322  0.1609
 5561TIP3    H240879   2.666   5.885   9.141 -0.1165 -0.6155  0.6423
 5562TIP3   OH240880   5.435   6.422   8.926  0.1320  0.6816 -0.2988
 5562TIP3    H140881   5.517   6.426   8.975 -1.2026 -1.4524  2.3929
 5562TIP3    H240882   5.386   6.499   8.953 -0.4607 -0.3143  1.6334
 5563TIP3   OH240883   2.662   2.757   9.943  0.0447 -0.0916  0.1361
 5563TIP3    H140884   2.738   2.812   9.962  0.5299 -0.9634  0.8399
 5563TIP3    H240885   2.629   2.789   9.859  1.1562  0.3485 -0.1553
 5564TIP3   OH240886   4.754   4.206  10.603  0.8424 -0.1698 -0.3385
 5564TIP3    H140887   4.709   4.124  10.627  0.3036  0.4250  0.7488
 5564TIP3    H240888   4.684   4.271  10.598  1.6318  1.0675  2.6238
 5565TIP3   OH240889   0.038   0.332   8.989 -0.1350 -0.1449  0.0230
 5565TIP3    H140890   0.046   0.299   9.079 -0.1365 -0.2792 -0.0249
 5565TIP3    H240891   0.127   0.358   8.966 -0.2306  0.3966  0.2529
 5566TIP3   OH240892   3.201   6.419  10.269  0.0791  0.1418  0.7016
 5566TIP3    H140893   3.250   6.358  10.215 -1.0080  0.5591 -0.8061
 5566TIP3    H240894   3.112   6.383  10.272  0.0204  0.3389  1.8930
 5567TIP3   OH240895   0.140   0.349  11.358  0.0745  0.0720 -0.0299
 5567TIP3    H140896   0.167   0.258  11.370  0.9948  0.4055  0.4246
 5567TIP3    H240897   0.098   0.350  11.272  1.0155 -0.5684 -0.5107
 5568TIP3   OH240898   3.100   4.533   8.706 -0.5654 -0.2053 -0.0745
 5568TIP3    H140899   3.035   4.576   8.651 -0.9473  0.0348  0.5550
 5568TIP3    H240900   3.185   4.562   8.671 -0.7455 -1.4848 -1.6848
 5569TIP3   OH240901   4.518   1.359  11.668 -0.1849 -0.9201 -0.4520
 5569TIP3    H140902   4.508   1.452  11.688 -0.6221 -0.6036 -1.9419
 5569TIP3    H240903   4.435   1.319  11.694  0.8841 -1.4180  2.5290
 5570TIP3   OH240904   1.754   4.122  10.731  0.1702 -0.7849 -0.3351
 5570TIP3    H140905   1.729   4.114  10.639  1.0363 -2.8102 -0.4433
 5570TIP3    H240906   1.673   4.145  10.776 -0.4250 -0.5181 -1.4941
 5571TIP3   OH240907   4.062   5.987  10.843  0.4112 -0.4341  0.3206
 5571TIP3    H140908   4.086   5.915  10.901 -0.8745 -2.0233 -0.9973
 5571TIP3    H240909   3.975   6.015  10.874  0.3773 -0.2702  0.0851
 5572TIP3   OH240910   3.781   3.393   9.859  0.2037  0.1442  0.2276
 5572TIP3    H140911   3.745   3.422   9.775 -1.8469 -0.5555  0.8192
 5572TIP3    H240912   3.867   3.436   9.863 -0.2186  1.3094 -1.5900
 5573TIP3   OH240913   4.130   2.276  10.322 -0.2269 -0.4000  0.0836
 5573TIP3    H140914   4.128   2.273  10.227  0.9984 -1.4367  0.0742
 5573TIP3    H240915   4.180   2.356  10.343 -0.4521 -0.2017 -0.1358
 5574TIP3   OH240916   6.708   6.277  10.216 -0.1227  0.2125  0.6275
 5574TIP3    H140917   6.637   6.327  10.175  0.4671  0.0817 -0.6179
 5574TIP3    H240918   6.749   6.230  10.143  2.8914  2.2844  0.8227
 5575TIP3   OH240919   1.994   1.121   9.230 -0.3117  0.1850  0.5287
 5575TIP3    H140920   1.960   1.039   9.268  0.6823  0.0278  1.1099
 5575TIP3    H240921   1.916   1.173   9.213 -0.8389  0.0006  2.2080
 5576TIP3   OH240922   5.751   2.512  11.332 -0.6835  0.1036  1.0632
 5576TIP3    H140923   5.778   2.598  11.301 -1.2967 -0.0396  0.0812
 5576TIP3    H240924   5.728   2.464  11.252  0.7713 -1.3743  1.4669
 5577TIP3   OH240925   6.449   5.828  10.695 -0.0057 -0.1482  0.4102
 5577TIP3    H140926   6.502   5.791  10.625  0.7775  1.3613  0.1655
 5577TIP3    H240927   6.413   5.752  10.741 -1.2313 -1.1874 -2.0897
 5578TIP3   OH240928   2.013   6.444  10.929  0.2870  0.0506  0.2967
 5578TIP3    H140929   2.024   6.394  11.010 -2.8474 -1.5608 -0.1383
 5578TIP3    H240930   2.064   6.396  10.864  3.1177  1.5511  1.2492
 5579TIP3   OH240931   0.999   5.108   9.297 -0.3286 -0.0741  0.2354
 5579TIP3    H140932   1.018   5.200   9.313 -1.4879  0.2481 -0.1193
 5579TIP3    H240933   1.068   5.061   9.342  1.9846  1.0080 -1.9343
 5580TIP3   OH240934   6.551   6.157   8.529 -0.0141 -0.0231 -0.5298
 5580TIP3    H140935   6.526   6.214   8.601  0.2488 -0.6101  0.0324
 5580TIP3    H240936   6.631   6.197   8.494  0.1932 -0.0654 -0.1139
 5581TIP3   OH240937   5.115   0.120  11.118 -0.1566 -0.3656 -0.4492
 5581TIP3    H140938   5.077   0.050  11.172 -0.2356  0.0859  0.0843
 5581TIP3    H240939   5.093   0.095  11.028 -2.6255  0.3876 -0.1214
 5582TIP3   OH240940   3.484   1.715   9.492 -0.2297  0.1511 -0.5335
 5582TIP3    H140941   3.467   1.726   9.586 -0.1448  0.1979 -0.5230
 5582TIP3    H240942   3.516   1.801   9.464 -1.0832  0.4017 -0.7874
 5583TIP3   OH240943   3.974   1.935  10.608 -0.1740 -0.6049 -0.3123
 5583TIP3    H140944   3.987   1.908  10.699  0.5508  0.2096 -0.1601
 5583TIP3    H240945   4.058   1.970  10.580 -0.4567 -0.6161 -1.2249
 5584TIP3   OH240946   1.982   0.093  10.824  0.1146 -0.0050 -0.3338
 5584TIP3    H140947   1.895   0.093  10.785  0.3376  1.8324 -0.9508
 5584TIP3    H240948   2.042   0.074  10.752  0.2822 -0.5540 -0.0576
 5585TIP3   OH240949   5.879   1.596  12.049 -0.5108  0.1605 -0.4226
 5585TIP3    H140950   5.925   1.675  12.020 -0.1752 -0.1605 -0.7888
 5585TIP3    H240951   5.876   1.541  11.970  2.4352 -1.7268  0.6021
 5586TIP3   OH240952   5.522   5.096   8.378  0.0826  0.0335 -0.0986
 5586TIP3    H140953   5.427   5.083   8.384 -0.1504  1.4117 -0.2593
 5586TIP3    H240954   5.547   5.057   8.294 -0.3187 -0.4346 -0.0040
 5587TIP3   OH240955   5.410   1.268  10.585 -0.3070 -0.1809 -0.4333
 5587TIP3    H140956   5.333   1.320  10.609  0.5327 -0.3689  3.2297
 5587TIP3    H240957   5.485   1.318  10.618  1.0360 -0.8906 -2.2556
 5588TIP3   OH240958   3.840   1.933   9.105 -0.4143  0.3705  0.1920
 5588TIP3    H140959   3.793   1.850   9.102  0.2410 -0.0014  0.0165
 5588TIP3    H240960   3.797   1.988   9.039  0.9777 -0.8278 -1.8328
 5589TIP3   OH240961   1.915   4.129  12.343  0.8801  0.1789  0.3155
 5589TIP3    H140962   1.997   4.171  12.369  0.6534  1.1144 -0.4581
 5589TIP3    H240963   1.866   4.197  12.298  0.1646 -0.6972 -0.2548
 5590TIP3   OH240964   1.596   0.070  12.130  0.0362  0.2575 -0.1403
 5590TIP3    H140965   1.683   0.031  12.131  0.2890  0.8285  0.5768
 5590TIP3    H240966   1.578   0.090  12.222 -0.6879  0.5092 -0.3330
 5591TIP3   OH240967   0.743   0.062  10.642 -0.3624 -0.4305 -0.6575
 5591TIP3    H140968   0.706   0.039  10.727  1.1460 -0.4761  0.0186
 5591TIP3    H240969   0.667   0.086  10.589 -1.2330  1.0422  1.1392
 5592TIP3   OH240970   3.594   0.037   9.840  0.1962 -0.3099  0.1854
 5592TIP3    H140971   3.500   0.057   9.842  0.1124 -0.7197  0.5208
 5592TIP3    H240972   3.633   0.108   9.789 -0.2784 -0.0563  0.1736
 5593TIP3   OH240973   4.936   4.226  11.057  0.0180 -0.2411 -0.0969
 5593TIP3    H140974   4.977   4.199  11.139  1.5690 -1.7942 -1.3016
 5593TIP3    H240975   5.001   4.206  10.990 -1.4489  0.3674 -1.7840
 5594TIP3   OH240976   2.478   4.385  10.874  0.3893  0.0649  0.3731
 5594TIP3    H140977   2.450   4.457  10.818 -0.1281 -0.8184 -0.5249
 5594TIP3    H240978   2.419   4.388  10.949  1.1555  1.3203  0.9473
 5595TIP3   OH240979   2.065   1.161   8.686 -0.0213  0.5610  0.0457
 5595TIP3    H140980   2.002   1.164   8.758  1.0082  1.3183  0.9386
 5595TIP3    H240981   2.114   1.243   8.693  0.9117  0.0976 -0.7725
 5596TIP3   OH240982   2.234   4.084  10.661 -0.5584 -0.1577  0.2547
 5596TIP3    H140983   2.257   4.007  10.610 -0.1092 -0.4053  0.8225
 5596TIP3    H240984   2.302   4.148  10.640 -2.1623  0.9534 -2.0110
 5597TIP3   OH240985   3.594   6.604  11.622  0.6148  0.5226  0.0437
 5597TIP3    H140986   3.542   6.650  11.556 -1.1200 -0.3607  0.7601
 5597TIP3    H240987   3.683   6.607  11.587 -0.0618  1.0915 -1.7611
 5598TIP3   OH240988   0.336   0.512  11.850  0.4029 -0.3148 -0.5354
 5598TIP3    H140989   0.243   0.509  11.875  0.0490  0.2328 -1.7600
 5598TIP3    H240990   0.382   0.489  11.931 -0.8071 -0.9755 -0.0032
 5599TIP3   OH240991   6.395   5.390   8.737  0.0211  0.6793  0.4277
 5599TIP3    H140992   6.320   5.345   8.698  0.3320  0.7510 -0.2651
 5599TIP3    H240993   6.380   5.483   8.716  0.5666  0.6375 -0.1799
 5600TIP3   OH240994   3.661   5.021   8.759  0.1958  0.0585 -0.2245
 5600TIP3    H140995   3.755   5.037   8.763  0.1163  0.5823 -0.4099
 5600TIP3    H240996   3.631   5.073   8.684 -0.6280  1.9092  1.3036
 5601TIP3   OH240997   3.954   0.435  10.450 -0.0222  0.2839 -0.0830
 5601TIP3    H140998   3.930   0.452  10.541  2.5058  1.3093  0.4722
 5601TIP3    H240999   3.883   0.474  10.399 -2.4763 -1.9141  1.3613
 5602TIP3   OH241000   5.580   0.531  10.098 -0.2312 -0.1202 -0.4069
 5602TIP3    H141001   5.541   0.616  10.116  0.4286  0.4414 -1.5206
 5602TIP3    H241002   5.524   0.469  10.145 -0.3482  0.9599  0.9579
 5603TIP3   OH241003   1.409   3.415  11.164  0.5463 -0.3465 -0.4449
 5603TIP3    H141004   1.437   3.404  11.073 -0.4892 -1.2212 -0.6660
 5603TIP3    H241005   1.315   3.432  11.159  0.2198 -1.7148  0.5223
 5604TIP3   OH241006   4.944   5.560   9.748  0.1657  0.0253 -0.0549
 5604TIP3    H141007   5.032   5.535   9.720  0.3398 -0.4516  0.8847
 5604TIP3    H241008   4.886   5.518   9.685  0.4096 -3.2193  1.6549
 5605TIP3   OH241009   4.837   1.012  10.017  0.3774 -0.1200  0.0698
 5605TIP3    H141010   4.754   0.985   9.979  0.5138  0.2057 -0.4559
 5605TIP3    H241011   4.832   1.107  10.024  0.4078 -0.1620  0.7393
 5606TIP3   OH241012   1.006   1.727  11.204  0.0036 -0.2746  0.8704
 5606TIP3    H141013   0.953   1.707  11.282 -1.0231 -0.6388  0.0948
 5606TIP3    H241014   0.946   1.716  11.131  1.0443 -0.2422 -0.0073
 5607TIP3   OH241015   3.689   5.569   8.587 -0.1153 -0.0027 -0.3597
 5607TIP3    H141016   3.727   5.581   8.500  0.9286 -0.6208 -0.0172
 5607TIP3    H241017   3.729   5.639   8.639  1.1906 -1.1169  0.1859
 5608TIP3   OH241018   4.825   6.036   8.719 -0.0242 -0.7273 -0.7032
 5608TIP3    H141019   4.919   6.035   8.702  0.1516 -0.0800  0.1207
 5608TIP3    H241020   4.811   5.962   8.778  0.0829 -0.4538 -0.3285
 5609TIP3   OH241021   5.911   3.089   9.884  0.5784 -0.3358 -0.7094
 5609TIP3    H141022   5.827   3.134   9.894  0.0899 -1.4981  0.9184
 5609TIP3    H241023   5.894   3.001   9.918  2.4619 -0.5672 -0.2893
 5610TIP3   OH241024   0.367   6.410   8.965 -0.2835 -0.2499 -0.1891
 5610TIP3    H141025   0.353   6.324   8.927  0.3984 -0.1345 -0.7085
 5610TIP3    H241026   0.458   6.432   8.945 -0.1665  0.1966  0.7343
 5611TIP3   OH241027   5.570   0.660  11.434  0.0180 -1.1377  0.4742
 5611TIP3    H141028   5.478   0.683  11.439  0.2871  0.1254  0.1894
 5611TIP3    H241029   5.615   0.745  11.428  1.2201 -1.7096  1.0210
 5612TIP3   OH241030   4.167   5.323   8.778  0.0661 -0.2349 -0.3977
 5612TIP3    H141031   4.072   5.324   8.765 -0.0296  1.8079  0.0963
 5612TIP3    H241032   4.179   5.310   8.872  0.0759  2.9692  0.1527
 5613TIP3   OH241033   6.374   5.390  11.042  0.4231  0.0631 -0.0174
 5613TIP3    H141034   6.328   5.413  11.123 -0.0024  0.7853 -0.4543
 5613TIP3    H241035   6.365   5.468  10.987  2.3080  0.2907 -0.0626
 5614TIP3   OH241036   1.433   3.260  10.492  0.4697  0.2204 -0.3337
 5614TIP3    H141037   1.351   3.268  10.443  0.3919  1.2383 -0.0700
 5614TIP3    H241038   1.481   3.190  10.449  0.0468  0.5365 -1.3459
 5615TIP3   OH241039   6.370   5.897  11.474  0.6106  0.2118 -0.5122
 5615TIP3    H141040   6.370   5.825  11.537  3.4952  0.6979  0.1778
 5615TIP3    H241041   6.398   5.858  11.392 -1.8009 -0.1434 -1.2589
 5616TIP3   OH241042   3.071   1.636  10.564  0.0508 -0.4398  0.4466
 5616TIP3    H141043   2.993   1.598  10.605  0.5309 -0.8997  0.9553
 5616TIP3    H241044   3.143   1.584  10.599  0.4701 -0.9865 -1.1655
 5617TIP3   OH241045   0.234   5.034   8.757  0.0984  0.1225 -0.5602
 5617TIP3    H141046   0.175   5.010   8.828 -1.0855  0.8563 -1.2539
 5617TIP3    H241047   0.320   5.003   8.785 -0.3664  0.2425  1.1005
 5618TIP3   OH241048   5.034   2.004  10.109  0.2621 -0.1741  0.1840
 5618TIP3    H141049   5.111   2.057  10.130  0.3995 -0.4095  0.2892
 5618TIP3    H241050   5.015   2.024  10.018 -0.0740  0.5284  0.3995
 5619TIP3   OH241051   4.447   5.693  10.036  0.8489 -0.3908 -0.2382
 5619TIP3    H141052   4.471   5.764  10.096 -2.0664  0.1562  0.4274
 5619TIP3    H241053   4.454   5.614  10.089 -0.0094 -0.1005  0.3320
 5620TIP3   OH241054   2.129   2.591  11.858 -0.6786 -0.3068 -0.3674
 5620TIP3    H141055   2.100   2.549  11.940  1.1343  0.5407  0.7842
 5620TIP3    H241056   2.203   2.537  11.829 -1.0594 -0.3673 -1.2427
 5621TIP3   OH241057   1.644   0.837  11.847 -0.0472 -1.0160 -0.0657
 5621TIP3    H141058   1.664   0.744  11.857 -2.3246 -1.5619 -0.0436
 5621TIP3    H241059   1.587   0.841  11.770  0.8120  0.5121 -0.6665
 5622TIP3   OH241060   1.155   2.827   9.537  0.7674 -0.1249  0.2927
 5622TIP3    H141061   1.248   2.803   9.536  1.1037  0.9473  1.7990
 5622TIP3    H241062   1.150   2.899   9.600 -0.9532  0.4461 -0.4405
 5623TIP3   OH241063   2.871   0.757  10.303  0.2788 -0.1784 -0.7501
 5623TIP3    H141064   2.831   0.717  10.380  1.1502  0.9598  0.3334
 5623TIP3    H241065   2.950   0.705  10.288 -0.5506 -1.2256 -1.7264
 5624TIP3   OH241066   2.174   2.255   9.647 -0.1169  0.2394 -0.2109
 5624TIP3    H141067   2.165   2.211   9.731 -0.5038  0.4695 -0.1300
 5624TIP3    H241068   2.216   2.338   9.667  2.8372 -1.0272 -0.6462
 5625TIP3   OH241069   0.288   5.290   8.695  0.2758 -0.0972 -0.1931
 5625TIP3    H141070   0.284   5.197   8.717  2.2651 -0.6405 -1.7754
 5625TIP3    H241071   0.367   5.298   8.642 -0.4709  2.3159 -1.0583
 5626TIP3   OH241072   6.109   1.783  10.316  0.5960  0.2110  0.1865
 5626TIP3    H141073   6.175   1.789  10.385  0.9214  0.7423 -0.1590
 5626TIP3    H241074   6.055   1.861  10.327 -0.4005 -0.5570  0.8798
 5627TIP3   OH241075   1.053   5.473  11.066 -0.4808  0.3591  0.1868
 5627TIP3    H141076   1.125   5.409  11.067  0.4307  1.2881 -1.7449
 5627TIP3    H241077   0.990   5.438  11.004 -0.3769  0.9011 -0.2320
 5628TIP3   OH241078   5.127   0.467  10.440  0.1869  0.4154  0.2717
 5628TIP3    H141079   5.184   0.467  10.517  1.1129 -1.4573 -0.3434
 5628TIP3    H241080   5.038   0.475  10.475  0.5970 -0.3615  1.5517
 5629TIP3   OH241081   1.159   6.504  10.829  0.2499  0.3617 -0.0373
 5629TIP3    H141082   1.092   6.443  10.799 -1.4796  1.7644  0.7983
 5629TIP3    H241083   1.239   6.451  10.835 -0.6085 -1.2297 -1.6246
 5630TIP3   OH241084   0.299   4.681   8.899  0.0517 -0.3134 -0.2942
 5630TIP3    H141085   0.311   4.749   8.965  2.1861 -1.6196  0.7689
 5630TIP3    H241086   0.205   4.683   8.879 -0.1006  2.3216  0.3083
 5631TIP3   OH241087   0.521   5.600   9.310 -0.2258 -0.0972  0.8873
 5631TIP3    H141088   0.567   5.534   9.258  1.7846  1.2880  0.7815
 5631TIP3    H241089   0.509   5.558   9.396  0.6695 -0.7440  0.7139
 5632TIP3   OH241090   6.095   5.652   9.417 -0.1999  0.0482 -0.6934
 5632TIP3    H141091   6.130   5.634   9.330  0.0590 -1.0970 -0.3744
 5632TIP3    H241092   6.108   5.746   9.430  1.1976 -0.0483 -1.2663
 5633TIP3   OH241093   4.803   5.914   9.312 -0.2713 -0.0990 -0.1070
 5633TIP3    H141094   4.859   5.838   9.298 -0.7653 -0.0512 -2.7428
 5633TIP3    H241095   4.726   5.878   9.356  0.6896 -0.5662  1.3127
 5634TIP3   OH241096   0.230   5.299  10.423  0.7349  0.5405 -0.1094
 5634TIP3    H141097   0.309   5.329  10.469  1.3812  0.9906 -1.4516
 5634TIP3    H241098   0.250   5.209  10.398 -1.0123 -1.0055  3.4916
 5635TIP3   OH241099   2.768   2.288   8.945 -0.2403 -0.2420  0.1099
 5635TIP3    H141100   2.755   2.383   8.937 -0.7990 -0.3622 -0.5305
 5635TIP3    H241101   2.689   2.258   8.991 -0.6842 -0.5594 -0.8450
 5636TIP3   OH241102   2.172   5.419   8.717  0.0581 -0.4249 -0.1607
 5636TIP3    H141103   2.141   5.466   8.794 -0.3875 -0.3273 -0.3967
 5636TIP3    H241104   2.093   5.381   8.678  0.5810 -2.9669  1.0456
 5637TIP3   OH241105   5.120   1.949  11.448  0.1401  0.3850 -0.0627
 5637TIP3    H141106   5.188   1.986  11.391  0.9531 -0.2405  0.4876
 5637TIP3    H241107   5.098   1.865  11.407  1.5358 -0.5995  1.1174
 5638TIP3   OH241108   3.070   2.465   8.826 -0.7946 -0.9009  0.0062
 5638TIP3    H141109   3.037   2.391   8.775  2.5066 -1.5506 -1.4771
 5638TIP3    H241110   3.114   2.426   8.901  0.4186 -0.4316 -0.4373
 5639TIP3   OH241111   4.979   2.724   9.647 -0.5079 -0.4969 -0.2627
 5639TIP3    H141112   4.912   2.778   9.690  0.3950  0.8980 -0.5525
 5639TIP3    H241113   5.002   2.659   9.712 -0.6083  0.3441  0.6405
 5640TIP3   OH241114   3.902   6.543  10.861  0.0166  0.6565  0.2360
 5640TIP3    H141115   3.892   6.453  10.832  0.1196  0.6348  0.2667
 5640TIP3    H241116   3.915   6.536  10.956  1.2239  0.6189  0.0826
 5641TIP3   OH241117   2.224   3.836   8.849  0.1436  0.1519  0.1022
 5641TIP3    H141118   2.266   3.829   8.763 -0.9377 -0.3880 -0.4071
 5641TIP3    H241119   2.296   3.837   8.911  0.9302 -4.1695 -0.4546
 5642TIP3   OH241120   5.232   0.174   9.897 -0.5078  0.3760 -0.0117
 5642TIP3    H141121   5.199   0.178   9.987 -1.1141  0.5579 -0.2409
 5642TIP3    H241122   5.314   0.125   9.904 -1.3501 -1.0307  0.4263
 5643TIP3   OH241123   1.278   5.367   9.505  0.1594 -0.1357 -0.4796
 5643TIP3    H141124   1.210   5.346   9.568  1.3515 -2.4159  0.1748
 5643TIP3    H241125   1.340   5.422   9.553  0.3370 -0.6743 -0.0813
 5644TIP3   OH241126   1.267   3.357   9.829 -0.6345  0.1514  0.8879
 5644TIP3    H141127   1.355   3.318   9.828 -0.3973  0.6792  0.8003
 5644TIP3    H241128   1.243   3.364   9.737 -0.8796 -0.2240  0.9184
 5645TIP3   OH241129   0.073   3.592  11.092  0.3304  0.2754  0.2086
 5645TIP3    H141130   0.155   3.630  11.061 -0.0676  1.2885  0.3238
 5645TIP3    H241131   0.044   3.535  11.021  0.3041  1.2110 -0.5540
 5646TIP3   OH241132   3.280   0.317   9.290 -0.1125 -0.0613  0.2961
 5646TIP3    H141133   3.361   0.299   9.338 -0.3506 -3.2652 -0.3151
 5646TIP3    H241134   3.210   0.288   9.349 -0.5763 -0.9289 -0.6512
 5647TIP3   OH241135   2.364   1.198   8.858  0.9673 -1.2711 -0.0390
 5647TIP3    H141136   2.337   1.208   8.949  0.8664 -0.2375 -0.1654
 5647TIP3    H241137   2.308   1.258   8.809  0.3490 -2.5137 -0.9301
 5648TIP3   OH241138   2.984   5.828  12.174 -0.1124  0.2752  0.6745
 5648TIP3    H141139   3.005   5.905  12.226 -0.6615 -1.0810  3.0636
 5648TIP3    H241140   2.889   5.831  12.164 -0.0080  0.5495 -0.3497
 5649TIP3   OH241141   2.739   5.745  11.278 -0.0201 -0.4005 -0.2625
 5649TIP3    H141142   2.724   5.653  11.299 -0.7983  0.0647  1.3686
 5649TIP3    H241143   2.654   5.787  11.293  0.6830  0.8171  0.4695
 5650TIP3   OH241144   4.325   2.453   9.181 -0.5206 -0.1796 -0.2755
 5650TIP3    H141145   4.335   2.514   9.254 -1.3188  0.0544 -0.3487
 5650TIP3    H241146   4.333   2.366   9.220 -1.5067 -0.0717  0.1934
 5651TIP3   OH241147   0.416   0.683  12.777  1.2310 -0.3516  0.4431
 5651TIP3    H141148   0.503   0.643  12.778  0.9310 -1.2375  4.2605
 5651TIP3    H241149   0.356   0.611  12.796 -0.0023  0.8007  1.1127
 5652TIP3   OH241150   4.549   5.991  11.704  0.0702 -0.9121  0.4356
 5652TIP3    H141151   4.493   5.995  11.782  0.1926  0.8168  0.4755
 5652TIP3    H241152   4.515   6.059  11.646  1.8556 -0.0774  0.2908
 5653TIP3   OH241153   6.304   6.466  11.754  0.2522  0.4546  0.0994
 5653TIP3    H141154   6.380   6.439  11.806  0.4227  0.9171  0.0955
 5653TIP3    H241155   6.294   6.560  11.772 -0.4879  0.3454  0.3182
 5654TIP3   OH241156   3.524   6.317  10.911  0.2342 -0.1307  0.1358
 5654TIP3    H141157   3.474   6.243  10.876  0.9293 -0.0568 -1.0843
 5654TIP3    H241158   3.474   6.346  10.987 -0.6468 -1.1441 -0.0293
 5655TIP3   OH241159   2.389   6.586  11.580 -0.1558 -0.1782 -0.5457
 5655TIP3    H141160   2.432   6.556  11.659  1.7731  1.2276 -0.9933
 5655TIP3    H241161   2.397   6.513  11.519  0.6498 -0.3281 -0.2647
 5656TIP3   OH241162   2.032   4.796  11.440  0.4636  0.0916 -0.4130
 5656TIP3    H141163   2.092   4.830  11.507 -0.6208 -1.0139  1.1523
 5656TIP3    H241164   2.069   4.829  11.358  1.1439  2.5388  0.7732
 5657TIP3   OH241165   4.805   4.418  10.889 -0.3789 -0.1066  0.3726
 5657TIP3    H141166   4.807   4.358  10.964  0.0336 -2.0506 -1.1016
 5657TIP3    H241167   4.890   4.406  10.847 -1.0509 -0.0020 -1.0710
 5658TIP3   OH241168   2.812   0.826  11.773  0.1944 -0.0119 -0.4655
 5658TIP3    H141169   2.865   0.894  11.814  1.4321 -1.6682  0.8009
 5658TIP3    H241170   2.856   0.810  11.689 -0.2679  0.8849 -0.9046
 5659TIP3   OH241171   4.273   4.927   8.813 -0.4383 -0.4063 -0.0294
 5659TIP3    H141172   4.197   4.870   8.806 -1.4474  0.7597  1.0069
 5659TIP3    H241173   4.251   4.990   8.882  1.6073 -0.2352  0.5585
 5660TIP3   OH241174   6.048   0.778  11.054  0.1216 -0.4505  0.4321
 5660TIP3    H141175   6.032   0.862  11.097  3.0760  0.3234  0.2479
 5660TIP3    H241176   6.136   0.786  11.018 -0.4311 -2.7834 -1.7315
 5661TIP3   OH241177   5.989   0.795  10.721  0.1359  0.3225 -0.1966
 5661TIP3    H141178   6.019   0.821  10.634  1.6660 -2.0986 -0.4817
 5661TIP3    H241179   6.056   0.735  10.753 -1.1337 -0.0145  2.0541
 5662TIP3   OH241180   1.367   6.488  11.580  0.0262 -0.0023 -0.3348
 5662TIP3    H141181   1.281   6.480  11.621  0.2651 -1.9781 -0.1067
 5662TIP3    H241182   1.358   6.444  11.496  0.5049  0.8682 -0.8560
 5663TIP3   OH241183   2.844   5.253  11.248  0.5327  0.2454 -0.3278
 5663TIP3    H141184   2.797   5.184  11.293 -0.2126  0.3480 -0.9224
 5663TIP3    H241185   2.936   5.233  11.261  0.3204 -0.4419  0.1251
 5664TIP3   OH241186   5.669   4.420   9.189 -0.1629  0.0888  0.4401
 5664TIP3    H141187   5.574   4.420   9.179 -0.1376 -2.0621 -0.2780
 5664TIP3    H241188   5.683   4.414   9.283 -0.7074  0.8212  0.5798
 5665TIP3   OH241189   0.031   0.656  11.191  0.0079  0.4508 -0.0262
 5665TIP3    H141190   0.051   0.562  11.188 -3.3767 -0.3706 -1.5834
 5665TIP3    H241191  -0.040   0.663  11.254  0.2183  1.9912  0.0675
 5666TIP3   OH241192   4.815   5.049   9.490 -0.2682 -0.2902 -0.0348
 5666TIP3    H141193   4.858   5.073   9.407  0.8120 -0.0980  0.5564
 5666TIP3    H241194   4.771   5.129   9.518  1.5525  0.4566  0.8637
 5667TIP3   OH241195   1.785   3.463  10.790  0.1981 -0.0808  0.2488
 5667TIP3    H141196   1.748   3.420  10.714 -0.2371 -0.9853  0.9496
 5667TIP3    H241197   1.719   3.453  10.859  1.5885 -1.5801  1.4717
 5668TIP3   OH241198   0.038   5.970  10.173 -0.0107  0.0940  0.1833
 5668TIP3    H141199   0.100   5.993  10.242 -0.8381  0.8751  0.6852
 5668TIP3    H241200   0.059   6.031  10.102  0.4409 -0.3087 -0.0375
 5669TIP3   OH241201   4.908   2.721  11.899  0.4367  0.3978  0.1326
 5669TIP3    H141202   4.853   2.695  11.972  2.4564  0.4124  1.7420
 5669TIP3    H241203   4.997   2.710  11.931  1.4061  0.2721 -2.3955
 5670TIP3   OH241204   3.891   6.671  10.010  0.0406 -0.7485 -0.0257
 5670TIP3    H141205   3.829   6.709  10.071 -0.3437 -1.7547  0.2306
 5670TIP3    H241206   3.936   6.603  10.060  0.1953 -1.1302 -0.6631
 5671TIP3   OH241207   0.679   5.260  11.140  0.2307  0.3334  0.0825
 5671TIP3    H141208   0.705   5.332  11.083  3.1324  0.7549  1.7223
 5671TIP3    H241209   0.664   5.186  11.081  1.3703  1.1907 -1.3376
 5672TIP3   OH241210   5.928   1.816   8.986 -0.0629  0.1623 -0.5757
 5672TIP3    H141211   5.987   1.763   9.040 -0.4537 -0.2367 -0.5294
 5672TIP3    H241212   5.858   1.842   9.046 -1.3507 -1.6173 -1.2342
 5673TIP3   OH241213   6.504   0.177  10.692  0.1389  0.0090 -0.1977
 5673TIP3    H141214   6.411   0.173  10.667 -0.0456 -0.9226  0.5971
 5673TIP3    H241215   6.537   0.088  10.678  1.0599  0.4562 -0.9768
 5674TIP3   OH241216   1.740   3.721   9.837 -0.2566 -0.0563 -0.4475
 5674TIP3    H141217   1.827   3.757   9.817 -0.5493  0.7188 -0.3652
 5674TIP3    H241218   1.758   3.633   9.870  0.4438 -0.1959 -1.1565
 5675TIP3   OH241219   1.361   2.914  10.087 -0.4827  0.3705  0.3508
 5675TIP3    H141220   1.335   2.884  10.174  0.6636  0.4083  0.7239
 5675TIP3    H241221   1.315   2.998  10.075 -1.1087  0.0770  0.6613
 5676TIP3   OH241222   0.769   4.830   9.026  0.2165  0.1981  0.3647
 5676TIP3    H141223   0.819   4.911   9.013 -0.0692  0.1024 -1.4955
 5676TIP3    H241224   0.767   4.788   8.940 -0.4034 -1.3594  1.1022
 5677TIP3   OH241225   6.131   6.667   8.765 -0.4100 -0.0178  1.0138
 5677TIP3    H141226   6.090   6.685   8.850 -0.7487 -0.1123  0.8716
 5677TIP3    H241227   6.167   6.752   8.738  0.5360 -0.1817  1.6860
 5678TIP3   OH241228   3.108   4.285  11.369  0.2156  0.0212 -0.2482
 5678TIP3    H141229   3.060   4.366  11.351 -0.0143 -0.4695 -2.1528
 5678TIP3    H241230   3.131   4.252  11.282  0.8833 -1.6156  0.5076
 5679TIP3   OH241231   6.106   6.624   9.894 -0.5536  0.0031  0.4634
 5679TIP3    H141232   6.037   6.603   9.832  0.4630 -1.0534 -0.3627
 5679TIP3    H241233   6.129   6.540   9.934  0.6799  0.2164  0.2430
 5680TIP3   OH241234   1.743   0.134  12.717 -0.1997 -0.2264  0.4968
 5680TIP3    H141235   1.810   0.164  12.779 -0.7516  1.7205  0.2284
 5680TIP3    H241236   1.790   0.118  12.636  0.2250 -0.8428  0.8541
 5681TIP3   OH241237   5.165   1.074  11.569  0.0836  0.3464  0.2587
 5681TIP3    H141238   5.195   1.149  11.621  0.3021 -0.2365  0.9908
 5681TIP3    H241239   5.113   1.113  11.499 -1.1265  1.0961  1.5213
 5682TIP3   OH241240   0.787   4.412  11.375 -0.2173 -0.2808 -0.1309
 5682TIP3    H141241   0.790   4.360  11.455 -1.0595 -0.0128  0.0888
 5682TIP3    H241242   0.856   4.477  11.386  0.7951 -1.2819 -0.3736
 5683TIP3   OH241243   5.976   4.805  11.228 -0.2945  0.1194  0.3964
 5683TIP3    H141244   5.894   4.847  11.202 -0.1985  0.7183  1.0116
 5683TIP3    H241245   5.958   4.768  11.315 -0.0787 -0.2394  0.2898
 5684TIP3   OH241246   2.739   6.713  10.953 -0.0309 -0.2630  0.1321
 5684TIP3    H141247   2.652   6.701  10.915  0.2141  3.8745 -2.2427
 5684TIP3    H241248   2.725   6.704  11.047 -2.6969 -1.2013 -0.2703
 5685TIP3   OH241249   4.248   0.321  11.992 -0.0809 -0.6464 -0.2466
 5685TIP3    H141250   4.295   0.312  12.075 -0.9060 -0.2585  0.2801
 5685TIP3    H241251   4.164   0.361  12.016 -0.3245 -0.5024 -1.2735
 5686TIP3   OH241252   1.014   3.836   8.760  0.1046  0.1240 -0.9043
 5686TIP3    H141253   1.026   3.912   8.817 -1.7532 -0.0090 -0.2951
 5686TIP3    H241254   1.104   3.805   8.743  0.8720  2.1699 -0.8312
 5687TIP3   OH241255   5.943   0.340  10.052  0.1240 -0.1734  0.0369
 5687TIP3    H141256   5.895   0.331  10.135  0.9000 -2.8995  0.2987
 5687TIP3    H241257   6.013   0.276  10.059  2.1682  1.7667 -1.4757
 5688TIP3   OH241258   2.600   3.411  10.338  0.0536 -0.2038  0.0094
 5688TIP3    H141259   2.679   3.358  10.325  1.3196  1.6113 -0.1135
 5688TIP3    H241260   2.537   3.375  10.277  0.5548 -2.1238  0.5672
 5689TIP3   OH241261   2.489   6.132   8.706  0.3902 -0.2454  0.1220
 5689TIP3    H141262   2.396   6.148   8.723  0.0665 -0.0731 -1.6851
 5689TIP3    H241263   2.504   6.043   8.736 -1.5920 -2.1763 -3.8577
 5690TIP3   OH241264   0.299   6.108  12.394 -0.6007  0.3963  0.0160
 5690TIP3    H141265   0.256   6.070  12.471  1.2231  0.0949  0.9404
 5690TIP3    H241266   0.317   6.199  12.420  0.6857  0.0872  0.2542
 5691TIP3   OH241267   0.417   1.488   9.758  0.1382 -0.0115 -0.0243
 5691TIP3    H141268   0.337   1.508   9.708  0.4514 -1.0114 -0.9588
 5691TIP3    H241269   0.397   1.518   9.846 -1.4866 -0.6741 -0.1100
 5692TIP3   OH241270   3.928   3.820  10.393  0.2766  0.1709 -0.0830
 5692TIP3    H141271   3.855   3.760  10.412 -0.4775  1.1907  0.3323
 5692TIP3    H241272   3.911   3.896  10.448  1.7184  0.3971  0.0810
 5693TIP3   OH241273   6.659   2.805  10.002 -0.3599  0.2044  0.3486
 5693TIP3    H141274   6.670   2.876   9.939 -0.0108 -1.4167 -1.5425
 5693TIP3    H241275   6.685   2.726   9.953  0.6059 -1.0714  2.7725
 5694TIP3   OH241276   2.735   5.797  11.803 -0.1316 -0.4990 -0.8138
 5694TIP3    H141277   2.698   5.722  11.756 -1.6933  0.8604 -1.8713
 5694TIP3    H241278   2.694   5.793  11.890 -1.0900 -0.2372 -1.2483
 5695TIP3   OH241279   3.660   1.769   8.657 -0.3993  0.1869  0.5367
 5695TIP3    H141280   3.700   1.777   8.744 -1.3337  0.6567  0.9406
 5695TIP3    H241281   3.691   1.685   8.624  0.5689  0.3462  1.0130
 5696TIP3   OH241282   2.335   0.685  10.677  0.0243 -0.0146 -0.4119
 5696TIP3    H141283   2.332   0.595  10.709  0.7206 -0.3546 -1.2538
 5696TIP3    H241284   2.316   0.739  10.754  1.8716 -0.7824  0.6531
 5697TIP3   OH241285   5.676   0.886  11.664 -0.2290 -0.6088 -0.6785
 5697TIP3    H141286   5.760   0.842  11.651 -0.9055 -1.8250 -1.1086
 5697TIP3    H241287   5.641   0.897  11.575 -0.7915 -0.6692 -0.4707
 5698TIP3   OH241288   1.566   5.188  11.011 -0.0643  0.4782  0.1903
 5698TIP3    H141289   1.652   5.229  11.005  0.1426  0.0400  0.1321
 5698TIP3    H241290   1.548   5.157  10.922  0.5334 -1.0572  0.5702
 5699TIP3   OH241291   5.838   3.888   9.136 -0.5065 -0.6507  0.1012
 5699TIP3    H141292   5.845   3.833   9.214  0.9562 -1.1644 -0.3721
 5699TIP3    H241293   5.865   3.831   9.064 -1.5579 -0.0949 -0.7534
 5700TIP3   OH241294   5.666   4.597  10.610  0.4430 -0.3440 -0.5285
 5700TIP3    H141295   5.733   4.578  10.675 -0.8031  0.9597  1.2226
 5700TIP3    H241296   5.589   4.547  10.639 -0.7468  1.8015  0.2372
 5701TIP3   OH241297   2.086   0.157   9.878 -0.5637  0.2468 -0.1079
 5701TIP3    H141298   2.145   0.231   9.866  1.2440 -0.6263  2.4401
 5701TIP3    H241299   2.051   0.169   9.966 -0.7101 -1.5794  0.1248
 5702TIP3   OH241300   2.862   0.396   9.414 -0.1588 -0.1847  0.2130
 5702TIP3    H141301   2.835   0.413   9.505 -1.8694 -0.6242 -0.1846
 5702TIP3    H241302   2.919   0.319   9.420 -1.0292 -0.7954  0.8080
 5703TIP3   OH241303   1.143   0.941  11.112 -0.0453  0.0920  0.7651
 5703TIP3    H141304   1.155   0.942  11.017 -1.3719 -3.1374  0.4291
 5703TIP3    H241305   1.093   1.020  11.131  1.8152  1.7700 -0.8930
 5704TIP3   OH241306   3.853   2.972  10.230  0.6197  0.0762  0.6801
 5704TIP3    H141307   3.760   2.968  10.206  0.6840  1.5552  0.0738
 5704TIP3    H241308   3.900   2.956  10.148  0.8754  1.1157  0.6132
 5705TIP3   OH241309   1.104   4.208  11.473  0.3526 -0.2059  0.4352
 5705TIP3    H141310   1.189   4.196  11.515  0.9435  0.0832 -0.6562
 5705TIP3    H241311   1.113   4.288  11.422 -0.5766 -0.1826  0.2898
 5706TIP3   OH241312   5.340   5.491   8.848 -0.0648 -0.4345  0.2235
 5706TIP3    H141313   5.396   5.430   8.800 -0.0990 -0.5631  0.3442
 5706TIP3    H241314   5.398   5.532   8.911  0.0351 -0.0746 -0.1016
 5707TIP3   OH241315   1.005   0.117  10.616  0.1080 -0.5807 -0.1505
 5707TIP3    H141316   0.919   0.079  10.634  0.5127 -1.6700 -0.4286
 5707TIP3    H241317   1.006   0.128  10.521  0.5527 -1.2848 -0.2330
 5708TIP3   OH241318   2.376   4.589  10.730 -0.6105 -0.2288 -0.2706
 5708TIP3    H141319   2.453   4.623  10.775 -0.9451 -0.6355  0.6285
 5708TIP3    H241320   2.327   4.667  10.704 -0.6017  0.0046  0.4082
 5709TIP3   OH241321   4.543   4.831  10.433 -0.2865 -0.3271 -0.2113
 5709TIP3    H141322   4.484   4.854  10.360  0.5821 -0.2440 -0.9024
 5709TIP3    H241323   4.542   4.736  10.434 -2.7241 -0.3813  1.7008
 5710TIP3   OH241324   2.319   3.824   9.318 -0.0689  0.2489 -0.1832
 5710TIP3    H141325   2.383   3.754   9.303 -0.1606  0.0580  0.3050
 5710TIP3    H241326   2.246   3.781   9.363  0.0333  0.7329  0.4478
 5711TIP3   OH241327   0.699   2.399  11.954  0.3621 -0.9582 -0.5375
 5711TIP3    H141328   0.716   2.315  11.996  2.2600 -0.5266 -0.3523
 5711TIP3    H241329   0.739   2.463  12.013 -1.7114  0.1734 -0.2979
 5712TIP3   OH241330   6.130   0.632  10.142  0.6040  0.0619  0.2518
 5712TIP3    H141331   6.120   0.725  10.119  2.5626  0.6667  1.5962
 5712TIP3    H241332   6.055   0.613  10.198  0.2362  0.8644  0.0481
 5713TIP3   OH241333   5.594   1.567  12.073 -0.3986 -0.1110 -0.2356
 5713TIP3    H141334   5.578   1.658  12.048  0.4359  0.4897  1.3461
 5713TIP3    H241335   5.689   1.560  12.080 -0.4868 -0.9593  0.1998
 5714TIP3   OH241336   5.773   0.222   9.821  0.6949  0.2635  0.5682
 5714TIP3    H141337   5.793   0.277   9.746  1.0857  0.2453  0.6568
 5714TIP3    H241338   5.819   0.263   9.894  2.5870 -1.2151  0.2887
 5715TIP3   OH241339   0.270   3.081   8.660 -0.2583  0.4286  0.2134
 5715TIP3    H141340   0.302   3.158   8.707 -0.5771  0.6131  0.1353
 5715TIP3    H241341   0.325   3.009   8.691  1.0236  0.9337 -0.8040
 5716TIP3   OH241342   0.395   0.593  12.323 -0.0352 -0.0843 -0.2480
 5716TIP3    H141343   0.328   0.531  12.353 -1.0704  1.4022  0.6146
 5716TIP3    H241344   0.475   0.562  12.363 -0.7712 -0.1735  1.2254
 5717TIP3   OH241345   3.152   1.553  11.567  0.1281  0.3917 -0.8463
 5717TIP3    H141346   3.081   1.504  11.608 -0.2104  1.9228  0.4937
 5717TIP3    H241347   3.108   1.615  11.509  0.4731  0.1714 -1.3533
 5718TIP3   OH241348   4.729   2.148   9.203  0.6433 -0.1764  0.5971
 5718TIP3    H141349   4.719   2.097   9.284 -1.9350 -0.1779  0.3650
 5718TIP3    H241350   4.678   2.100   9.138  0.3752  1.2727 -0.3142
 5719TIP3   OH241351   0.340   5.048  10.464 -0.4641  0.3885  0.8106
 5719TIP3    H141352   0.436   5.055  10.466 -0.4352 -0.1781  1.8170
 5719TIP3    H241353   0.320   5.017  10.376  0.3012  0.2671  0.6756
 5720TIP3   OH241354   2.835   0.597   9.956 -0.0215 -0.3083  0.3053
 5720TIP3    H141355   2.881   0.571  10.036  2.2827  0.0431 -0.8213
 5720TIP3    H241356   2.744   0.570   9.971  0.5478 -1.2196  2.5855
 5721TIP3   OH241357   1.455   1.431  11.585 -0.4747  0.4416  0.5654
 5721TIP3    H141358   1.480   1.519  11.612  1.6689 -0.0012  0.2217
 5721TIP3    H241359   1.529   1.376  11.610 -0.4714 -0.7756 -1.7725
 5722TIP3   OH241360   6.397   0.057  10.292 -0.0514  0.0115 -0.6119
 5722TIP3    H141361   6.435   0.138  10.259 -0.0485 -0.7205 -2.5493
 5722TIP3    H241362   6.383   0.003  10.214 -0.3940 -1.7157  0.5701
 5723TIP3   OH241363   5.418   5.686   9.479  0.1851 -0.3240 -0.0505
 5723TIP3    H141364   5.454   5.746   9.545 -1.2696 -0.4174  0.8887
 5723TIP3    H241365   5.446   5.723   9.395  0.7109  0.7348  0.5603
 5724TIP3   OH241366   5.473   3.831  11.286 -0.7260 -0.5307 -0.3629
 5724TIP3    H141367   5.512   3.771  11.349 -0.0632 -0.9961 -1.1988
 5724TIP3    H241368   5.539   3.899  11.274 -0.1536 -1.3077 -1.7674
 5725TIP3   OH241369   2.498   4.535   9.348 -0.3905 -0.0747  0.4244
 5725TIP3    H141370   2.477   4.570   9.262 -0.5752 -3.4237 -1.0389
 5725TIP3    H241371   2.592   4.550   9.357 -0.3977  0.4510 -0.2888
 5726TIP3   OH241372   6.196   2.612  10.655 -0.3138 -0.1474  0.5463
 5726TIP3    H141373   6.196   2.525  10.695  0.0116 -0.0628  0.7318
 5726TIP3    H241374   6.130   2.661  10.704 -0.3267 -0.2161  0.5969
 5727TIP3   OH241375   4.360   5.203   9.087 -0.5491 -0.0383 -0.1650
 5727TIP3    H141376   4.395   5.124   9.129  0.3390 -0.0792 -0.9570
 5727TIP3    H241377   4.412   5.275   9.122 -0.1610 -0.0132 -0.7772
 5728TIP3   OH241378   4.427   4.418   8.813  0.0369 -0.1352  0.2237
 5728TIP3    H141379   4.342   4.445   8.778  1.0161 -0.4324 -2.6212
 5728TIP3    H241380   4.478   4.499   8.816 -0.1150 -0.0604  1.3698
 5729TIP3   OH241381   1.881   0.114  10.116 -0.0894 -0.4451  0.0813
 5729TIP3    H141382   1.819   0.175  10.075 -0.0589 -0.4035  0.0959
 5729TIP3    H241383   1.931   0.169  10.176 -0.3737 -0.5736  0.4398
 5730TIP3   OH241384   0.555   5.362  12.042 -0.2301  0.0839  0.1929
 5730TIP3    H141385   0.584   5.274  12.064 -1.4838 -0.1165  1.1194
 5730TIP3    H241386   0.566   5.368  11.947 -1.2441 -1.4802 -0.0471
 5731TIP3   OH241387   6.189   1.796  11.215  0.8626  0.0680  0.1637
 5731TIP3    H141388   6.134   1.748  11.276 -0.5079  0.0524 -1.0325
 5731TIP3    H241389   6.267   1.741  11.204  1.9371  0.8281  3.0917
 5732TIP3   OH241390   3.270   6.097  10.440 -0.4621 -0.0637  0.0372
 5732TIP3    H141391   3.286   6.102  10.346  0.0742 -0.6098  0.0955
 5732TIP3    H241392   3.215   6.020  10.452 -2.6789  1.4118 -0.0815
 5733TIP3   OH241393   2.737   6.034  10.711 -0.6042  0.2053  0.3907
 5733TIP3    H141394   2.769   6.053  10.622 -0.6120  0.5872  0.4681
 5733TIP3    H241395   2.651   5.995  10.698  0.0337 -1.1722  0.1576
 5734TIP3   OH241396   3.653   5.156  11.521 -0.0497  0.5217  0.5227
 5734TIP3    H141397   3.611   5.228  11.473  0.4109  0.8680  0.6353
 5734TIP3    H241398   3.746   5.166  11.502 -0.0989 -0.9232 -0.6534
 5735TIP3   OH241399   4.411   6.126  10.266  0.4001  0.0947  1.0272
 5735TIP3    H141400   4.387   6.218  10.275  1.4904  0.6028 -0.7885
 5735TIP3    H241401   4.388   6.103  10.177 -1.1392 -1.8413  1.8503
 5736TIP3   OH241402   4.629   4.896   9.234  0.7780  0.1740 -0.3763
 5736TIP3    H141403   4.720   4.877   9.254  0.2044 -1.9270  0.5550
 5736TIP3    H241404   4.630   4.982   9.194  3.2430 -0.1269 -1.0852
 5737TIP3   OH241405   5.062   4.090  11.306 -0.1599  0.0625  0.2130
 5737TIP3    H141406   5.057   4.043  11.388  0.7738  1.3708  1.0705
 5737TIP3    H241407   5.135   4.049  11.259 -0.5419 -0.5321  0.1407
 5738TIP3   OH241408   3.123   1.425   9.015  0.4517 -0.0565 -0.2440
 5738TIP3    H141409   3.036   1.449   8.984  0.1035 -1.2781 -0.2768
 5738TIP3    H241410   3.107   1.366   9.089  1.2622  0.6345  0.5149
 5739TIP3   OH241411   3.024   1.388  11.140 -0.0810 -0.1399 -0.0546
 5739TIP3    H141412   2.959   1.451  11.170  0.7677  1.4332 -1.3419
 5739TIP3    H241413   3.081   1.375  11.216 -0.7386  0.0122  0.4698
 5740TIP3   OH241414   4.719   2.624  12.308  0.0216 -0.4783 -0.1831
 5740TIP3    H141415   4.654   2.591  12.371 -0.7944 -1.5062 -1.5115
 5740TIP3    H241416   4.803   2.593  12.343 -0.2552  0.1335  1.1038
 5741TIP3   OH241417   5.649   3.516  10.552 -0.2483  0.3609  0.0717
 5741TIP3    H141418   5.696   3.463  10.488 -0.1133 -0.3407  0.7429
 5741TIP3    H241419   5.563   3.475  10.559 -0.8267  1.3629 -0.8022
 5742TIP3   OH241420   3.965   4.079  10.870 -0.3731 -0.0622  0.0011
 5742TIP3    H141421   3.877   4.048  10.849 -1.6937  1.9002  2.1623
 5742TIP3    H241422   3.984   4.145  10.803 -0.9663  0.1705  0.0535
 5743TIP3   OH241423   0.112   0.502  20.322 -0.0435  0.2617  0.0906
 5743TIP3    H141424   0.114   0.598  20.328  1.5789  0.3354 -1.0313
 5743TIP3    H241425   0.032   0.483  20.273 -0.1357  1.0743 -0.0822
 5744TIP3   OH241426   1.139   0.221  11.234  0.1679 -0.8023 -0.2726
 5744TIP3    H141427   1.075   0.292  11.231  1.1243  0.1894  1.3532
 5744TIP3    H241428   1.209   0.249  11.173  1.3017  0.5011  1.5276
 5745TIP3   OH241429   2.421   2.281  10.461 -0.3426  0.8371 -0.5524
 5745TIP3    H141430   2.361   2.356  10.458  1.0540  1.9813 -1.8014
 5745TIP3    H241431   2.376   2.212  10.412 -0.7449  1.5937 -1.2666
 5746TIP3   OH241432   2.175   0.782   9.223  0.1166  0.3162 -0.0348
 5746TIP3    H141433   2.099   0.835   9.247  0.5618  0.6754  0.6038
 5746TIP3    H241434   2.139   0.695   9.203 -0.3282  0.1443  1.4419
 5747TIP3   OH241435   5.738   5.270   9.753  0.5855 -0.2404 -0.5602
 5747TIP3    H141436   5.804   5.337   9.768 -0.2567  0.6602 -0.7352
 5747TIP3    H241437   5.717   5.277   9.660  0.5636 -0.8244 -0.6048
 5748TIP3   OH241438   5.356   4.236   9.551  0.0101  0.1407  0.5330
 5748TIP3    H141439   5.411   4.287   9.492 -0.0954  0.1497  0.4409
 5748TIP3    H241440   5.278   4.290   9.564 -0.0693  0.0356  0.4948
 5749TIP3   OH241441   2.329   0.509   9.596  0.0706 -0.1463 -0.8486
 5749TIP3    H141442   2.319   0.448   9.523  0.1617 -0.7476 -0.3666
 5749TIP3    H241443   2.423   0.525   9.601  0.0648 -0.1090 -0.8618
 5750TIP3   OH241444   2.352   5.932   8.490 -0.2924 -0.2003  0.1651
 5750TIP3    H141445   2.396   5.928   8.575 -0.5527  0.8014  0.3583
 5750TIP3    H241446   2.288   5.861   8.493 -1.3047  0.7163  1.4053
 5751TIP3   OH241447   2.873   1.012  12.592 -0.4303  0.0610 -0.6262
 5751TIP3    H141448   2.937   0.961  12.542  0.9280  0.6054  0.4957
 5751TIP3    H241449   2.836   1.073  12.528  2.5026  1.9264 -0.7214
 5752TIP3   OH241450   2.210   0.921   8.366  0.2419  0.3318  0.2338
 5752TIP3    H141451   2.154   0.910   8.443  0.6059 -1.2137  0.3161
 5752TIP3    H241452   2.172   0.995   8.319 -0.6357  0.6162  1.3368
 5753TIP3   OH241453   2.280   3.535   9.451 -0.1603 -0.1209  0.5696
 5753TIP3    H141454   2.356   3.549   9.395 -2.1636  1.8558 -1.8819
 5753TIP3    H241455   2.239   3.456   9.417 -1.0808  0.7735 -0.4273
 5754TIP3   OH241456   1.148   4.109   8.428 -0.4384 -0.2459 -0.0449
 5754TIP3    H141457   1.163   4.015   8.419 -1.7386 -0.6510  1.5093
 5754TIP3    H241458   1.063   4.116   8.471 -0.7411  1.6784 -0.8368
 5755TIP3   OH241459   5.623   0.011  10.495  0.3324  0.0797 -0.0174
 5755TIP3    H141460   5.699  -0.034  10.531  0.7143  0.3743 -0.4520
 5755TIP3    H241461   5.553  -0.055  10.497  0.6771 -0.2876  0.0796
 5756TIP3   OH241462   5.084   0.185   9.365 -0.2034 -0.0290  0.1436
 5756TIP3    H141463   5.034   0.268   9.365 -0.5491 -0.2038 -1.4141
 5756TIP3    H241464   5.103   0.169   9.457 -2.9283  0.1295  0.8192
 5757TIP3   OH241465   2.458   3.407  11.803  0.1428 -0.1786  0.1824
 5757TIP3    H141466   2.421   3.493  11.784 -1.1144 -0.8326 -0.4922
 5757TIP3    H241467   2.382   3.353  11.827  0.6520 -1.5358 -1.0823
 5758TIP3   OH241468   1.188   5.090  10.126  0.5213  0.0023 -0.4441
 5758TIP3    H141469   1.146   5.045  10.053  1.0034 -0.4649 -0.4367
 5758TIP3    H241470   1.173   5.033  10.202  3.6475 -1.7413 -0.9508
 5759TIP3   OH241471   5.981   5.086  10.979  0.1632 -0.1177  0.6430
 5759TIP3    H141472   6.048   5.027  10.944 -0.4924 -0.9602  0.7826
 5759TIP3    H241473   5.906   5.029  10.997 -1.0730  1.0065 -0.7186
 5760TIP3   OH241474   3.034   2.721   9.796  0.4329 -0.3857  0.8871
 5760TIP3    H141475   2.958   2.672   9.764  0.3134  0.2401  0.1912
 5760TIP3    H241476   3.036   2.800   9.742  1.3195 -0.1858  1.2013
 5761TIP3   OH241477   0.675   2.656  11.430 -0.0216 -0.3493 -0.0523
 5761TIP3    H141478   0.722   2.626  11.508 -0.8395  1.3047  1.1333
 5761TIP3    H241479   0.604   2.594  11.419  0.9055 -1.3950 -0.3386
 5762TIP3   OH241480   4.078   0.639  10.637  0.2730 -0.1626  0.5355
 5762TIP3    H141481   4.016   0.703  10.602  0.1493 -1.0131 -0.9027
 5762TIP3    H241482   4.023   0.575  10.682  0.2487 -0.1601  0.5102
 5763TIP3   OH241483   6.182   0.019  10.838  0.4183  0.6360 -0.0231
 5763TIP3    H141484   6.091   0.041  10.857  0.0179  0.1473 -1.2932
 5763TIP3    H241485   6.229   0.038  10.920 -1.0294 -0.3236  1.0818
 5764TIP3   OH241486   4.663   3.487   9.976  0.2194 -0.6971 -0.0485
 5764TIP3    H141487   4.757   3.505   9.966  0.2394  1.6756  2.9265
 5764TIP3    H241488   4.620   3.564   9.940 -0.4493 -0.6671  0.7775
 5765TIP3   OH241489   3.402   3.958  11.111 -0.3938  0.4902 -0.5392
 5765TIP3    H141490   3.371   4.002  11.031 -0.5321  1.4600  0.0265
 5765TIP3    H241491   3.445   3.879  11.080 -3.4671 -1.0011 -1.3892
 5766TIP3   OH241492   5.622   3.469  10.865 -0.0610  0.3562  0.3897
 5766TIP3    H141493   5.643   3.516  10.784 -0.5831 -0.2190 -0.0873
 5766TIP3    H241494   5.527   3.471  10.870 -0.0353  0.3532  0.9780
 5767TIP3   OH241495   6.720   1.571  11.784 -0.3601 -0.2686  0.0686
 5767TIP3    H141496   6.790   1.532  11.836 -2.2369 -0.6786  2.4731
 5767TIP3    H241497   6.677   1.497  11.742 -0.4534 -0.2028  0.0475
 5768TIP3   OH241498   2.036   1.044   9.672  0.1054  0.2773  0.1242
 5768TIP3    H141499   2.104   0.980   9.692 -1.0186 -1.1804 -0.5307
 5768TIP3    H241500   2.083   1.118   9.633  1.2218 -1.2393 -1.5511
 5769TIP3   OH241501   1.503   5.372   8.672  0.0331 -0.4225 -0.2014
 5769TIP3    H141502   1.497   5.279   8.693 -1.2005 -0.4959 -0.7981
 5769TIP3    H241503   1.486   5.417   8.754  0.4948 -0.7149  0.0582
 5770TIP3   OH241504   5.802   3.729  10.224 -0.3568 -0.2105  0.5595
 5770TIP3    H141505   5.757   3.785  10.287  0.4370  0.2033  0.7796
 5770TIP3    H241506   5.799   3.777  10.141 -0.9127 -0.4964  0.4148
 5771TIP3   OH241507   5.348   4.066  10.800 -0.4592  0.0071  0.0233
 5771TIP3    H141508   5.317   3.994  10.745  0.5855 -0.7254  0.3745
 5771TIP3    H241509   5.443   4.061  10.795 -0.3709  1.3465  0.0895
 5772TIP3   OH241510   1.936   1.286  11.934  0.6184 -0.3014 -0.2596
 5772TIP3    H141511   2.015   1.234  11.920  0.6068 -0.6992  1.0180
 5772TIP3    H241512   1.865   1.230  11.903  0.4596 -1.7402  2.4639
 5773TIP3   OH241513   5.652   5.442  10.530 -0.7320  0.5543  0.1021
 5773TIP3    H141514   5.619   5.399  10.451  1.4905 -1.3087  0.0758
 5773TIP3    H241515   5.637   5.379  10.600 -1.2160  1.5187  0.8861
 5774TIP3   OH241516   2.042   3.253   9.097 -0.1141  1.0771  0.1165
 5774TIP3    H141517   2.050   3.169   9.053  1.6112  1.8873 -1.2351
 5774TIP3    H241518   1.980   3.303   9.044 -0.2146  1.0633  0.2215
 5775TIP3   OH241519   2.019   2.630  10.256  0.1766 -0.4219 -0.5191
 5775TIP3    H141520   1.997   2.572  10.183 -0.8871 -1.1751  0.3843
 5775TIP3    H241521   2.073   2.698  10.216 -1.5727  0.0063 -2.3259
 5776TIP3   OH241522   4.226   1.056   9.917  0.1568  0.2629 -0.1680
 5776TIP3    H141523   4.293   1.021   9.976  0.3410  0.6848 -0.1216
 5776TIP3    H241524   4.242   1.011   9.834  1.1096  1.0362 -0.4254
 5777TIP3   OH241525   1.188   4.589   9.507 -0.4040  1.0479 -0.0597
 5777TIP3    H141526   1.253   4.643   9.553 -0.1784  0.8853 -0.1843
 5777TIP3    H241527   1.238   4.548   9.436  0.1588 -1.6761  1.7570
 5778TIP3   OH241528   2.207   0.014   9.580  0.6810  0.1570  0.5530
 5778TIP3    H141529   2.212   0.107   9.600  1.2335  0.5352 -1.2407
 5778TIP3    H241530   2.296  -0.011   9.556  0.8785 -1.2223  2.4299
 5779TIP3   OH241531   3.475   5.024  10.318  0.2519  0.0565 -0.1979
 5779TIP3    H141532   3.540   5.077  10.271 -0.4236  1.1357  0.0562
 5779TIP3    H241533   3.494   4.934  10.290  0.5463  0.5488 -1.7063
 5780TIP3   OH241534   5.182   5.002   9.273  0.2110  0.0302  0.3544
 5780TIP3    H141535   5.230   4.920   9.285 -0.7624 -0.5228  0.4950
 5780TIP3    H241536   5.244   5.069   9.301  0.9402 -0.6628  0.4530
 5781TIP3   OH241537   1.506   0.468  11.788  0.0599  0.9883  0.5007
 5781TIP3    H141538   1.532   0.408  11.858  0.1768  1.2390  0.6730
 5781TIP3    H241539   1.412   0.479  11.799  0.2570  1.9355  1.3350
 5782TIP3   OH241540   2.199   4.553   9.253  0.6777  0.6086  0.4056
 5782TIP3    H141541   2.147   4.622   9.213  1.8198  1.4899  0.3996
 5782TIP3    H241542   2.289   4.572   9.227  1.0673 -0.6162  0.7939
 5783TIP3   OH241543   2.574   4.628  11.223  0.2703  0.4032 -1.0202
 5783TIP3    H141544   2.535   4.695  11.167  1.5002  1.0390 -1.1445
 5783TIP3    H241545   2.635   4.581  11.165 -0.8508 -1.0975 -1.0408
 5784TIP3   OH241546   2.043   5.591  10.254 -0.6404 -0.0018 -0.1395
 5784TIP3    H141547   1.999   5.509  10.232 -0.4468  0.1360 -1.0595
 5784TIP3    H241548   1.977   5.643  10.299 -0.7605 -0.6620  0.4642
 5785TIP3   OH241549   2.889   2.347  10.862 -0.4152 -0.0407  0.9803
 5785TIP3    H141550   2.862   2.434  10.892  0.0354  0.6358 -0.4798
 5785TIP3    H241551   2.906   2.358  10.768  1.6090 -1.2149  1.1499
 5786TIP3   OH241552   2.589   3.099  10.128  0.3743  0.5121 -0.2096
 5786TIP3    H141553   2.641   3.155  10.186  0.0178 -0.1588  0.7733
 5786TIP3    H241554   2.625   3.116  10.040  0.5725  1.9298  0.1256
 5787TIP3   OH241555   5.242   3.864   9.882 -0.1656  0.0025 -0.6470
 5787TIP3    H141556   5.242   3.863   9.978 -1.3744 -0.6744 -0.6447
 5787TIP3    H241557   5.236   3.957   9.859  2.3371  0.3855 -0.1197
 5788TIP3   OH241558   6.376   5.988   9.701 -0.5647  0.5680  0.6499
 5788TIP3    H141559   6.346   5.929   9.771 -2.4573 -0.5701 -0.9940
 5788TIP3    H241560   6.373   5.934   9.622 -0.3892  2.3292 -0.6129
 5789TIP3   OH241561   1.858   4.416  11.970  0.2074  0.1171  0.2719
 5789TIP3    H141562   1.922   4.347  11.952  0.7173  1.0581 -1.7912
 5789TIP3    H241563   1.829   4.445  11.884 -3.0279 -0.2451  1.1228
 5790TIP3   OH241564   4.537   0.665   9.193  0.8654 -0.1751  0.0443
 5790TIP3    H141565   4.598   0.592   9.184  1.5850  0.6116 -2.0599
 5790TIP3    H241566   4.483   0.642   9.269  1.9787 -2.1911  0.2955
 5791TIP3   OH241567   5.870   6.719  10.624 -0.1003  0.3319  0.2866
 5791TIP3    H141568   5.854   6.742  10.716  3.2849  2.0454  0.6201
 5791TIP3    H241569   5.911   6.797  10.588  0.2707 -0.9486 -2.2432
 5792TIP3   OH241570   4.412   3.657  10.513 -0.1382  0.4477 -0.2485
 5792TIP3    H141571   4.331   3.709  10.508 -1.4188 -1.3174  0.7721
 5792TIP3    H241572   4.438   3.645  10.422  0.1406  2.7122 -0.5260
 5793TIP3   OH241573   6.642   5.921   9.840  0.3258 -0.1049  0.3246
 5793TIP3    H141574   6.666   5.829   9.826 -1.2204 -0.8747  2.2466
 5793TIP3    H241575   6.548   5.919   9.855  0.3115  1.7620  0.7444
 5794TIP3   OH241576   2.920   0.227  10.557  0.4328 -0.5838 -0.2025
 5794TIP3    H141577   2.890   0.149  10.511  3.4230 -1.4419 -0.9556
 5794TIP3    H241578   2.944   0.195  10.644  1.3252 -0.4604 -0.3958
 5795TIP3   OH241579   2.633   5.074  11.407  0.0509 -0.0366 -0.2540
 5795TIP3    H141580   2.543   5.057  11.432  0.0142  0.8304  0.2436
 5795TIP3    H241581   2.668   5.128  11.478  0.4154  1.1389 -1.2946
 5796TIP3   OH241582   6.284   3.209   8.680  0.4419 -0.2636  0.5510
 5796TIP3    H141583   6.243   3.170   8.757 -0.9721  0.1701  0.0467
 5796TIP3    H241584   6.231   3.178   8.606  0.8690  0.5253 -0.0995
 5797TIP3   OH241585   4.390   1.723   8.790 -0.4855  0.3558  0.3796
 5797TIP3    H141586   4.306   1.768   8.799  0.0012  1.4172 -0.1022
 5797TIP3    H241587   4.442   1.756   8.864 -0.4085 -0.0858  0.5229
 5798TIP3   OH241588   4.878   6.084  11.979 -0.1981  1.0547 -0.0148
 5798TIP3    H141589   4.925   6.046  11.905 -0.6422  0.3728  0.0481
 5798TIP3    H241590   4.943   6.087  12.049  0.1566  1.4766 -0.3490
 5799TIP3   OH241591   0.792   1.860  10.076 -0.6733 -0.2171  0.1632
 5799TIP3    H141592   0.860   1.915  10.037  1.1555 -1.8733  0.7982
 5799TIP3    H241593   0.754   1.914  10.145 -0.0673  0.8014 -0.2719
 5800TIP3   OH241594   5.622   0.533  12.088 -0.3388  0.2379 -0.0511
 5800TIP3    H141595   5.697   0.523  12.146 -1.0027 -1.2236  0.6013
 5800TIP3    H241596   5.656   0.580  12.012  1.1603 -0.1380  0.3626
 5801TIP3   OH241597   1.707   1.814   9.667 -0.3637  0.3984  0.0443
 5801TIP3    H141598   1.774   1.757   9.705  1.6438  2.6162  0.0970
 5801TIP3    H241599   1.634   1.755   9.647  0.8622 -1.8512  1.6762
 5802TIP3   OH241600   2.833   5.068  10.898  0.7208  0.1344  0.2391
 5802TIP3    H141601   2.873   5.107  10.820  0.4803  1.2130  0.6387
 5802TIP3    H241602   2.902   5.073  10.965  1.3000 -1.7618 -0.1542
 5803TIP3   OH241603   1.522   0.068   8.615  0.0388 -0.4510  0.6632
 5803TIP3    H141604   1.427   0.064   8.600 -0.3214  0.5178  2.4757
 5803TIP3    H241605   1.547  -0.022   8.635 -0.3131 -0.8800 -0.7262
 5804TIP3   OH241606   4.752   3.634  10.270 -0.1603  0.3351  0.2204
 5804TIP3    H141607   4.765   3.542  10.292  0.7172  0.4086  0.0361
 5804TIP3    H241608   4.823   3.655  10.210 -0.9424  0.8722 -0.5327
 5805TIP3   OH241609   0.584   4.148  11.482 -0.3689  0.3084 -0.0251
 5805TIP3    H141610   0.522   4.218  11.501  0.4846  0.8366  0.9057
 5805TIP3    H241611   0.670   4.187  11.498  0.1056 -1.1241  1.1673
 5806TIP3   OH241612   1.242   4.481  10.054  0.3493 -0.6626  0.1934
 5806TIP3    H141613   1.256   4.456   9.962  0.7946 -0.7477  0.2839
 5806TIP3    H241614   1.180   4.553  10.049  0.4253 -0.6174 -0.1825
 5807TIP3   OH241615   5.220   2.427  10.194 -0.8049  0.0662  0.3081
 5807TIP3    H141616   5.261   2.471  10.269 -0.3251 -0.9328  0.6520
 5807TIP3    H241617   5.156   2.490  10.161  0.0581  1.1252  0.6066
 5808TIP3   OH241618   2.377   2.605  10.371  0.4852  0.1610 -0.1187
 5808TIP3    H141619   2.429   2.685  10.372 -1.0096  1.2931  3.4928
 5808TIP3    H241620   2.295   2.629  10.414 -2.1805 -2.1193 -3.4110
 5809TIP3   OH241621   1.824   0.278   9.713 -0.2033  0.2026  0.2928
 5809TIP3    H141622   1.821   0.371   9.734 -1.3403  0.2347  0.0079
 5809TIP3    H241623   1.804   0.234   9.796 -2.5563  0.2908 -0.1662
 5810TIP3   OH241624   0.294   2.466  11.637 -0.3747  0.3619  0.2783
 5810TIP3    H141625   0.383   2.458  11.672  0.2391  0.0070 -1.2806
 5810TIP3    H241626   0.298   2.543  11.581 -0.5473 -0.6089 -1.1306
 5811TIP3   OH241627   1.084   2.579  11.472 -0.0864 -0.2210  0.4195
 5811TIP3    H141628   1.149   2.617  11.412  0.0654 -0.5614  0.3692
 5811TIP3    H241629   1.030   2.654  11.498  1.2539  0.3568  1.6624
 5812TIP3   OH241630   6.192   3.108  10.767 -0.0054 -0.3579  0.6074
 5812TIP3    H141631   6.137   3.052  10.711 -0.9704 -0.0776  1.2475
 5812TIP3    H241632   6.175   3.076  10.856 -2.8921  2.7283  1.3644
 5813TIP3   OH241633   4.499   0.048  11.890  0.4379 -0.1294 -0.4878
 5813TIP3    H141634   4.510   0.047  11.986 -0.9662 -2.0909 -0.2919
 5813TIP3    H241635   4.420   0.099  11.876  0.0775 -0.6830 -0.5047
 5814TIP3   OH241636   5.307   2.348  11.411  0.2768 -0.0327  0.0027
 5814TIP3    H141637   5.244   2.372  11.344 -0.2951  1.0618  0.9033
 5814TIP3    H241638   5.372   2.419  11.410  1.7568 -1.3209 -1.1734
 5815TIP3   OH241639   4.752   0.728   9.679 -0.5307  0.1119 -0.7408
 5815TIP3    H141640   4.660   0.735   9.702 -0.2748 -0.0955  0.4037
 5815TIP3    H241641   4.764   0.792   9.609 -1.5779  0.0007 -1.0459
 5816TIP3   OH241642   3.805   2.271  11.072 -0.4791 -0.0020 -0.3219
 5816TIP3    H141643   3.888   2.316  11.056  0.3907  0.0482  3.3372
 5816TIP3    H241644   3.816   2.185  11.030  2.3017 -0.6988  1.5113
 5817TIP3   OH241645   3.076   0.995   9.937  0.4519  0.0983 -0.4170
 5817TIP3    H141646   3.159   0.991   9.889  0.0791  0.1135 -1.0629
 5817TIP3    H241647   3.095   0.952  10.021  1.7506  2.1180  0.3962
 5818TIP3   OH241648   0.432   0.023   9.853  0.1263  0.2029  0.2612
 5818TIP3    H141649   0.347   0.053   9.822  0.2662  0.7300  0.3715
 5818TIP3    H241650   0.475   0.102   9.886 -0.5510 -0.4748  3.0790
 5819TIP3   OH241651   1.749   4.546  11.749  0.5426 -0.2426  0.0664
 5819TIP3    H141652   1.680   4.502  11.699  0.9905 -0.3310 -0.4820
 5819TIP3    H241653   1.707   4.626  11.782  0.8394  1.0182 -2.3898
 5820TIP3   OH241654   1.234   4.699   8.904  0.4538  0.5516 -0.0152
 5820TIP3    H141655   1.295   4.626   8.892  0.1043 -0.1581  2.0082
 5820TIP3    H241656   1.183   4.675   8.982 -0.5017  2.4129 -0.0010
 5821TIP3   OH241657   4.619   4.676  11.826  0.8450  0.2541 -0.0245
 5821TIP3    H141658   4.714   4.678  11.823  0.9615 -2.0237 -1.9166
 5821TIP3    H241659   4.598   4.583  11.837 -1.0890  0.4101 -1.6765
 5822TIP3   OH241660   0.903   3.395   9.758 -0.2405  0.1324 -0.3237
 5822TIP3    H141661   0.940   3.383   9.670  3.5711 -1.7082  1.2836
 5822TIP3    H241662   0.929   3.483   9.783  1.9614 -0.6171  0.2152
 5823TIP3   OH241663   4.141   3.335  10.664  0.1355 -0.1373 -0.7219
 5823TIP3    H141664   4.173   3.399  10.600  0.4709  0.3060 -0.1179
 5823TIP3    H241665   4.217   3.280  10.681  0.2962  0.2909 -0.0455
 5824TIP3   OH241666   0.289   5.499  10.237 -0.0685 -0.3395 -0.2242
 5824TIP3    H141667   0.318   5.459  10.155  1.1271 -0.5200  0.2570
 5824TIP3    H241668   0.270   5.426  10.295 -1.2403 -0.2155 -0.4307
 5825TIP3   OH241669   1.766   3.433   9.201  0.1806  0.0150 -0.0497
 5825TIP3    H141670   1.770   3.346   9.239  1.4222  0.5634  1.1616
 5825TIP3    H241671   1.691   3.430   9.141  0.2396 -1.8733 -0.0734
 5826TIP3   OH241672   5.188   4.936  10.152 -0.1592 -0.1208 -0.6837
 5826TIP3    H141673   5.250   4.993  10.197 -0.4548 -0.2692 -0.0774
 5826TIP3    H241674   5.102   4.962  10.186 -0.3086 -0.8111 -0.5192
 5827TIP3   OH241675   5.331   3.063   9.421  0.0039  0.4369 -0.0467
 5827TIP3    H141676   5.268   3.044   9.491 -1.2614  1.5496 -0.8253
 5827TIP3    H241677   5.417   3.054   9.462 -0.6811  0.1011  1.3838
 5828TIP3   OH241678   1.958   2.602   9.810 -0.2744  0.1121 -0.0858
 5828TIP3    H141679   2.046   2.565   9.824 -0.9782 -2.6595 -2.1083
 5828TIP3    H241680   1.960   2.637   9.721 -0.3696  3.0680  0.9645
 5829TIP3   OH241681   5.575   5.343   9.998  0.1951  0.4836  0.1117
 5829TIP3    H141682   5.643   5.292   9.955  0.6600  0.7292  0.5494
 5829TIP3    H241683   5.595   5.434   9.978  0.0162  0.5598  0.2688
 5830TIP3   OH241684   6.692   4.548  10.492 -0.0295 -0.3897 -0.5505
 5830TIP3    H141685   6.607   4.588  10.514  0.2274 -0.8673  1.4989
 5830TIP3    H241686   6.705   4.569  10.399 -1.9168  0.5492 -0.6479
 5831TIP3   OH241687   6.599   1.000   8.990  0.2037  0.2823 -0.7178
 5831TIP3    H141688   6.530   1.061   8.964 -0.0095  0.0526 -0.7020
 5831TIP3    H241689   6.681   1.046   8.972  0.0493  0.4036 -1.1100
 5832TIP3   OH241690   5.399   4.810   9.380  0.4571  0.1267  0.6767
 5832TIP3    H141691   5.480   4.843   9.420 -0.6179  2.0576  1.3883
 5832TIP3    H241692   5.351   4.770   9.453 -0.1482  0.9172  0.7356
 5833TIP3   OH241693   3.975   5.767  11.326  0.4341  0.0279 -0.0032
 5833TIP3    H141694   3.902   5.706  11.318  1.1721 -0.6756 -2.0332
 5833TIP3    H241695   4.007   5.755  11.416 -0.2732 -1.5740  0.0601
 5834TIP3   OH241696   4.976   4.432  12.277  0.1902 -0.3269  0.3213
 5834TIP3    H141697   5.037   4.453  12.207  1.3522  2.2622  1.9662
 5834TIP3    H241698   4.978   4.337  12.284  1.3328 -0.5161 -1.9776
 5835TIP3   OH241699   3.954   5.366  10.424  0.2223 -0.5133 -0.0449
 5835TIP3    H141700   3.950   5.400  10.334  1.0453  2.8298  1.0389
 5835TIP3    H241701   3.863   5.346  10.446 -0.3918  1.2787 -0.7678
 5836TIP3   OH241702   0.616   4.355  10.420  0.1330 -0.3210 -0.1459
 5836TIP3    H141703   0.556   4.291  10.382  0.1214  0.1406 -0.9059
 5836TIP3    H241704   0.605   4.344  10.515  0.7710 -2.0628 -0.2237
 5837TIP3   OH241705   2.185   1.837  11.486  0.0741 -0.1038 -0.1725
 5837TIP3    H141706   2.172   1.805  11.575  0.8202  1.0374  0.3748
 5837TIP3    H241707   2.279   1.826  11.471  0.0652  0.3475 -0.5624
 5838TIP3   OH241708   0.235   1.630   9.405  0.1250 -0.3157  0.6920
 5838TIP3    H141709   0.284   1.692   9.350 -0.0405  0.7904  1.7281
 5838TIP3    H241710   0.200   1.685   9.476 -3.1185 -0.9006 -0.2701
 5839TIP3   OH241711   1.494   0.981  10.894  0.5166 -0.6570  0.5160
 5839TIP3    H141712   1.484   1.052  10.959 -1.4185 -0.3552 -0.0446
 5839TIP3    H241713   1.465   0.903  10.941 -1.4476 -0.3460 -0.0902
 5840TIP3   OH241714   1.257   6.714  10.988  0.1012 -0.3336  0.0131
 5840TIP3    H141715   1.221   6.663  10.915  1.7837 -0.5771 -0.6798
 5840TIP3    H241716   1.202   6.690  11.062 -0.9106 -0.9903 -0.9108
 5841TIP3   OH241717   2.462   0.533   9.050  0.4475  0.6745 -0.7586
 5841TIP3    H141718   2.493   0.503   8.965  0.1867  0.2715 -0.7167
 5841TIP3    H241719   2.530   0.592   9.081 -0.3922  2.4915 -2.1747
 5842TIP3   OH241720   4.959   2.181   9.904 -0.4551  0.0156 -0.2198
 5842TIP3    H141721   4.918   2.267   9.898 -0.5187  0.1800  1.8713
 5842TIP3    H241722   5.052   2.197   9.890 -0.5293  0.3386 -0.3512
 5843TIP3   OH241723   4.183   6.258   8.910  0.2659 -0.5061 -0.4198
 5843TIP3    H141724   4.207   6.199   8.839  0.7784 -1.7481  0.7459
 5843TIP3    H241725   4.229   6.225   8.987 -2.2785 -0.8372  1.1138
 5844TIP3   OH241726   5.854   0.276   9.554 -0.3053  0.0658 -0.0100
 5844TIP3    H141727   5.795   0.271   9.479 -0.4977  0.6210  0.1009
 5844TIP3    H241728   5.888   0.366   9.552  1.5378 -0.5857 -0.8299
 5845TIP3   OH241729   1.919   0.779   9.948  0.1200  0.4141  0.0659
 5845TIP3    H141730   1.923   0.752   9.856  0.3408  2.6309 -0.6377
 5845TIP3    H241731   1.912   0.697   9.997  0.1090 -0.8304 -1.9111
 5846TIP3   OH241732   3.072   1.705  10.952  0.0682 -0.4583 -0.1346
 5846TIP3    H141733   3.130   1.744  11.019  0.0086  0.0195 -0.3543
 5846TIP3    H241734   3.122   1.632  10.917  1.5387  1.2870 -1.9222
 5847TIP3   OH241735   1.086   5.729  11.166 -0.0020  0.0069 -0.1173
 5847TIP3    H141736   1.016   5.764  11.220 -2.0047  1.3093 -3.2707
 5847TIP3    H241737   1.044   5.663  11.111  1.8808 -1.1602 -0.2802
 5848TIP3   OH241738   3.533   2.959  10.378  0.1294 -0.6844 -0.5418
 5848TIP3    H141739   3.478   2.880  10.389 -0.8917  0.3108  2.6919
 5848TIP3    H241740   3.610   2.942  10.432 -1.1250  1.2137  2.1383
 5849TIP3   OH241741   1.211   3.645  10.941 -0.6904 -0.0528  0.6007
 5849TIP3    H141742   1.116   3.645  10.927 -0.6490  0.4169  0.2761
 5849TIP3    H241743   1.248   3.612  10.859 -0.5479  0.4659  0.4500
 5850TIP3   OH241744   3.236   4.201  11.134  0.1069 -1.0370  0.2884
 5850TIP3    H141745   3.305   4.239  11.079  0.4915 -0.4119  1.1819
 5850TIP3    H241746   3.273   4.117  11.163 -0.0978 -1.3691 -0.3950
 5851TIP3   OH241747   3.781   4.636  12.421 -0.4402 -0.4441 -0.1123
 5851TIP3    H141748   3.771   4.606  12.511 -0.8110  1.2517  0.4428
 5851TIP3    H241749   3.695   4.671  12.397  0.5498  2.4913  0.2178
 5852TIP3   OH241750   3.710   0.579  12.465  0.8309  0.9919 -0.5329
 5852TIP3    H141751   3.760   0.554  12.542 -0.3460  1.0846  0.2942
 5852TIP3    H241752   3.763   0.549  12.391  1.2395 -0.5561  0.3362
 5853TIP3   OH241753   1.594   1.214  12.556  0.2290  0.0711 -0.1316
 5853TIP3    H141754   1.568   1.272  12.484  0.0087 -1.5403 -1.4117
 5853TIP3    H241755   1.570   1.262  12.635 -1.5673  0.9937 -1.1640
 5854TIP3   OH241756   2.561   0.384   9.849  0.2558 -0.1759  0.4297
 5854TIP3    H141757   2.617   0.309   9.828  1.3037  0.2828  1.4501
 5854TIP3    H241758   2.558   0.435   9.769 -0.2293 -1.1491 -0.1893
 5855TIP3   OH241759   6.164   1.120  10.303  0.1417  0.4492 -0.0621
 5855TIP3    H141760   6.173   1.028  10.277  0.1658  0.5964 -0.6055
 5855TIP3    H241761   6.178   1.169  10.221  0.5690  0.9536  0.3021
 5856TIP3   OH241762   2.806   0.323  10.128 -0.0559  0.0408 -0.5507
 5856TIP3    H141763   2.740   0.392  10.133 -0.4616 -0.2582 -1.5526
 5856TIP3    H241764   2.768   0.250  10.175  0.4942  0.5736  0.7628
 5857TIP3   OH241765   2.258   0.379   9.155  0.3197 -0.2754  0.4381
 5857TIP3    H141766   2.191   0.447   9.155  0.5776  0.0895 -2.0788
 5857TIP3    H241767   2.334   0.421   9.113  0.8444 -1.7767 -0.1881
 5858TIP3   OH241768   1.081   5.606   9.747  0.3171 -0.0702 -0.0400
 5858TIP3    H141769   1.119   5.655   9.674 -2.0618  1.6677 -0.2343
 5858TIP3    H241770   1.093   5.663   9.823 -0.0162 -0.4437  0.3011
 5859TIP3   OH241771   2.456   5.164   9.501 -0.2025  0.3633  0.1411
 5859TIP3    H141772   2.500   5.079   9.501  0.2483  0.5963  0.0150
 5859TIP3    H241773   2.371   5.147   9.460  0.3406  0.2020 -0.9745
 5860TIP3   OH241774   0.477   1.194  11.063  0.2485  0.2277 -0.2546
 5860TIP3    H141775   0.460   1.267  11.004  0.2528  1.0393  0.7256
 5860TIP3    H241776   0.395   1.181  11.110  1.1165  1.6681  1.7816
 5861TIP3   OH241777   3.584   1.574  10.749  0.9959  0.2152 -0.3147
 5861TIP3    H141778   3.611   1.590  10.658 -0.0036  0.2285 -0.6302
 5861TIP3    H241779   3.514   1.638  10.765 -1.8174 -2.4124 -1.0049
 5862TIP3   OH241780   3.582   4.572   9.643  0.2038 -0.0800  0.1192
 5862TIP3    H141781   3.523   4.641   9.672  0.1448 -0.2604  0.4344
 5862TIP3    H241782   3.578   4.575   9.547  1.5570  1.5272  0.0635
 5863TIP3   OH241783   0.693   4.451  11.021 -0.5378 -0.4878  0.5123
 5863TIP3    H141784   0.606   4.414  11.036 -0.1437 -1.6865 -0.0275
 5863TIP3    H241785   0.746   4.376  10.995  0.2751  0.4920 -0.7207
 5864TIP3   OH241786   6.687   0.603   9.734 -0.1974 -0.1005 -0.0993
 5864TIP3    H141787   6.701   0.511   9.754 -1.1048 -0.1721  0.2546
 5864TIP3    H241788   6.753   0.650   9.786  0.4753 -0.5551 -0.5251
 5865TIP3   OH241789   0.387   2.917  11.087 -0.6129  0.3406  0.4935
 5865TIP3    H141790   0.468   2.950  11.125 -0.8810  0.3036  1.1209
 5865TIP3    H241791   0.370   2.835  11.134  0.1856 -0.8679 -1.2299
 5866TIP3   OH241792   5.003   6.244  11.554 -0.1431 -0.6637  0.5308
 5866TIP3    H141793   4.927   6.219  11.607 -1.2595 -0.4362 -0.9207
 5866TIP3    H241794   4.967   6.264  11.468  1.7931 -2.3267 -0.7413
 5867TIP3   OH241795   4.954   1.886   9.397 -0.8149  0.0006  0.3283
 5867TIP3    H141796   5.033   1.931   9.364  0.1296 -0.9429  1.2206
 5867TIP3    H241797   4.934   1.822   9.329 -0.8313  0.2646  0.0816
 5868TIP3   OH241798   6.748   3.960   8.840 -0.3838 -0.7508  0.1795
 5868TIP3    H141799   6.842   3.943   8.843  0.2704  2.2945  3.4373
 5868TIP3    H241800   6.708   3.879   8.871  1.2101 -1.7343 -0.2078
 5869TIP3   OH241801   2.051   0.108   8.847  0.0044 -0.4087 -0.1274
 5869TIP3    H141802   2.079   0.046   8.779  1.5836 -1.5733  1.4875
 5869TIP3    H241803   1.978   0.064   8.891 -0.1344 -0.2579 -0.2051
 5870TIP3   OH241804   6.291   0.025  11.082 -0.2950 -0.3179 -0.2589
 5870TIP3    H141805   6.205  -0.011  11.103 -0.4725 -0.6199 -1.4402
 5870TIP3    H241806   6.354  -0.037  11.119 -0.5942 -0.6162 -0.2485
 5871TIP3   OH241807   2.423   3.660  10.308  0.1503 -0.0550 -0.2829
 5871TIP3    H141808   2.475   3.592  10.350 -0.3754 -0.2154  0.1179
 5871TIP3    H241809   2.473   3.684  10.230  0.5723 -0.5600 -0.1715
 5872TIP3   OH241810   0.557   0.240   9.976  0.4427 -0.0063 -0.1918
 5872TIP3    H141811   0.514   0.318  10.011 -0.5575 -0.4311 -0.4644
 5872TIP3    H241812   0.561   0.179  10.050  0.3008 -0.0828 -0.2476
 5873TIP3   OH241813   2.580   6.570   9.672 -0.4227  0.3825 -0.5017
 5873TIP3    H141814   2.624   6.522   9.603 -2.7351 -0.7972 -1.2690
 5873TIP3    H241815   2.586   6.513   9.749 -1.6432 -0.4104 -0.9540
 5874TIP3   OH241816   4.080   6.364   9.179  0.0378  0.4077  0.6836
 5874TIP3    H141817   4.087   6.336   9.087 -0.3601 -0.4280  0.8917
 5874TIP3    H241818   4.163   6.405   9.198  0.1816  0.4625 -0.0188
 5875TIP3   OH241819   0.741   5.960  10.604 -0.7940  0.1153 -0.3258
 5875TIP3    H141820   0.834   5.951  10.624 -0.5338 -1.5488 -1.9402
 5875TIP3    H241821   0.702   5.992  10.685  1.1721  0.9001  0.3850
 5876TIP3   OH241822   4.034   0.155   9.995 -0.3105 -0.0657 -0.0196
 5876TIP3    H141823   3.979   0.078   9.984  0.1981 -0.8974  2.6432
 5876TIP3    H241824   3.977   0.229   9.975 -1.8149 -0.9893  0.7275
 5877TIP3   OH241825   2.838   1.187   9.159 -0.7515 -0.4738 -0.0371
 5877TIP3    H141826   2.800   1.274   9.158 -0.2351 -0.2415 -0.1253
 5877TIP3    H241827   2.927   1.200   9.193 -0.4089 -0.8475 -0.7498
 5878TIP3   OH241828   1.700   0.299   9.981 -0.3099 -0.3066  0.0151
 5878TIP3    H141829   1.606   0.296   9.961  0.0339 -0.9334 -1.6892
 5878TIP3    H241830   1.713   0.385  10.022 -1.3592  0.5748 -1.3769
 5879TIP3   OH241831   6.439   2.602  11.138  0.0285  0.4102 -0.2472
 5879TIP3    H141832   6.419   2.601  11.045 -0.6494  0.8692 -0.1085
 5879TIP3    H241833   6.533   2.585  11.142 -0.4283 -2.8203 -0.8592
 5880TIP3   OH241834   3.419   3.412   8.808  0.8906 -0.0018  0.0482
 5880TIP3    H141835   3.443   3.427   8.716  2.9402 -1.5812  0.2426
 5880TIP3    H241836   3.492   3.362   8.844 -0.5166 -0.6933  2.1737
 5881TIP3   OH241837   3.412   1.509  11.574 -0.6031  0.1840 -0.0600
 5881TIP3    H141838   3.421   1.587  11.519  0.4219 -0.0070 -0.1837
 5881TIP3    H241839   3.318   1.495  11.580 -0.7947  1.2693 -0.2646
 5882TIP3   OH241840   4.227   1.463   8.712  0.8252  0.5301 -0.3335
 5882TIP3    H141841   4.216   1.550   8.752  1.9801 -0.3692  2.1335
 5882TIP3    H241842   4.301   1.425   8.759  0.9216 -1.4764 -1.9954
 5883TIP3   OH241843   1.907   1.670   9.772 -0.1221 -0.3139  0.4302
 5883TIP3    H141844   1.875   1.607   9.837 -0.1722  0.6464  1.3718
 5883TIP3    H241845   1.998   1.643   9.757  0.1592 -0.0728  1.5438
 5884TIP3   OH241846   5.685   0.427  11.329  0.1800 -0.3208 -0.7665
 5884TIP3    H141847   5.633   0.499  11.363  0.8953  0.0152 -0.3462
 5884TIP3    H241848   5.776   0.458  11.336  0.5018 -1.2745 -0.5438
 5885TIP3   OH241849   1.433   0.264   9.128 -0.6176 -0.1383 -0.3206
 5885TIP3    H141850   1.495   0.302   9.066  0.4694 -0.9708  0.2203
 5885TIP3    H241851   1.446   0.169   9.119 -0.5625 -0.2786  1.0352
 5886TIP3   OH241852   1.699   5.139  11.314  0.8047 -0.4782 -0.0033
 5886TIP3    H141853   1.646   5.066  11.347  0.1413 -1.0904 -2.2728
 5886TIP3    H241854   1.637   5.211  11.304  1.0367 -0.2443  0.2031
 5887TIP3   OH241855   4.700   4.440   9.007 -0.3671  0.0561  0.6000
 5887TIP3    H141856   4.687   4.359   8.957 -0.9141 -1.2187  2.6629
 5887TIP3    H241857   4.756   4.494   8.951 -1.8787 -0.7463 -1.8745
 5888TIP3   OH241858   0.427   0.897  10.011  0.5657  0.2234 -0.3853
 5888TIP3    H141859   0.443   0.978   9.963 -0.5426  0.0224 -1.1081
 5888TIP3    H241860   0.500   0.840   9.986  1.9244  1.3051  0.9153
 5889TIP3   OH241861   2.258   5.973   8.241 -0.2195  0.0800  0.1054
 5889TIP3    H141862   2.296   5.958   8.327  0.9563 -1.2706 -0.6073
 5889TIP3    H241863   2.333   5.981   8.182 -0.9447  2.7237 -0.5889
 5890TIP3   OH241864   6.399   1.893   9.974  0.4312  0.2450  0.3348
 5890TIP3    H141865   6.307   1.915   9.962  0.1524  0.6481  2.8523
 5890TIP3    H241866   6.398   1.812  10.026  1.5369 -0.7629 -1.1039
 5891TIP3   OH241867   6.732   5.641   9.831 -0.0996  0.4355 -0.3428
 5891TIP3    H141868   6.780   5.561   9.809  0.3160  0.7396 -0.5523
 5891TIP3    H241869   6.762   5.663   9.919 -0.5370  0.1266 -0.1113
 5892TIP3   OH241870   2.036   2.052   9.303  0.4492 -0.1364  0.3207
 5892TIP3    H141871   1.988   2.126   9.340  0.5040  0.0885 -0.0539
 5892TIP3    H241872   1.998   1.975   9.347  0.3117  0.1012  0.6249
 5893TIP3   OH241873   0.732   4.887   9.783 -0.5498  0.1699  0.3107
 5893TIP3    H141874   0.795   4.913   9.851  0.7628  0.7752 -1.0707
 5893TIP3    H241875   0.780   4.823   9.731 -1.3852  0.0310 -0.2884
 5894TIP3   OH241876   4.329   6.290  12.324  0.2185 -0.1442  0.4820
 5894TIP3    H141877   4.373   6.247  12.398  1.8773  1.4440  0.5160
 5894TIP3    H241878   4.360   6.381  12.328  0.4468 -0.0146 -2.2012
 5895TIP3   OH241879   1.536   0.050   9.780 -0.3752 -0.4488  0.3182
 5895TIP3    H141880   1.552   0.016   9.692 -0.5556 -0.6056  0.3470
 5895TIP3    H241881   1.578  -0.014   9.838 -2.4274 -1.7156  0.4874
 5896TIP3   OH241882   5.476   5.818  10.737 -0.4766 -0.1077 -0.0542
 5896TIP3    H141883   5.401   5.762  10.715  0.3344 -1.2934  0.0603
 5896TIP3    H241884   5.531   5.815  10.658 -1.2811  2.0967 -0.7781
 5897TIP3   OH241885   5.764   2.585  11.586  0.1223 -0.0950 -0.5664
 5897TIP3    H141886   5.850   2.628  11.586  0.3884 -0.6023 -1.5764
 5897TIP3    H241887   5.754   2.551  11.497  0.3638 -2.9664  0.4124
 5898TIP3   OH241888   5.444   6.694   9.724 -0.0609 -0.1093  0.1709
 5898TIP3    H141889   5.353   6.680   9.747 -0.4437  0.7325 -0.7833
 5898TIP3    H241890   5.448   6.786   9.696  1.9640  1.4465  4.5676
 5899TIP3   OH241891   5.758   5.775   9.866 -0.0625  0.3420 -0.1514
 5899TIP3    H141892   5.696   5.705   9.886 -0.5162  0.3158 -1.5025
 5899TIP3    H241893   5.767   5.824   9.948 -1.2716 -0.1224  0.2786
 5900TIP3   OH241894   3.763   5.696  10.142 -0.6462  0.0979  0.7419
 5900TIP3    H141895   3.680   5.720  10.102 -1.4200 -2.1668  0.8668
 5900TIP3    H241896   3.746   5.697  10.236  0.4845  2.9611  1.0149
 5901TIP3   OH241897   1.461   5.447  11.815 -0.5410  0.4715  0.0102
 5901TIP3    H141898   1.426   5.378  11.758  0.8951  0.4572 -0.9143
 5901TIP3    H241899   1.442   5.528  11.768  0.6735  0.4580 -0.5415
 5902TIP3   OH241900   6.030   1.065   9.337 -0.2600  0.5535 -0.2919
 5902TIP3    H141901   6.012   1.036   9.248  0.4299  0.1585 -0.3111
 5902TIP3    H241902   6.112   1.114   9.331  0.2795 -0.2523  0.2588
 5903TIP3   OH241903   2.291   5.081  10.064 -0.2843  0.5129  0.4250
 5903TIP3    H141904   2.318   5.141  10.134  0.5532 -0.7313  1.2171
 5903TIP3    H241905   2.306   4.993  10.101 -0.9223 -0.1820 -0.9023
 5904TIP3   OH241906   4.918   1.439   9.089 -0.4542 -0.1822 -0.1317
 5904TIP3    H141907   4.899   1.347   9.107  0.6936 -0.1638  1.3562
 5904TIP3    H241908   4.914   1.445   8.993 -2.5861 -1.2816 -0.1876
 5905TIP3   OH241909   0.449   2.318   9.273  0.4153 -0.0618  0.1486
 5905TIP3    H141910   0.519   2.263   9.239 -0.0369  0.1008 -1.0901
 5905TIP3    H241911   0.369   2.271   9.251  0.0970 -0.0033  1.1128
 5906TIP3   OH241912   5.484   6.525  11.385  0.6544  0.0580  0.6352
 5906TIP3    H141913   5.542   6.457  11.350  1.0848  0.6079  0.2612
 5906TIP3    H241914   5.407   6.521  11.328  1.0269  0.4261  0.0891
 5907TIP3   OH241915   0.673   2.351  11.210  0.1201  0.2106  0.1144
 5907TIP3    H141916   0.747   2.395  11.251 -0.2663 -0.8089  2.0242
 5907TIP3    H241917   0.596   2.389  11.253 -0.3589 -0.3620 -0.2156
 5908TIP3   OH241918   1.354   6.543   9.916  0.2919  0.4884  0.2929
 5908TIP3    H141919   1.355   6.526  10.010 -2.7395 -0.8771  0.1969
 5908TIP3    H241920   1.271   6.588   9.900 -0.8293 -2.0372 -2.0225
 5909TIP3   OH241921   5.759   0.214  10.292  0.1708 -0.4783 -0.7412
 5909TIP3    H141922   5.699   0.167  10.351  1.2269 -0.5398  0.3185
 5909TIP3    H241923   5.824   0.148  10.266  0.5724 -0.0728 -0.7738
 5910TIP3   OH241924   5.593   6.040   9.254  0.4737  0.5370 -0.7247
 5910TIP3    H141925   5.523   6.093   9.294  0.7395 -0.9441  1.9476
 5910TIP3    H241926   5.668   6.099   9.251 -0.0231  1.1947 -0.6208
 5911TIP3   OH241927   0.395   1.829   9.242  0.6538  0.0482 -0.6351
 5911TIP3    H141928   0.468   1.805   9.299 -1.2670 -0.9337  1.5581
 5911TIP3    H241929   0.392   1.759   9.177 -0.0757 -1.5204  1.0144
 5912TIP3   OH241930   0.206   5.520  11.110 -1.0639 -0.2348 -0.2173
 5912TIP3    H141931   0.137   5.580  11.081  0.1150  1.0840 -0.4432
 5912TIP3    H241932   0.163   5.463  11.173 -2.0291  1.6098  0.9079
 5913TIP3   OH241933   1.227   6.084   8.829 -0.0002 -0.1088 -0.0421
 5913TIP3    H141934   1.238   6.153   8.894  2.2092 -0.1616 -0.2545
 5913TIP3    H241935   1.158   6.028   8.864 -1.1443  1.6313  0.6142
 5914TIP3   OH241936   3.639   3.242   8.804 -0.5471 -0.1160 -0.1443
 5914TIP3    H141937   3.729   3.210   8.806 -0.6802 -0.4857 -0.0043
 5914TIP3    H241938   3.587   3.166   8.777 -1.1210 -0.6108  2.1832
 5915TIP3   OH241939   4.657   3.314   9.270  0.0916 -0.0165 -0.0077
 5915TIP3    H141940   4.678   3.328   9.362 -1.2162 -0.1718  0.3287
 5915TIP3    H241941   4.631   3.401   9.238 -3.2663 -0.5867  0.8242
 5916TIP3   OH241942   1.757   6.185   9.981 -0.0310  1.2638  0.0870
 5916TIP3    H141943   1.730   6.277   9.981 -0.5283  1.1948 -2.4670
 5916TIP3    H241944   1.712   6.148  10.057 -1.9410  2.6011 -0.2925
 5917TIP3   OH241945   3.240   0.086  11.634 -0.1027  0.3570 -0.6076
 5917TIP3    H141946   3.294   0.154  11.675  0.4151 -0.2219 -0.3135
 5917TIP3    H241947   3.249   0.010  11.691 -0.5534 -0.0138 -1.0154
 5918TIP3   OH241948   4.732   0.210  10.869 -1.0537 -0.2890 -0.3284
 5918TIP3    H141949   4.784   0.278  10.825  0.8658 -2.0104 -0.8833
 5918TIP3    H241950   4.753   0.221  10.962 -1.7050  0.6120 -0.2763
 5919TIP3   OH241951   3.810   6.001  10.967  0.1979  0.7463  0.3198
 5919TIP3    H141952   3.783   5.909  10.959  2.5572 -0.1467  1.6806
 5919TIP3    H241953   3.734   6.045  11.003 -0.8032 -0.7889  0.1911
 5920TIP3   OH241954   3.259   5.596   8.885  0.0284 -0.0548  0.0401
 5920TIP3    H141955   3.217   5.594   8.971 -0.9888  0.9750 -0.4060
 5920TIP3    H241956   3.282   5.688   8.872  0.6847 -0.2946 -0.5566
 5921TIP3   OH241957   2.776   5.488   8.968 -0.0792 -0.0098  0.1780
 5921TIP3    H141958   2.698   5.434   8.982  0.9653 -1.1167  2.0863
 5921TIP3    H241959   2.833   5.434   8.915  1.1836 -1.1090  2.5203
 5922TIP3   OH241960   0.896   4.711  11.958  0.2074  0.0337 -0.0740
 5922TIP3    H141961   0.933   4.642  12.014 -1.1382 -0.5220  0.1569
 5922TIP3    H241962   0.827   4.750  12.010  0.8783  1.5068 -0.2593
 5923TIP3   OH241963   5.066   4.810  11.759  0.1032 -0.6873 -0.3408
 5923TIP3    H141964   5.056   4.744  11.828 -1.1455 -0.9044 -0.6963
 5923TIP3    H241965   5.033   4.891  11.798  1.2322 -0.3566 -0.0489
 5924TIP3   OH241966   0.819   0.620  11.412  0.3507  0.3659 -0.4755
 5924TIP3    H141967   0.787   0.631  11.323  1.5057  0.0907 -0.9372
 5924TIP3    H241968   0.750   0.657  11.467  0.5755  2.5569 -1.5689
 5925TIP3   OH241969   6.070   3.705   9.801 -0.3180 -0.6512 -0.7114
 5925TIP3    H141970   6.165   3.693   9.811 -0.2710  0.0565 -0.3134
 5925TIP3    H241971   6.054   3.795   9.827 -1.3141 -1.1930  0.6743
 5926TIP3   OH241972   3.770   3.319  11.440 -0.0355 -0.0460  0.3643
 5926TIP3    H141973   3.722   3.340  11.520  1.4252 -2.0852  1.8458
 5926TIP3    H241974   3.774   3.224  11.437  0.9699 -0.0078 -1.5302
 5927TIP3   OH241975   3.397   5.604  11.504  0.0201  0.4237 -0.1549
 5927TIP3    H141976   3.316   5.627  11.551 -0.3979 -1.4427  0.1045
 5927TIP3    H241977   3.378   5.519  11.464  0.9667  1.1839 -2.3294
 5928TIP3   OH241978   1.225   0.290  10.663 -0.0673 -0.3155 -0.6800
 5928TIP3    H141979   1.259   0.321  10.579 -1.8611 -0.2855 -1.4505
 5928TIP3    H241980   1.172   0.213  10.640  0.2329 -0.9097  0.5650
 5929TIP3   OH241981   4.151   2.576  11.327 -0.3559 -0.8722 -0.0890
 5929TIP3    H141982   4.233   2.526  11.324  0.1487 -0.0969  0.4445
 5929TIP3    H241983   4.144   2.604  11.418 -1.2675 -1.0111 -0.1158
 5930TIP3   OH241984   3.124   4.099   9.612 -0.3645 -1.0748  0.1362
 5930TIP3    H141985   3.128   4.019   9.558 -1.9806 -0.9196 -0.2701
 5930TIP3    H241986   3.200   4.092   9.670  2.2961 -0.5829 -3.0097
 5931TIP3   OH241987   2.394   1.768  11.180 -0.0642 -0.1280 -0.4929
 5931TIP3    H141988   2.353   1.851  11.156 -0.9918  0.4931  2.7294
 5931TIP3    H241989   2.325   1.703  11.170  0.0987 -0.2033 -1.1796
 5932TIP3   OH241990   3.275   6.142  10.158  0.7859 -0.1361 -0.5562
 5932TIP3    H141991   3.236   6.154  10.072 -2.3958 -3.3889  0.2128
 5932TIP3    H241992   3.359   6.100  10.141  0.1318 -0.8974 -2.0940
 5933TIP3   OH241993   5.374   1.866   9.540 -0.2623  0.0282 -0.1331
 5933TIP3    H141994   5.308   1.831   9.480  0.2283 -1.1111 -0.0362
 5933TIP3    H241995   5.406   1.789   9.588 -0.3256  0.8506  1.2876
 5934TIP3   OH241996   4.434   3.261   9.762  0.3588  0.3044 -0.1110
 5934TIP3    H141997   4.477   3.291   9.842 -1.7277 -1.3270  1.7526
 5934TIP3    H241998   4.386   3.183   9.789  0.0055 -0.6235 -3.1241
 5935TIP3   OH241999   0.909   4.412   9.903  0.0507 -0.3100  0.4089
 5935TIP3    H142000   0.903   4.495   9.949 -0.0116 -0.0233 -0.1182
 5935TIP3    H242001   0.949   4.353   9.967 -1.3040 -0.2897  1.3180
 5936TIP3   OH242002   5.977   1.965  10.087 -0.1882 -0.2625 -0.3556
 5936TIP3    H142003   5.969   1.870  10.079 -1.3717 -0.1272 -0.9453
 5936TIP3    H242004   5.901   1.992  10.137  1.0761  0.2171  1.4272
 5937TIP3   OH242005   2.140   0.386  11.467 -0.2707  0.0871  0.0185
 5937TIP3    H142006   2.215   0.350  11.421 -0.3081  1.2752 -1.0200
 5937TIP3    H242007   2.168   0.392  11.559  0.9893  0.7667 -0.4019
 5938TIP3   OH242008   4.653   5.161   8.788 -0.4559  0.0767 -0.8092
 5938TIP3    H142009   4.683   5.243   8.748 -1.1391  0.1596 -1.1598
 5938TIP3    H242010   4.576   5.136   8.736 -0.9066 -0.2047 -0.0120
 5939TIP3   OH242011   6.300   0.676   9.425 -0.2630  0.1883 -0.1038
 5939TIP3    H142012   6.287   0.582   9.411  0.9742 -0.1239  0.7360
 5939TIP3    H242013   6.263   0.717   9.347  0.4176 -1.0761 -1.1184
 5940TIP3   OH242014   5.638   3.109   9.628 -0.0044 -0.2726 -0.1022
 5940TIP3    H142015   5.612   3.036   9.683  1.4512 -1.1198 -0.4942
 5940TIP3    H242016   5.727   3.087   9.598 -0.1381  0.9037 -1.4944
 5941TIP3   OH242017   5.133   0.360   9.103  0.1149 -0.0248  0.2118
 5941TIP3    H142018   5.156   0.451   9.082  0.2878 -0.2772 -0.7485
 5941TIP3    H242019   5.071   0.367   9.176  0.9897  0.8061  0.9124
 5942TIP3   OH242020   6.057   5.470  11.142  0.3034  0.6390  0.1255
 5942TIP3    H142021   5.962   5.485  11.138 -0.1113 -1.8936 -1.9822
 5942TIP3    H242022   6.079   5.434  11.056  2.6449 -1.6588  1.5519
 5943TIP3   OH242023   4.375   4.171   8.873 -0.3534  0.6116  0.2475
 5943TIP3    H142024   4.303   4.139   8.818 -0.3175  0.6671  0.1686
 5943TIP3    H242025   4.389   4.261   8.845  0.4047  0.2951 -0.4228
 5944TIP3   OH242026   1.539   1.578  10.713  0.4956 -1.2361  0.2564
 5944TIP3    H142027   1.503   1.587  10.801 -0.0064  0.1683 -0.0684
 5944TIP3    H242028   1.633   1.566  10.726  0.4234 -1.0312  0.9745
 5945TIP3   OH242029   0.562   1.650  10.936 -0.7830  0.5124 -0.2736
 5945TIP3    H142030   0.530   1.649  11.026  0.9415 -1.2093  0.4037
 5945TIP3    H242031   0.522   1.572  10.896  0.3630 -0.1320 -0.2130
 5946TIP3   OH242032   2.963   4.071   9.863 -0.5889  0.3139  0.0665
 5946TIP3    H142033   3.019   4.085   9.786 -1.7224  0.5745 -0.7489
 5946TIP3    H242034   2.982   4.146   9.920  0.8910 -0.3349  0.4566
 5947TIP3   OH242035   5.059   5.345   9.156 -0.0857  0.5253 -0.4662
 5947TIP3    H142036   5.021   5.411   9.214  2.3496  1.8740 -0.2833
 5947TIP3    H242037   5.040   5.376   9.068 -0.3749  0.5758 -0.3863
 5948TIP3   OH242038   4.734   3.009  11.783  0.7063  0.1002  0.3712
 5948TIP3    H142039   4.779   3.009  11.867  0.9298 -0.5357  0.2547
 5948TIP3    H242040   4.641   3.003  11.805  0.6897  1.0183  0.5995
 5949TIP3   OH242041   4.706   0.540  11.685 -0.2498  0.9415  0.4434
 5949TIP3    H142042   4.624   0.491  11.693 -0.5347  1.2307 -0.5388
 5949TIP3    H242043   4.740   0.545  11.774 -1.6729  1.4613  0.9876
 5950TIP3   OH242044   0.076   4.872   9.541 -0.0162 -0.0338 -0.5503
 5950TIP3    H142045  -0.005   4.911   9.573  1.1792  0.7003  1.8480
 5950TIP3    H242046   0.065   4.778   9.555  0.0222  0.1755  1.1089
 5951TIP3   OH242047   5.163   6.688   9.734  0.3998  0.0940 -0.1142
 5951TIP3    H142048   5.118   6.771   9.745 -0.2402 -0.2016 -0.4350
 5951TIP3    H242049   5.161   6.672   9.639  0.4931 -0.2988 -0.0527
 5952TIP3   OH242050   6.238   6.164  11.808  0.2627  0.0938  0.0669
 5952TIP3    H142051   6.311   6.224  11.818 -0.8142  1.6312 -0.8158
 5952TIP3    H242052   6.270   6.080  11.841  0.7787  1.8237  4.5692
 5953TIP3   OH242053   6.110   0.322  12.209  0.5642 -0.0404  0.1766
 5953TIP3    H142054   6.032   0.314  12.264  0.2104 -0.2416 -0.3411
 5953TIP3    H242055   6.155   0.239  12.218 -0.0811 -0.5031 -0.6955
 5954TIP3   OH242056   3.250   1.717   8.802  0.1035 -0.3798 -0.1002
 5954TIP3    H142057   3.288   1.762   8.877  0.7615 -0.4918 -0.3662
 5954TIP3    H242058   3.161   1.695   8.831  0.2406 -0.1395  0.5270
 5955TIP3   OH242059   2.237   0.469   9.864 -0.3488 -0.3723  0.4503
 5955TIP3    H142060   2.250   0.561   9.887 -3.4871  0.1632  0.5295
 5955TIP3    H242061   2.247   0.466   9.769  0.6867 -0.1647  0.5405
 5956TIP3   OH242062   5.686   2.462  19.598 -0.1458  0.3896  0.2582
 5956TIP3    H142063   5.668   2.487  19.689  0.6874 -0.5173  0.6951
 5956TIP3    H242064   5.703   2.545  19.553 -2.3722  1.0179  0.4810
 5957TIP3   OH242065   6.045   6.430  10.946 -0.4278  0.1198  0.0337
 5957TIP3    H142066   6.059   6.343  10.983  2.0732 -0.0897 -1.2094
 5957TIP3    H242067   6.124   6.447  10.895 -1.3448  2.6748 -0.6593
 5958TIP3   OH242068   6.572   3.367  10.214 -0.0325  0.5176  0.5934
 5958TIP3    H142069   6.530   3.441  10.170  1.1824  1.1364  0.4610
 5958TIP3    H242070   6.541   3.372  10.304 -1.7309 -0.1608  0.1082
 5959TIP3   OH242071   3.230   6.187  10.688 -0.2865 -0.2033  0.2116
 5959TIP3    H142072   3.246   6.162  10.597  0.0754  0.8379 -0.0213
 5959TIP3    H242073   3.262   6.113  10.739 -1.0548 -1.0734 -0.5163
 5960TIP3   OH242074   3.425   6.711   9.267 -0.2658 -0.3502  0.4790
 5960TIP3    H142075   3.340   6.680   9.297  0.3068 -1.1219  1.3728
 5960TIP3    H242076   3.444   6.657   9.189 -1.8810  1.8526 -1.5746
 5961TIP3   OH242077   6.591   3.878  10.550  0.7557 -0.0987  0.4229
 5961TIP3    H142078   6.574   3.931  10.628 -0.2719  2.0939 -1.1650
 5961TIP3    H242079   6.653   3.930  10.499  0.7646 -1.0695 -0.5970
 5962TIP3   OH242080   6.661   3.104  10.447 -0.3282  0.0376 -0.2492
 5962TIP3    H142081   6.636   3.140  10.362 -1.0422  3.1005  1.1560
 5962TIP3    H242082   6.579   3.090  10.493 -0.0619 -3.1402 -0.5066
 5963TIP3   OH242083   0.659   3.796  10.022 -0.5762 -0.2249  0.1870
 5963TIP3    H142084   0.569   3.825  10.009 -0.0281  1.4798  0.0511
 5963TIP3    H242085   0.684   3.832  10.107 -0.1075 -0.9330  0.3576
 5964TIP3   OH242086   0.582   2.526   9.373 -0.0296  0.0482 -0.0402
 5964TIP3    H142087   0.514   2.459   9.375 -0.6319  0.6381  1.9501
 5964TIP3    H242088   0.636   2.504   9.297 -2.5476 -0.3166 -1.8664
 5965TIP3   OH242089   2.350   2.566   9.415 -0.0543  0.3190  0.4861
 5965TIP3    H142090   2.375   2.658   9.401 -0.3515  0.4497  0.8071
 5965TIP3    H242091   2.411   2.535   9.482 -0.5355  0.5480  1.0408
 5966TIP3   OH242092   2.568   1.580  10.227  0.1126  0.0910  0.1229
 5966TIP3    H142093   2.651   1.609  10.190 -0.4599  1.0722 -0.4183
 5966TIP3    H242094   2.590   1.499  10.274  1.1464 -0.3167 -1.0017
 5967TIP3   OH242095   2.383   4.308  10.607 -0.1948 -0.1982  0.1904
 5967TIP3    H142096   2.473   4.332  10.627 -0.2736 -0.1337  0.4692
 5967TIP3    H242097   2.332   4.386  10.627 -0.0634  0.5737 -2.1208
 5968TIP3   OH242098   6.453   6.230  10.400 -0.3149  0.0734 -0.4103
 5968TIP3    H142099   6.483   6.253  10.312  0.5672  0.6607  0.0273
 5968TIP3    H242100   6.522   6.175  10.436 -1.2727 -1.2600 -0.5425
 5969TIP3   OH242101   2.993   0.077  11.488 -0.0110 -0.1887  0.1129
 5969TIP3    H142102   2.986  -0.018  11.476 -0.5444 -0.1592  0.1480
 5969TIP3    H242103   3.082   0.091  11.521 -0.0994 -0.7324  0.6075
 5970TIP3   OH242104   4.571   6.090   8.721  0.2807  0.0571  0.5002
 5970TIP3    H142105   4.552   6.183   8.707  2.1847  0.2151 -1.6259
 5970TIP3    H242106   4.665   6.081   8.706  0.6960 -1.8211  3.3841
 5971TIP3   OH242107   5.582   5.655  12.371  0.2197 -0.3154 -0.1887
 5971TIP3    H142108   5.672   5.659  12.339  0.3196 -0.0830  0.1133
 5971TIP3    H242109   5.588   5.605  12.453  0.5024  1.9498  1.2494
 5972TIP3   OH242110   4.357   6.092  11.889  0.0311 -0.3780 -0.0097
 5972TIP3    H142111   4.366   6.178  11.846  0.4541  0.4010  1.5763
 5972TIP3    H242112   4.265   6.069  11.877 -0.2658  0.6580  0.1938
 5973TIP3   OH242113   2.103   4.291   9.482  0.2850  0.9035 -0.2587
 5973TIP3    H142114   2.195   4.280   9.503  0.0696 -0.5537  0.0123
 5973TIP3    H242115   2.099   4.286   9.387  0.2557 -1.3250 -0.1884
 5974TIP3   OH242116   5.932   4.287   9.685 -0.3159 -0.0509 -0.2238
 5974TIP3    H142117   5.891   4.369   9.713 -0.2339 -0.0951  0.0235
 5974TIP3    H242118   5.952   4.300   9.592  1.1360  0.7908  0.1864
 5975TIP3   OH242119   1.352   2.770   9.832  0.1773  0.7071  0.3324
 5975TIP3    H142120   1.344   2.778   9.927  0.3243 -2.7326  0.7397
 5975TIP3    H242121   1.302   2.692   9.809  2.3169 -0.1384 -2.0036
 5976TIP3   OH242122   1.899   1.915   9.887  0.3322 -0.1990  0.2629
 5976TIP3    H142123   1.812   1.892   9.918  0.0944  0.7967  0.3617
 5976TIP3    H242124   1.921   1.846   9.825  0.2062 -1.4181  1.5105
 5977TIP3   OH242125   0.398   4.688   9.904  0.2185 -0.0798  0.3363
 5977TIP3    H142126   0.414   4.777   9.937 -0.8432  0.3769 -0.3247
 5977TIP3    H242127   0.430   4.690   9.814 -2.9712  0.7692 -0.9216
 5978TIP3   OH242128   3.701   6.610  11.261 -0.0598  0.2470 -0.3167
 5978TIP3    H142129   3.665   6.522  11.250 -0.2747  0.4175 -1.0310
 5978TIP3    H242130   3.645   6.651  11.326  0.4721 -0.3758  0.5546
 5979TIP3   OH242131   6.510   0.413  11.397  0.0388 -0.2438  0.8677
 5979TIP3    H142132   6.498   0.453  11.311  1.9271  0.7783  1.0181
 5979TIP3    H242133   6.426   0.425  11.441 -1.2381 -1.4956 -1.0674
 5980TIP3   OH242134   1.174   0.244   9.004  0.3002 -0.1704  1.0442
 5980TIP3    H142135   1.260   0.258   9.044 -0.1502 -1.2402  2.4773
 5980TIP3    H242136   1.177   0.155   8.969  0.1542  0.2042  0.0388
 5981TIP3   OH242137   5.564   0.155  12.252  0.2598 -0.5407 -0.2157
 5981TIP3    H142138   5.651   0.148  12.292  0.0837 -1.8955 -0.0338
 5981TIP3    H242139   5.506   0.176  12.324  0.1796 -1.4226 -0.0126
 5982TIP3   OH242140   3.827   4.669  10.488 -0.3568 -0.4511 -0.2973
 5982TIP3    H142141   3.875   4.723  10.426  0.0291  0.7427  0.9835
 5982TIP3    H242142   3.837   4.580  10.456  1.1392 -0.0296 -1.0773
 5983TIP3   OH242143   4.365   1.951   9.316  0.2962  0.0131  0.3492
 5983TIP3    H142144   4.434   2.013   9.294  0.1975  0.3721  1.0345
 5983TIP3    H242145   4.384   1.874   9.262  0.8157  0.3760  0.0085
 5984TIP3   OH242146   6.605   3.325   9.192 -0.1840  0.2951 -0.1383
 5984TIP3    H142147   6.510   3.330   9.187 -0.1977 -0.7093 -1.4116
 5984TIP3    H242148   6.635   3.338   9.102  0.8606  0.2542  0.1834
 5985TIP3   OH242149   0.611   3.445   8.856 -0.4527 -0.3375 -0.1083
 5985TIP3    H142150   0.665   3.370   8.832 -1.1854 -1.4102  1.4034
 5985TIP3    H242151   0.672   3.516   8.870  0.1524 -0.1491 -3.1402
 5986TIP3   OH242152   3.589   0.574   9.504  0.1259  0.0944  0.0081
 5986TIP3    H142153   3.632   0.657   9.480  1.8255 -0.3812  1.2312
 5986TIP3    H242154   3.592   0.522   9.424 -0.9182  1.1492 -0.7679
 5987TIP3   OH242155   6.213   5.951  11.134  0.1317 -0.4284 -0.3619
 5987TIP3    H142156   6.224   5.856  11.147 -0.2451 -0.6279 -1.4081
 5987TIP3    H242157   6.293   5.978  11.089 -0.7768 -0.7162 -2.2418
 5988TIP3   OH242158   3.460   1.353  11.167  0.0330  0.4347  0.0473
 5988TIP3    H142159   3.402   1.349  11.243  1.0177  0.1642  0.8010
 5988TIP3    H242160   3.417   1.297  11.102 -0.1787 -0.3711  0.8568
 5989TIP3   OH242161   4.256   2.156  10.757  0.3276 -0.2612  0.1411
 5989TIP3    H142162   4.227   2.114  10.676  0.1927 -0.7001  0.4186
 5989TIP3    H242163   4.339   2.197  10.734  0.4365 -0.6355 -0.1424
 5990TIP3   OH242164   1.243   6.291  11.060  0.4466 -0.1051 -0.1389
 5990TIP3    H142165   1.172   6.348  11.088  0.7145  0.6662 -0.9648
 5990TIP3    H242166   1.209   6.203  11.070 -0.7620  0.2633 -0.8445
 5991TIP3   OH242167   5.043   3.190  10.951  0.0254 -0.0614 -0.3743
 5991TIP3    H142168   5.114   3.151  10.900  4.0042  0.7926  3.8500
 5991TIP3    H242169   4.995   3.116  10.987  1.7178 -0.8869  0.2891
 5992TIP3   OH242170   4.556   4.477  10.002 -0.4290  0.2709 -0.0374
 5992TIP3    H142171   4.635   4.423  10.002 -0.6886 -0.1127 -0.2845
 5992TIP3    H242172   4.577   4.550   9.944  0.4770  1.2754  1.4726
 5993TIP3   OH242173   5.976   3.095  10.324  0.2404 -0.2517 -0.2022
 5993TIP3    H142174   5.898   3.041  10.312 -0.0523 -0.0232  0.6166
 5993TIP3    H242175   5.992   3.133  10.238 -1.2746  0.6676 -0.1197
 5994TIP3   OH242176   5.340   2.521  10.921 -0.4146 -0.2699 -0.1027
 5994TIP3    H142177   5.376   2.436  10.945  1.5898  0.4366 -0.4348
 5994TIP3    H242178   5.413   2.569  10.883 -1.7795  1.2058 -1.0090
 5995TIP3   OH242179   5.958   0.605  11.295  0.0836  0.0212  0.0042
 5995TIP3    H142180   6.022   0.536  11.314 -0.0920  0.4896  2.6184
 5995TIP3    H242181   6.012   0.682  11.273  0.3446 -0.1851 -0.0890
 5996TIP3   OH242182   1.966   5.098  11.208 -0.5366  0.2303 -0.1432
 5996TIP3    H142183   1.876   5.113  11.237 -0.8643 -0.0921 -0.9573
 5996TIP3    H242184   2.020   5.144  11.273 -1.2979  0.7298  0.1576
 5997TIP3   OH242185   2.613   0.803  12.540 -0.1919  0.1296  0.1939
 5997TIP3    H142186   2.667   0.823  12.616 -1.2467  1.0701  0.7224
 5997TIP3    H242187   2.565   0.724  12.564  1.2821 -1.0412 -0.4895
 5998TIP3   OH242188   6.610   3.224   9.724 -0.3549  0.2091 -0.6009
 5998TIP3    H142189   6.635   3.308   9.763 -1.9087  1.4196 -2.0202
 5998TIP3    H242190   6.635   3.232   9.632 -1.0513 -0.6337 -0.8774
 5999TIP3   OH242191   5.219   1.719  11.310 -0.5345  0.0072  0.2570
 5999TIP3    H142192   5.267   1.639  11.331  1.8452  0.7336 -1.8260
 5999TIP3    H242193   5.213   1.719  11.215 -1.0768  1.9482  0.2508
 6000TIP3   OH242194   0.861   1.990  10.463  0.4580  0.4912  0.0070
 6000TIP3    H142195   0.916   1.972  10.387  0.3089 -0.6419  0.1494
 6000TIP3    H242196   0.772   1.973  10.433  0.2331  1.5849 -0.0035
 6001TIP3   OH242197   6.248   2.585  11.371  0.4908  0.4675  0.1722
 6001TIP3    H142198   6.310   2.586  11.298  0.7910 -0.3847  0.4030
 6001TIP3    H242199   6.303   2.571  11.448  0.0381 -0.1097  0.3984
 6002TIP3   OH242200   6.301   1.074  11.447 -0.3565 -0.6419  0.0626
 6002TIP3    H142201   6.336   1.044  11.530 -0.6004 -0.3893  0.2595
 6002TIP3    H242202   6.211   1.041  11.444 -0.2265 -0.9770 -0.2756
 6003TIP3   OH242203   5.154   0.603   9.329  0.4793  0.0503  0.1192
 6003TIP3    H142204   5.190   0.553   9.402 -1.5232 -1.8546 -0.0916
 6003TIP3    H242205   5.063   0.574   9.323  0.6223 -0.0941 -3.3038
 6004TIP3   OH242206   1.875   0.044  12.127 -0.1998 -1.0216  0.3486
 6004TIP3    H142207   1.956   0.067  12.082 -0.4469 -1.3739 -0.2862
 6004TIP3    H242208   1.903  -0.001  12.207  0.2442 -0.2380  0.6459
 6005TIP3   OH242209   3.395   3.815   9.851 -0.2112 -0.1446 -0.1702
 6005TIP3    H142210   3.400   3.777   9.939 -1.2490 -1.4145 -0.6181
 6005TIP3    H242211   3.478   3.861   9.839  0.4432 -0.9716  1.0137
 6006TIP3   OH242212   1.262   5.960  10.699 -0.0489  0.2293  0.0199
 6006TIP3    H142213   1.290   5.875  10.665 -0.0946 -0.6375  2.0283
 6006TIP3    H242214   1.275   5.954  10.793  0.0870  2.5278  0.1989
 6007TIP3   OH242215   0.444   1.613  11.183  0.1346  0.2554 -0.1331
 6007TIP3    H142216   0.366   1.560  11.198  0.7271 -0.4996  0.3435
 6007TIP3    H242217   0.426   1.696  11.228 -0.2495 -0.0503  0.2748
 6008TIP3   OH242218   1.571   5.608  11.251 -0.0577  0.5706 -0.0191
 6008TIP3    H142219   1.547   5.696  11.280  0.1554  1.1582 -1.5309
 6008TIP3    H242220   1.659   5.594  11.285  0.6348  1.6989 -1.2472
 6009TIP3   OH242221   3.414   6.341  11.478 -0.2320  0.4770  0.0602
 6009TIP3    H142222   3.457   6.259  11.456 -1.0220 -0.1181  0.6843
 6009TIP3    H242223   3.447   6.362  11.565  2.0906  2.2864 -1.1366
 6010TIP3   OH242224   3.437   0.373  12.389 -0.7262  0.2458  0.4765
 6010TIP3    H142225   3.440   0.432  12.464  1.2341  0.8738 -0.0367
 6010TIP3    H242226   3.483   0.294  12.419  1.9936  1.3012 -0.6324
 6011TIP3   OH242227   2.410   6.253  11.057 -0.3747 -0.5922 -0.0722
 6011TIP3    H142228   2.365   6.212  10.983 -0.7444 -0.3826  0.0350
 6011TIP3    H242229   2.343   6.306  11.100 -0.8395 -2.5851  1.8641
 6012TIP3   OH242230   2.744   0.805   9.691 -0.5498  0.0001  0.4645
 6012TIP3    H142231   2.795   0.884   9.707  0.6052 -0.8386  1.0263
 6012TIP3    H242232   2.802   0.733   9.715 -1.3290 -1.0570 -0.6787
 6013TIP3   OH242233   2.741   4.190  11.196  0.5314 -0.4538 -0.3601
 6013TIP3    H142234   2.737   4.147  11.111  0.8908 -0.7411 -0.2360
 6013TIP3    H242235   2.784   4.274  11.179 -0.3937 -0.0203 -0.6460
 6014TIP3   OH242236   3.607   1.503   9.743  0.8649  0.2318 -0.2985
 6014TIP3    H142237   3.599   1.596   9.720 -0.5429  0.2109  0.0340
 6014TIP3    H242238   3.642   1.462   9.665  1.4153  1.0290 -0.4842
 6015TIP3   OH242239   2.247   0.400   8.619 -0.0178  0.0043  0.5015
 6015TIP3    H142240   2.291   0.452   8.552  0.5193 -0.7169  0.2852
 6015TIP3    H242241   2.154   0.420   8.608  0.0528 -0.2069 -0.5514
 6016TIP3   OH242242   5.145   0.400  11.557 -0.2741 -0.9296 -0.1390
 6016TIP3    H142243   5.061   0.440  11.535  0.1944 -0.1103 -0.4612
 6016TIP3    H242244   5.164   0.343  11.482 -0.7477 -1.4785  0.1421
 6017TIP3   OH242245   1.959   2.410   9.191  0.2411 -0.1119  0.4029
 6017TIP3    H142246   1.993   2.473   9.127 -0.8301  1.5040  1.3801
 6017TIP3    H242247   2.030   2.345   9.200  0.7507  0.0679 -1.7564
 6018TIP3   OH242248   0.863   2.421   9.229 -0.0773  0.3745  0.0317
 6018TIP3    H142249   0.928   2.456   9.289 -0.8590  2.1948 -0.1229
 6018TIP3    H242250   0.831   2.341   9.271  2.2155 -0.5779  0.1078
 6019TIP3   OH242251   4.519   0.530  10.804 -0.4328  0.3797 -0.1190
 6019TIP3    H142252   4.542   0.540  10.712  0.6090  1.7780  0.2512
 6019TIP3    H242253   4.434   0.571  10.813 -0.4975  0.3133 -0.4362
 6020TIP3   OH242254   5.428   0.546   9.219  0.1504  0.2617  0.3069
 6020TIP3    H142255   5.385   0.529   9.303  0.2451  1.9721  0.7481
 6020TIP3    H242256   5.521   0.551   9.241  0.4879 -2.0636 -0.4112
 6021TIP3   OH242257   5.502   5.874   9.667  0.5831  0.0766  0.2259
 6021TIP3    H142258   5.505   5.874   9.762  0.6118  0.8756  0.2354
 6021TIP3    H242259   5.594   5.873   9.640  0.5682 -0.8238  0.1947
 6022TIP3   OH242260   2.765   6.367   9.130  0.1670  0.2048  0.3374
 6022TIP3    H142261   2.745   6.363   9.037 -0.3118  0.9534  0.4087
 6022TIP3    H242262   2.856   6.337   9.136 -0.2057 -1.1270 -0.2119
 6023TIP3   OH242263   2.017   3.941  10.524  0.0257 -0.2475  0.0510
 6023TIP3    H142264   2.011   3.857  10.569 -0.3680  0.3001  1.0687
 6023TIP3    H242265   2.084   3.990  10.572  2.4469 -0.9998 -2.3318
 6024TIP3   OH242266   2.611   5.693  12.463 -0.5055  0.1507 -0.1324
 6024TIP3    H142267   2.610   5.789  12.464  0.3029  0.1990 -1.3451
 6024TIP3    H242268   2.643   5.671  12.375 -2.5262 -1.2578 -0.5757
 6025TIP3   OH242269   1.970   2.545  10.627 -0.2636 -0.8091 -0.3972
 6025TIP3    H142270   1.944   2.619  10.681 -0.3015  0.2741 -1.8549
 6025TIP3    H242271   1.989   2.475  10.690 -1.7312 -0.0623  0.9331
 6026TIP3   OH242272   6.544   1.643  10.801  0.2146 -0.1850  0.0346
 6026TIP3    H142273   6.449   1.649  10.798  0.0421 -2.2036 -3.5258
 6026TIP3    H242274   6.573   1.735  10.804 -1.8269  0.4978  0.5133
 6027TIP3   OH242275   4.549   4.263   9.682 -0.5796 -0.2116  0.1571
 6027TIP3    H142276   4.512   4.350   9.670 -1.9132 -0.7922 -0.1008
 6027TIP3    H242277   4.638   4.279   9.715 -0.4400  1.2444 -0.8428
 6028TIP3   OH242278   2.126   0.243  12.381  0.1983 -0.0640 -0.0164
 6028TIP3    H142279   2.185   0.306  12.339  0.1455 -0.1462 -0.2096
 6028TIP3    H242280   2.170   0.159  12.371 -1.3838 -0.6681 -2.9405
 6029TIP3   OH242281   5.939   4.841   9.712  0.3357  0.3424 -0.3244
 6029TIP3    H142282   5.959   4.896   9.788  0.9918 -1.3019  0.7519
 6029TIP3    H242283   5.855   4.872   9.681 -0.1727  0.7715  1.3790
 6030TIP3   OH242284   4.866   0.846  10.800  0.0579  0.4907 -0.1120
 6030TIP3    H142285   4.945   0.792  10.799 -0.0437  0.3095 -2.3111
 6030TIP3    H242286   4.813   0.810  10.871  0.5050 -1.5723 -0.7534
 6031TIP3   OH242287   0.472   1.618  11.854 -0.3310  0.0879 -0.0556
 6031TIP3    H142288   0.454   1.680  11.784 -0.4776 -0.2802 -0.3432
 6031TIP3    H242289   0.487   1.673  11.931 -2.9913  0.4412  0.3137
 6032TIP3   OH242290   2.254   5.324  11.100 -0.8398  0.4864  0.0715
 6032TIP3    H142291   2.178   5.378  11.078  0.0872  0.9575 -2.3332
 6032TIP3    H242292   2.301   5.373  11.167 -1.9035  0.8587  0.5659
 6033TIP3   OH242293   2.128   2.279  11.366 -0.2004  0.5203  0.4608
 6033TIP3    H142294   2.057   2.215  11.373  0.5225 -0.6401 -1.6773
 6033TIP3    H242295   2.168   2.282  11.453 -1.4395 -0.5056  1.0912
 6034TIP3   OH242296   3.766   2.426   9.723  0.0793  1.2264  0.4764
 6034TIP3    H142297   3.748   2.519   9.708 -1.5841  0.9664  0.6990
 6034TIP3    H242298   3.775   2.419   9.818 -0.7184  1.0269  0.5454
 6035TIP3   OH242299   3.740   2.965  10.566 -0.3807 -0.0647 -0.3936
 6035TIP3    H142300   3.742   3.061  10.573 -1.5922  0.0676 -1.6344
 6035TIP3    H242301   3.725   2.935  10.656  1.9099  0.7809  0.3632
 6036TIP3   OH242302   0.201   2.643   9.336  0.8480 -0.4523  0.5392
 6036TIP3    H142303   0.176   2.732   9.312  2.0525 -0.1313  0.3995
 6036TIP3    H242304   0.128   2.588   9.307  0.0832  0.4911  0.6606
 6037TIP3   OH242305   4.247   1.164  10.985 -0.3247  0.1526 -0.0987
 6037TIP3    H142306   4.286   1.076  10.983  0.4786  0.3808  2.2924
 6037TIP3    H242307   4.202   1.168  11.069  1.7306  2.8121  1.0111
 6038TIP3   OH242308   0.321   2.832  10.505  0.3172 -0.1568  0.2479
 6038TIP3    H142309   0.387   2.901  10.515  0.7823 -0.6686  0.8172
 6038TIP3    H242310   0.370   2.759  10.467  0.2605 -0.8049  1.3912
 6039TIP3   OH242311   0.186   1.308  11.482 -0.3602  0.0010 -0.7782
 6039TIP3    H142312   0.139   1.232  11.448 -0.4348  0.5624 -1.9993
 6039TIP3    H242313   0.223   1.279  11.565 -1.3715 -0.9986 -0.6620
 6040TIP3   OH242314   3.692   1.241  11.454  0.2426  0.4814  0.4068
 6040TIP3    H142315   3.597   1.228  11.456  0.0504  1.4403 -1.1386
 6040TIP3    H242316   3.724   1.192  11.530 -1.3588 -0.8917  0.2688
 6041TIP3   OH242317   5.883   3.581   8.724 -0.2806  0.4323  0.3689
 6041TIP3    H142318   5.876   3.588   8.819 -2.4131  1.6595  0.1980
 6041TIP3    H242319   5.970   3.613   8.703  0.3970 -0.3265  1.9262
 6042TIP3   OH242320   1.705   2.732   9.485  0.0306 -0.1942 -0.7438
 6042TIP3    H142321   1.767   2.659   9.495  0.6882  0.5759  1.3401
 6042TIP3    H242322   1.734   2.778   9.406  1.0080 -0.8843 -0.8064
 6043TIP3   OH242323   5.900   4.079   9.351 -0.1988  0.4856  0.2403
 6043TIP3    H142324   5.834   4.054   9.285 -2.3853  1.6013  1.8759
 6043TIP3    H242325   5.889   4.173   9.361 -0.6749  0.2259  2.9072
 6044TIP3   OH242326   6.166   1.752  10.682  0.3422 -0.5284 -0.6626
 6044TIP3    H142327   6.220   1.754  10.761  0.7241  0.1804 -0.9249
 6044TIP3    H242328   6.228   1.774  10.611 -0.0733 -0.7626 -1.1024
 6045TIP3   OH242329   3.435   6.345   8.858  1.0720 -0.2303 -0.8661
 6045TIP3    H142330   3.373   6.339   8.785  0.9828 -0.0469 -0.8075
 6045TIP3    H242331   3.516   6.378   8.819  0.9622  0.0653 -0.8492
 6046TIP3   OH242332   2.888   6.473  11.005 -0.7326 -0.4094 -0.2797
 6046TIP3    H142333   2.823   6.544  11.006 -0.1846  0.1011 -0.4264
 6046TIP3    H242334   2.836   6.394  10.994 -1.3695 -0.0479  0.0216
 6047TIP3   OH242335   5.858   3.607   9.002 -0.2444 -0.2373  0.7322
 6047TIP3    H142336   5.913   3.574   9.073  1.0520 -0.8603 -0.4998
 6047TIP3    H242337   5.769   3.607   9.037  0.2314 -1.4693  2.0149
 6048TIP3   OH242338   6.351   0.531  11.707 -0.1634 -0.4084  0.1004
 6048TIP3    H142339   6.356   0.570  11.620  0.1368 -2.4847 -0.8849
 6048TIP3    H242340   6.408   0.585  11.761  0.5281  0.2853 -1.2687
 6049TIP3   OH242341   0.590   4.947  11.475  0.6054 -0.4012 -0.1156
 6049TIP3    H142342   0.515   4.968  11.420 -0.2043 -2.6085  0.0612
 6049TIP3    H242343   0.630   5.032  11.495 -1.5153  0.7773 -0.6423
 6050TIP3   OH242344   4.344   1.264  12.321 -0.3122 -0.1126  0.2607
 6050TIP3    H142345   4.257   1.224  12.320 -0.6308  0.5173 -1.4563
 6050TIP3    H242346   4.342   1.328  12.249  0.9912  1.1940  1.3104
 6051TIP3   OH242347   3.992   5.875   9.338 -0.0480  0.2709  0.5046
 6051TIP3    H142348   3.934   5.887   9.263 -1.0891 -1.1961  1.0256
 6051TIP3    H242349   3.933   5.876   9.414  0.5707 -1.2811  1.0495
 6052TIP3   OH242350   5.108   4.041   8.823  0.4295  0.0487 -0.6846
 6052TIP3    H142351   5.013   4.055   8.834  0.3614  1.0412 -2.2265
 6052TIP3    H242352   5.123   3.953   8.857 -1.2353 -0.5160 -1.2969
 6053TIP3   OH242353   3.108   3.793   9.757  0.1055 -0.3574 -0.0890
 6053TIP3    H142354   3.043   3.824   9.819  0.3249  1.3456 -0.6322
 6053TIP3    H242355   3.191   3.795   9.805  0.2897  1.0518 -0.4193
 6054TIP3   OH242356   6.710   0.114  11.610  0.0250 -0.4380 -0.1940
 6054TIP3    H142357   6.634   0.091  11.556  0.0243 -0.3294 -0.2398
 6054TIP3    H242358   6.769   0.038  11.603 -1.2214 -1.7179  1.9629
 6055TIP3   OH242359   3.701   6.275  10.001  0.2975  0.0577  0.2538
 6055TIP3    H142360   3.687   6.353  10.054 -2.4670 -1.2530  1.6336
 6055TIP3    H242361   3.758   6.219  10.055 -0.5578 -0.2866  0.8106
 6056TIP3   OH242362   1.909   3.063   9.948 -0.1896 -0.2592 -0.3948
 6056TIP3    H142363   1.824   3.077   9.990  0.2483 -1.0403  0.8071
 6056TIP3    H242364   1.905   3.114   9.868 -0.9310  1.6021  0.7652
 6057TIP3   OH242365   2.606   0.233   9.545 -0.8454  0.0001  0.0860
 6057TIP3    H142366   2.624   0.327   9.537 -0.7820 -0.1138 -1.4233
 6057TIP3    H242367   2.541   0.215   9.477 -2.8634 -0.5982  2.0352
 6058TIP3   OH242368   3.537   4.648  10.863 -0.1520  0.3825 -0.3642
 6058TIP3    H142369   3.628   4.634  10.891 -0.3102  2.6364  1.5837
 6058TIP3    H242370   3.543   4.659  10.768  1.3626 -1.0514 -0.4869
 6059TIP3   OH242371   5.078   1.274  10.218  0.3459 -0.4199  0.1205
 6059TIP3    H142372   5.131   1.342  10.260 -1.2217  0.2835  1.0690
 6059TIP3    H242373   5.107   1.192  10.259 -0.3131  0.1285  1.7700
 6060TIP3   OH242374   4.838   1.924   9.904 -0.5176 -0.1629  0.1320
 6060TIP3    H142375   4.915   1.904   9.851 -0.4520 -1.4996  0.6856
 6060TIP3    H242376   4.827   2.018   9.895  0.7967 -0.0377 -0.4735
 6061TIP3   OH242377   4.039   2.237  10.054  0.1043 -0.0481 -0.2992
 6061TIP3    H142378   4.075   2.280   9.976  0.5971  2.0776  1.0117
 6061TIP3    H242379   3.965   2.292  10.079 -0.2373 -0.8841  0.5622
 6062TIP3   OH242380   4.802   0.478  11.228  0.3131 -0.2141  0.2074
 6062TIP3    H142381   4.891   0.513  11.228 -0.3020  1.4777 -1.2382
 6062TIP3    H242382   4.805   0.403  11.169  0.1307  1.8511 -2.5966
 6063TIP3   OH242383   4.980   0.842  12.676  0.2270  0.2862  0.2606
 6063TIP3    H142384   4.916   0.863  12.744  1.2689  1.6203  0.8880
 6063TIP3    H242385   4.931   0.848  12.594 -0.6576  0.3492  0.7784
 6064TIP3   OH242386   1.599   5.396  12.021 -0.7643 -0.0354 -0.2356
 6064TIP3    H142387   1.552   5.425  11.943 -1.3002  2.0601  0.8032
 6064TIP3    H242388   1.689   5.381  11.991 -0.3617  3.0764 -0.8764
 6065TIP3   OH242389   5.295   6.658   8.921 -0.7978  0.0977  0.2630
 6065TIP3    H142390   5.256   6.718   8.983 -0.9457 -1.2106  1.4731
 6065TIP3    H242391   5.223   6.604   8.891 -0.2147 -1.3875  1.4260
 6066TIP3   OH242392   1.145   1.959  10.793 -0.0712  0.0635 -0.2621
 6066TIP3    H142393   1.235   1.984  10.810 -0.7096  1.4913  1.3497
 6066TIP3    H242394   1.151   1.871  10.755  1.9696  0.1275 -0.1877
 6067TIP3   OH242395   5.006   0.367  11.847  0.1424 -0.0837 -0.2194
 6067TIP3    H142396   5.061   0.402  11.777  0.7052  0.2840  0.3956
 6067TIP3    H242397   5.018   0.428  11.919  0.6389 -1.1900  0.6597
 6068TIP3   OH242398   1.719   1.476   9.907  0.0009  0.1496 -0.2455
 6068TIP3    H142399   1.705   1.454  10.000  2.4178  1.0396  0.3872
 6068TIP3    H242400   1.641   1.527   9.883 -0.3489  0.5147  1.4993
 6069TIP3   OH242401   5.648   2.247  11.913 -0.3946 -0.1228 -0.4376
 6069TIP3    H142402   5.711   2.296  11.861 -0.3571 -0.6453 -0.8906
 6069TIP3    H242403   5.631   2.303  11.989  0.1879  0.2687 -0.5898
 6070TIP3   OH242404   4.330   5.780  11.665 -0.5658 -0.3792  0.0494
 6070TIP3    H142405   4.387   5.857  11.658 -0.4230 -0.2412  2.0501
 6070TIP3    H242406   4.354   5.740  11.749 -2.2200 -1.2981  0.1350
 6071TIP3   OH242407   4.960   2.206   9.049 -0.5159 -0.0607 -0.1349
 6071TIP3    H142408   4.876   2.190   9.093 -2.6228  3.2341 -2.5104
 6071TIP3    H242409   5.001   2.276   9.100  1.0536 -1.8369  1.1716
 6072TIP3   OH242410   6.488   4.409  11.324  0.5062  0.0755 -0.1614
 6072TIP3    H142411   6.419   4.446  11.379 -1.2958 -2.2876 -0.6670
 6072TIP3    H242412   6.482   4.456  11.241 -0.5668 -0.1295 -0.2091
 6073TIP3   OH242413   0.722   1.551  12.027  0.2214 -0.4639 -0.2510
 6073TIP3    H142414   0.672   1.619  12.073  1.8285 -0.8814  2.3422
 6073TIP3    H242415   0.709   1.570  11.934  0.4646  3.2781  0.3318
 6074TIP3   OH242416   1.225   5.067  11.823  0.2915 -0.4402 -0.5879
 6074TIP3    H142417   1.185   5.151  11.802  1.8539  0.1108 -1.5686
 6074TIP3    H242418   1.152   5.012  11.851 -1.0460  0.6831 -1.7118
 6075TIP3   OH242419   3.661   4.165   8.760  0.0138  0.0638  0.1042
 6075TIP3    H142420   3.722   4.168   8.687  0.5255 -0.1185  0.5208
 6075TIP3    H242421   3.587   4.113   8.728  1.1904 -1.8942  0.4246
 6076TIP3   OH242422   5.346   0.482  11.094 -0.1777  0.1940 -0.5075
 6076TIP3    H142423   5.433   0.461  11.059  0.2386 -0.6088  0.9231
 6076TIP3    H242424   5.320   0.403  11.142 -1.1801  0.8657  0.0837
 6077TIP3   OH242425   4.847   1.277  10.065 -0.1825  0.0804 -0.3551
 6077TIP3    H142426   4.923   1.306  10.116 -1.9606  1.6200  1.6363
 6077TIP3    H242427   4.789   1.353  10.064 -2.3869 -1.5175 -0.3985
 6078TIP3   OH242428   3.429   2.279   8.824 -0.3296 -0.3086 -0.2810
 6078TIP3    H142429   3.406   2.187   8.837  0.9080 -0.5830  0.1483
 6078TIP3    H242430   3.446   2.287   8.730 -1.1444 -0.3288 -0.4408
 6079TIP3   OH242431   3.363   5.475   9.681 -0.4126 -0.6018  0.2102
 6079TIP3    H142432   3.399   5.520   9.605 -0.8948 -2.1033 -0.9471
 6079TIP3    H242433   3.410   5.392   9.684 -0.6941 -0.7407  1.3280
 6080TIP3   OH242434   2.012   2.048  11.455  0.1509  0.3337 -0.3906
 6080TIP3    H142435   2.081   1.984  11.437 -0.4489 -0.6812  0.8206
 6080TIP3    H242436   2.010   2.056  11.550 -0.3673  1.5372 -0.4784
 6081TIP3   OH242437   2.977   2.406  10.109 -0.1866 -0.1783 -0.4720
 6081TIP3    H142438   2.939   2.470  10.170  0.6502 -0.3140  0.2113
 6081TIP3    H242439   3.068   2.434  10.098 -0.6160  0.5083 -2.5908
 6082TIP3   OH242440   0.173   4.372  10.762  0.0150  0.0921  0.3498
 6082TIP3    H142441   0.139   4.460  10.745 -1.8560 -0.6252  0.1556
 6082TIP3    H242442   0.219   4.348  10.681 -1.9954 -0.2140 -0.7562
 6083TIP3   OH242443   2.622   0.805  11.516 -0.1221  0.2017 -0.0292
 6083TIP3    H142444   2.533   0.772  11.510  0.5918 -1.8251 -0.3111
 6083TIP3    H242445   2.620   0.889  11.471 -1.5090 -0.6362 -1.6152
 6084TIP3   OH242446   1.215   0.419  10.914 -0.3211 -0.6706  0.2064
 6084TIP3    H142447   1.142   0.390  10.968 -0.9131 -1.0643 -0.7772
 6084TIP3    H242448   1.209   0.365  10.834  1.0156 -0.6837  0.0926
 6085TIP3   OH242449   4.909   0.489  11.493 -0.0145 -0.3938 -0.1395
 6085TIP3    H142450   4.865   0.516  11.412 -0.3163  0.3173  0.2525
 6085TIP3    H242451   4.860   0.531  11.562 -0.3505 -1.7823  0.4970
 6086TIP3   OH242452   0.758   5.703  11.812 -0.3173 -0.1383 -0.1108
 6086TIP3    H142453   0.746   5.716  11.906  0.4376  1.2032 -0.1705
 6086TIP3    H242454   0.853   5.707  11.799 -0.4583  0.5462 -1.0334
 6087TIP3   OH242455   6.147   0.836  11.365  0.6726 -0.0714  0.9529
 6087TIP3    H142456   6.175   0.895  11.295 -1.7648 -3.2132 -3.1279
 6087TIP3    H242457   6.066   0.876  11.398  0.2386  0.0368 -0.1879
 6088TIP3   OH242458   4.797   6.623  11.844  0.3246 -0.1652  0.0515
 6088TIP3    H142459   4.797   6.652  11.935  1.1062 -0.2507  0.0817
 6088TIP3    H242460   4.884   6.584  11.830  0.0023 -0.6968 -0.5577
 6089TIP3   OH242461   5.666   6.500  10.856  0.0103 -0.2854  0.6447
 6089TIP3    H142462   5.605   6.513  10.783 -2.0462 -0.0055  2.3368
 6089TIP3    H242463   5.694   6.409  10.848 -3.9347 -1.8519  2.1169
 6090TIP3   OH242464   4.383   1.603  11.662 -0.0751 -0.0413 -0.3761
 6090TIP3    H142465   4.322   1.578  11.592 -0.8197  0.6100  0.0237
 6090TIP3    H242466   4.327   1.618  11.738  0.7325 -0.8369  0.4016
 6091TIP3   OH242467   2.022   5.165   8.833 -0.6569  0.1187  0.0344
 6091TIP3    H142468   2.077   5.093   8.801 -0.9462  0.8615 -2.3620
 6091TIP3    H242469   1.975   5.194   8.755  0.3059  3.6578  0.6162
 6092TIP3   OH242470   3.239   1.918  10.330  0.4294  0.0782 -0.3510
 6092TIP3    H142471   3.327   1.896  10.361 -0.1185 -0.4453  0.9163
 6092TIP3    H242472   3.240   2.013  10.322  0.5443  0.2935  1.6174
 6093TIP3   OH242473   1.466   1.340  10.846 -0.0829  0.0519 -0.5894
 6093TIP3    H142474   1.510   1.403  10.902  0.0984 -0.7629  0.2187
 6093TIP3    H242475   1.512   1.346  10.762  1.2738 -0.4103  0.0774
 6094TIP3   OH242476   5.270   6.551  11.181 -0.0516 -0.6981 -0.7307
 6094TIP3    H142477   5.277   6.456  11.194  1.4238 -0.6051 -0.6449
 6094TIP3    H242478   5.263   6.561  11.086 -0.5429 -0.8992 -0.7197
 6095TIP3   OH242479   4.332   4.446   9.606  0.0917  0.2372  0.4042
 6095TIP3    H142480   4.278   4.389   9.660  0.4438  0.5033  1.0528
 6095TIP3    H242481   4.316   4.534   9.640  0.1720  0.4354 -0.0535
 6096TIP3   OH242482   1.605   5.869  11.374  0.1928 -0.1563 -0.5091
 6096TIP3    H142483   1.655   5.895  11.452 -1.0221 -1.6341  0.8048
 6096TIP3    H242484   1.632   5.933  11.308  0.5420  1.7710  1.3573
 6097TIP3   OH242485   1.235   2.784  11.243 -0.4690  0.0639  0.2297
 6097TIP3    H142486   1.278   2.866  11.269 -1.2443  0.2782  0.8791
 6097TIP3    H242487   1.147   2.811  11.216 -0.3711 -0.4287 -0.5900
 6098TIP3   OH242488   3.883   1.477   8.914 -1.1281  0.0695  0.6668
 6098TIP3    H142489   3.937   1.399   8.900  0.1727  0.8990  0.8283
 6098TIP3    H242490   3.879   1.485   9.010  0.9185  1.5709  0.7050
 6099TIP3   OH242491   0.163   1.893  10.946 -0.5968 -0.2743  0.3486
 6099TIP3    H142492   0.243   1.920  10.903 -0.6691  0.6220  0.7533
 6099TIP3    H242493   0.118   1.975  10.969 -0.2355 -0.6489  2.7204
 6100TIP3   OH242494   1.589   4.704   9.825  1.0523 -0.2575 -0.6781
 6100TIP3    H142495   1.495   4.692   9.836  1.0753 -1.2388 -1.4272
 6100TIP3    H242496   1.628   4.627   9.867  1.6743  1.3189  1.8048
 6101TIP3   OH242497   3.495   0.483  10.562 -0.0565  0.4015 -0.0558
 6101TIP3    H142498   3.475   0.419  10.630 -1.2442  1.5103  0.6898
 6101TIP3    H242499   3.411   0.499  10.519  0.0966  1.8228  0.1271
 6102TIP3   OH242500   4.083   3.024  11.104 -0.1070 -0.2231 -0.5786
 6102TIP3    H142501   4.106   2.932  11.113  0.9174  0.0548 -0.2109
 6102TIP3    H242502   3.988   3.024  11.096 -0.5185 -1.1212  2.6113
 6103TIP3   OH242503   4.441   0.108   9.719 -0.5344  0.2834 -0.6383
 6103TIP3    H142504   4.453   0.111   9.625  0.7967  0.5560 -0.4833
 6103TIP3    H242505   4.481   0.189   9.751  0.8440 -0.7266  0.3193
 6104TIP3   OH242506   2.181   0.113  10.642  0.1240 -0.0635  0.0405
 6104TIP3    H142507   2.151   0.074  10.560 -0.8437  0.8185 -0.0477
 6104TIP3    H242508   2.237   0.046  10.682 -0.9834 -1.2846 -0.3994
 6105TIP3   OH242509   0.331   4.279   9.388 -0.5601  0.0435  0.0447
 6105TIP3    H142510   0.391   4.254   9.458  0.4570  0.5368 -0.6303
 6105TIP3    H242511   0.253   4.312   9.434 -1.2880 -2.6619  0.9595
 6106TIP3   OH242512   3.118   3.718   8.759 -0.2805  0.0048 -0.1789
 6106TIP3    H142513   3.200   3.730   8.713 -0.6404 -0.5104 -0.9779
 6106TIP3    H242514   3.137   3.652   8.826 -0.0873 -0.2502 -0.4829
 6107TIP3   OH242515   5.511   1.926  10.128 -0.5655  0.0207 -0.0076
 6107TIP3    H142516   5.502   2.013  10.090  0.2412  0.4241  0.6818
 6107TIP3    H242517   5.520   1.867  10.053  1.0235  0.7942 -0.4671
 6108TIP3   OH242518   4.578   6.392   9.439 -0.4315 -0.2458 -0.3792
 6108TIP3    H142519   4.568   6.301   9.466  1.0397 -0.1642  0.4969
 6108TIP3    H242520   4.498   6.435   9.469 -0.0604 -0.7426  1.4346
 6109TIP3   OH242521   1.887   5.656   9.711 -0.4250 -0.2312  0.2951
 6109TIP3    H142522   1.850   5.735   9.671  0.0555 -0.4265 -0.5670
 6109TIP3    H242523   1.981   5.664   9.695 -0.3798 -1.0026  0.1747
 6110TIP3   OH242524   6.079   2.051  10.700 -0.5187  0.7295  0.0855
 6110TIP3    H142525   6.024   2.050  10.622 -2.2707  3.0525  1.1660
 6110TIP3    H242526   6.037   1.990  10.761 -1.7494  2.2150  0.7694
 6111TIP3   OH242527   1.574   3.911  12.124 -0.1659 -0.6809 -0.0163
 6111TIP3    H142528   1.550   3.997  12.158 -0.0954 -0.9088  0.6180
 6111TIP3    H242529   1.505   3.890  12.061 -1.0735 -0.8553  0.9919
 6112TIP3   OH242530   1.761   1.117  10.876 -0.0461  0.1648 -0.3810
 6112TIP3    H142531   1.683   1.077  10.914 -0.3998  0.2192 -1.0452
 6112TIP3    H242532   1.777   1.194  10.931  2.4241 -2.3635  2.9088
 6113TIP3   OH242533   1.904   3.018  11.622 -1.0616  0.2953  0.5128
 6113TIP3    H142534   1.931   2.937  11.665  0.5272  0.5968  0.1649
 6113TIP3    H242535   1.842   3.058  11.682 -0.7481 -0.4791  1.3737
 6114TIP3   OH242536   1.257   1.952  10.446 -0.3707 -0.1436 -0.3167
 6114TIP3    H142537   1.218   2.026  10.493 -0.8519 -0.9728  0.6138
 6114TIP3    H242538   1.190   1.927  10.382 -1.8172 -2.0741  1.8038
 6115TIP3   OH242539   5.965   0.992   9.601 -0.0792  0.2180  0.1881
 6115TIP3    H142540   6.028   0.926   9.629 -1.1651 -0.9314  0.0199
 6115TIP3    H242541   5.976   0.996   9.506  2.4501  2.9165  0.4707
 6116TIP3   OH242542   3.845   4.186   9.449 -0.0154  0.5086 -0.1442
 6116TIP3    H142543   3.850   4.263   9.392  0.1591 -1.1213 -2.4830
 6116TIP3    H242544   3.934   4.173   9.481  0.2833  0.3891 -1.0160
 6117TIP3   OH242545   3.933   5.757  12.876  0.3983  0.1848 -0.1700
 6117TIP3    H142546   3.905   5.766  12.785 -1.1083 -1.2117  0.1131
 6117TIP3    H242547   4.020   5.797  12.878 -0.4160  2.2196 -1.7115
 6118TIP3   OH242548   4.876   1.173  10.772 -0.0888 -0.5636 -0.1808
 6118TIP3    H142549   4.813   1.199  10.706 -0.4914 -0.2864  0.3027
 6118TIP3    H242550   4.828   1.114  10.829  0.6364 -1.8762 -0.8940
 6119TIP3   OH242551   0.181   5.566   9.388  0.8484 -0.2172 -0.0349
 6119TIP3    H142552   0.222   5.488   9.353  0.4952 -1.4154  2.0695
 6119TIP3    H242553   0.172   5.625   9.312  1.5752 -1.9849 -1.5592
 6120TIP3   OH242554   2.150   1.692  11.232 -0.0258  0.4033  0.3149
 6120TIP3    H142555   2.059   1.714  11.211 -0.3305  0.3155  1.4742
 6120TIP3    H242556   2.166   1.734  11.316  1.0027  0.3798  0.1380
 6121TIP3   OH242557   4.979   0.877  12.131  0.4287  0.2621  0.5107
 6121TIP3    H142558   5.054   0.834  12.173  0.1201 -0.5376  0.2677
 6121TIP3    H242559   4.907   0.866  12.193  0.5503  1.1857  0.8217
 6122TIP3   OH242560   3.567   5.623  11.104 -0.1149 -0.3102  0.6023
 6122TIP3    H142561   3.615   5.598  11.182  0.1851 -1.5346  0.0418
 6122TIP3    H242562   3.633   5.628  11.035 -0.3979  0.6205  0.3866
 6123TIP3   OH242563   0.475   0.464   9.196  0.0094 -0.8139  0.0306
 6123TIP3    H142564   0.459   0.552   9.163 -1.3293 -0.6002  1.1563
 6123TIP3    H242565   0.564   0.467   9.231 -0.8205  0.8104  2.1862
 6124TIP3   OH242566   3.351   0.964   9.811  0.1284 -0.1407 -0.4716
 6124TIP3    H142567   3.378   1.055   9.800  0.8229 -0.4742 -1.7480
 6124TIP3    H242568   3.433   0.916   9.824 -0.2603 -0.5434  0.6061
 6125TIP3   OH242569   2.522   2.223   9.659  0.5402  0.3321  0.2390
 6125TIP3    H142570   2.527   2.157   9.729 -1.0475  0.0043  0.0835
 6125TIP3    H242571   2.482   2.177   9.585  0.9542  1.0357 -0.4343
 6126TIP3   OH242572   3.223   6.176  12.166 -0.0007  0.4664 -0.5407
 6126TIP3    H142573   3.253   6.267  12.161 -0.6200  0.6748 -0.5311
 6126TIP3    H242574   3.141   6.180  12.215 -0.0343 -0.0986 -0.5415
 6127TIP3   OH242575   1.485   4.925  11.093  0.0027  1.0031 -0.0430
 6127TIP3    H142576   1.454   4.940  11.183  3.1073  0.7000  1.2278
 6127TIP3    H242577   1.521   5.010  11.067  0.2419  0.7626 -0.4966
 6128TIP3   OH242578   3.863   1.000  11.324 -0.0080 -0.0913  0.0857
 6128TIP3    H142579   3.878   1.089  11.291  0.9593 -0.6204 -0.9901
 6128TIP3    H242580   3.768   0.989  11.323 -0.1297  0.8687  0.0749
 6129TIP3   OH242581   3.944   2.923   9.971  0.2995 -0.3634  0.6244
 6129TIP3    H142582   4.038   2.902   9.970 -0.0104 -1.8850  0.0362
 6129TIP3    H242583   3.930   2.971   9.889  0.8289  1.2804  1.4640
 6130TIP3   OH242584   2.385   3.120   9.041 -0.7298  0.2233  0.4512
 6130TIP3    H142585   2.372   3.117   8.946 -0.3749 -0.4943  0.4191
 6130TIP3    H242586   2.474   3.089   9.054 -1.1610 -0.7958  1.0924
 6131TIP3   OH242587   3.493   1.961  11.502  0.3051 -0.5953  0.1661
 6131TIP3    H142588   3.414   1.951  11.556  0.1681  0.1273  0.1155
 6131TIP3    H242589   3.565   1.938  11.561  0.2190  0.9480  0.9337
 6132TIP3   OH242590   4.058   6.499  11.109  0.2442 -0.2556 -0.5825
 6132TIP3    H142591   4.029   6.551  11.184 -0.1970  0.5148 -1.2639
 6132TIP3    H242592   4.085   6.415  11.146  0.1589  0.1612  0.4451
 6133TIP3   OH242593   0.280   2.090   9.224  0.4292 -0.2819 -0.3786
 6133TIP3    H142594   0.247   2.104   9.312  1.8599  1.1342 -0.0055
 6133TIP3    H242595   0.327   2.007   9.228  0.0499 -0.4707  0.0610
 6134TIP3   OH242596   2.339   6.586  11.989  0.2464  0.2401  0.1110
 6134TIP3    H142597   2.384   6.648  12.046  0.1041  0.9373 -0.5117
 6134TIP3    H242598   2.358   6.500  12.026 -0.3043  0.7025  1.5213
 6135TIP3   OH242599   4.431   4.006  11.967 -0.5320  0.0753 -0.8183
 6135TIP3    H142600   4.393   3.971  12.048  1.0277 -1.1233 -0.5735
 6135TIP3    H242601   4.448   4.098  11.987 -0.7652 -0.0530 -0.0030
 6136TIP3   OH242602   3.426   3.939   8.894 -0.1631 -0.1557  0.1031
 6136TIP3    H142603   3.441   3.848   8.921  0.4217  0.3596  1.6548
 6136TIP3    H242604   3.351   3.967   8.946  0.8890  0.8260  1.1652
 6137TIP3   OH242605   3.980   0.871   9.986  0.0527  0.4614 -0.0525
 6137TIP3    H142606   3.916   0.942   9.995 -0.1256  0.2787  0.1499
 6137TIP3    H242607   4.038   0.881  10.061 -0.3737 -0.0042  0.3459
 6138TIP3   OH242608   0.299   5.716   8.655  0.4192 -0.7074 -0.2056
 6138TIP3    H142609   0.221   5.660   8.649  0.6709 -1.1247  0.2777
 6138TIP3    H242610   0.362   5.663   8.705  1.3885 -0.7923 -1.4692
 6139TIP3   OH242611   0.472   3.406  10.960 -0.3744 -0.5499 -0.8967
 6139TIP3    H142612   0.511   3.355  10.889  0.0889  0.5012 -1.4292
 6139TIP3    H242613   0.410   3.464  10.915 -0.0577  0.1426 -0.4495
 6140TIP3   OH242614   1.312   1.134  10.677  0.1577 -0.2578  0.3672
 6140TIP3    H142615   1.267   1.218  10.682 -1.2505 -0.9980  0.6330
 6140TIP3    H242616   1.391   1.146  10.729  0.9954  1.4841 -1.1777
 6141TIP3   OH242617   1.513   3.001  10.418  0.1120  0.0167  0.0047
 6141TIP3    H142618   1.463   2.929  10.379 -2.1354  0.5307  1.7042
 6141TIP3    H242619   1.541   2.967  10.503  1.5794  0.1956 -0.3892
 6142TIP3   OH242620   1.979   4.324  10.191  0.7925  0.3664  0.2496
 6142TIP3    H142621   2.025   4.375  10.258  1.7521  0.5360 -0.5195
 6142TIP3    H242622   1.946   4.247  10.238 -1.6903  2.1481  1.7273
 6143TIP3   OH242623   5.686   1.780   9.606  0.1759 -0.4084  0.4073
 6143TIP3    H142624   5.622   1.710   9.625  1.1490 -0.8860  2.1423
 6143TIP3    H242625   5.758   1.735   9.562 -0.1997 -0.0528 -0.6009
 6144TIP3   OH242626   1.545   3.895   8.580 -0.1607  0.0055 -0.0232
 6144TIP3    H142627   1.520   3.974   8.628  3.1920  2.0274 -1.2391
 6144TIP3    H242628   1.622   3.863   8.627 -0.6547 -1.7738 -0.3768
 6145TIP3   OH242629   6.279   1.299  10.119 -0.0188 -0.2204 -0.0401
 6145TIP3    H142630   6.302   1.386  10.150  2.3146  0.5056 -3.3017
 6145TIP3    H242631   6.358   1.267  10.076 -1.9005 -2.3640 -2.1969
 6146TIP3   OH242632   5.632   0.748   9.755  0.6802  0.2432  0.1135
 6146TIP3    H142633   5.679   0.831   9.767 -1.0870  1.3238 -0.0146
 6146TIP3    H242634   5.605   0.749   9.664  0.7048 -0.5187  0.0971
 6147TIP3   OH242635   4.376   4.201  10.470  0.3284 -0.2814 -0.3452
 6147TIP3    H142636   4.427   4.281  10.474 -3.5571  2.5835 -1.2596
 6147TIP3    H242637   4.392   4.157  10.553  1.8318  1.9881  0.6645
 6148TIP3   OH242638   3.242   2.946  11.558  0.9276  0.0154  0.4422
 6148TIP3    H142639   3.227   3.039  11.540 -0.8202 -0.0098  1.5290
 6148TIP3    H242640   3.172   2.922  11.619  1.8592 -1.8122  0.8579
 6149TIP3   OH242641   3.324   2.083  10.829  0.2876  0.1287  0.0849
 6149TIP3    H142642   3.347   1.991  10.846 -2.1583 -0.5950 -0.0933
 6149TIP3    H242643   3.403   2.121  10.790  1.0606 -2.1786 -0.7802
 6150TIP3   OH242644   2.393   5.601   9.633 -0.2220  0.1132  0.2299
 6150TIP3    H142645   2.352   5.533   9.578 -0.0053  0.5628 -0.5112
 6150TIP3    H242646   2.480   5.566   9.652  0.2001  0.5255 -0.8487
 6151TIP3   OH242647   5.218   2.271   9.851  0.1515  0.4485 -0.2671
 6151TIP3    H142648   5.256   2.190   9.817  0.5345  0.8187 -0.7373
 6151TIP3    H242649   5.280   2.299   9.918  0.7072  1.0301 -1.0047
 6152TIP3   OH242650   2.621   1.582  12.295 -0.2932  0.6463  0.2834
 6152TIP3    H142651   2.623   1.513  12.362  0.4050 -1.4172 -1.7390
 6152TIP3    H242652   2.528   1.598  12.280 -0.4650  1.1184  1.6456
 6153TIP3   OH242653   4.742   4.838   8.451  0.3845  0.1165 -0.3768
 6153TIP3    H142654   4.747   4.930   8.477 -1.0580 -0.1095  0.8190
 6153TIP3    H242655   4.688   4.839   8.372  0.0209  0.2587 -0.1272
 6154TIP3   OH242656   6.529   5.934  10.281 -0.4226  0.4678 -0.0123
 6154TIP3    H142657   6.554   5.866  10.344  0.0345  0.3487 -0.3190
 6154TIP3    H242658   6.612   5.970  10.250 -0.5971  2.9548  2.0317
 6155TIP3   OH242659   6.691   0.024  11.248  0.2918 -0.5822 -0.6537
 6155TIP3    H142660   6.624   0.048  11.311 -0.2568 -0.4680 -1.2661
 6155TIP3    H242661   6.774   0.039  11.293 -0.0464  1.2436 -0.5674
 6156TIP3   OH242662   2.443   5.966  12.691 -0.0785  0.3777 -0.2227
 6156TIP3    H142663   2.488   5.942  12.772 -1.2651 -4.4440 -0.6873
 6156TIP3    H242664   2.510   5.956  12.623  0.0789  1.2050 -0.2063
 6157TIP3   OH242665   5.578   3.752  10.982  0.6588 -0.2950 -0.3157
 6157TIP3    H142666   5.527   3.676  11.009  0.3106 -0.0041 -0.1503
 6157TIP3    H242667   5.661   3.743  11.030 -0.1548  0.4955  1.3127
 6158TIP3   OH242668   2.835   3.759  10.899 -0.4200  0.0021  0.4108
 6158TIP3    H142669   2.898   3.787  10.833  1.1823 -1.5288  1.2354
 6158TIP3    H242670   2.772   3.705  10.851  1.2197 -1.8240  0.2089
 6159TIP3   OH242671   1.816   2.787   8.772 -0.0935  0.0982  0.1113
 6159TIP3    H142672   1.856   2.726   8.711 -1.3845  0.6923 -1.4007
 6159TIP3    H242673   1.879   2.858   8.781 -1.0557  1.5340 -3.0442
 6160TIP3   OH242674   2.779   1.684   9.553  0.2971  0.1582 -0.4901
 6160TIP3    H142675   2.766   1.590   9.553  1.7643 -0.1280 -2.3876
 6160TIP3    H242676   2.709   1.719   9.608 -1.3484 -1.8928 -1.1596
 6161TIP3   OH242677   1.277   1.044   8.799  0.2833 -0.0158  0.8103
 6161TIP3    H142678   1.232   0.967   8.833  0.2734 -0.3200  0.1274
 6161TIP3    H242679   1.214   1.085   8.740  0.3052  0.4917  1.1385
 6162TIP3   OH242680   5.997   0.065  11.277  0.3944 -0.4402  0.0909
 6162TIP3    H142681   5.903   0.062  11.256  1.0096 -0.4666 -3.1708
 6162TIP3    H242682   6.028  -0.023  11.257  1.6154  0.4107 -2.0702
 6163TIP3   OH242683   1.693   5.536   8.533 -0.4666 -0.2320  0.1480
 6163TIP3    H142684   1.635   5.465   8.559  0.3186 -0.9337  0.0312
 6163TIP3    H242685   1.655   5.614   8.574 -0.6035 -0.9264  1.4149
 6164TIP3   OH242686   4.902   1.562  10.565  0.3267  0.5116  0.8352
 6164TIP3    H142687   4.912   1.467  10.554 -0.2800  0.1277  3.0924
 6164TIP3    H242688   4.810   1.573  10.586  0.5013  1.5617  1.0601
 6165TIP3   OH242689   1.367   4.753  10.113 -0.3071  0.2483 -0.0037
 6165TIP3    H142690   1.459   4.732  10.128 -0.4620 -0.3135  0.1662
 6165TIP3    H242691   1.332   4.774  10.200 -0.8808 -1.7350  0.2987
 6166TIP3   OH242692   0.521   4.480  10.033 -0.0288  0.1737  0.3945
 6166TIP3    H142693   0.480   4.558   9.996 -0.8804 -0.0180  0.9209
 6166TIP3    H242694   0.456   4.411  10.022  0.4349 -0.3009  0.5853
 6167TIP3   OH242695   2.596   2.721   9.143  0.1044  0.4367 -0.3365
 6167TIP3    H142696   2.627   2.651   9.201 -1.2291  1.5364  1.8059
 6167TIP3    H242697   2.548   2.674   9.074 -0.3786 -0.8170  0.7999
 6168TIP3   OH242698   5.848   2.964  10.722 -0.1412  0.4030 -0.2116
 6168TIP3    H142699   5.780   2.917  10.673 -1.7505  0.3895  1.9008
 6168TIP3    H242700   5.849   3.052  10.684  0.0531 -0.1433 -1.5272
 6169TIP3   OH242701   2.890   0.336  18.018 -0.4266 -0.0920  0.2408
 6169TIP3    H142702   2.927   0.361  18.103 -0.5382 -1.1748  0.6194
 6169TIP3    H242703   2.883   0.418  17.970 -0.5380  0.5590  1.3467
 6170TIP3   OH242704   5.165   2.917   9.968  0.3340  0.2028  0.1374
 6170TIP3    H142705   5.226   2.858   9.924 -0.5560 -0.1704 -0.6550
 6170TIP3    H242706   5.089   2.920   9.909 -0.8110 -0.1139  1.5377
 6171TIP3   OH242707   2.656   3.773  12.231 -0.1143  0.6080  0.1020
 6171TIP3    H142708   2.738   3.822  12.237 -0.3982  1.6547 -2.7116
 6171TIP3    H242709   2.674   3.704  12.167 -1.6032  1.3928 -1.2343
 6172TIP3   OH242710   3.072   2.219   9.536  0.1518 -0.0108 -0.2893
 6172TIP3    H142711   3.071   2.264   9.620  1.0888 -1.3743  0.4646
 6172TIP3    H242712   3.051   2.128   9.556  0.7785 -0.4373 -1.4767
 6173TIP3   OH242713   4.231   2.032  11.013 -0.0870  0.0845  0.2092
 6173TIP3    H142714   4.204   2.097  10.948 -2.8960  0.8990  1.9710
 6173TIP3    H242715   4.261   2.084  11.087  0.1816 -0.7264  0.6712
 6174TIP3   OH242716   4.663   6.612   9.811  0.2133 -0.4422 -0.1734
 6174TIP3    H142717   4.728   6.673   9.847 -0.0759 -0.4462  0.3681
 6174TIP3    H242718   4.710   6.564   9.743  0.5300  0.1712 -0.3955
 6175TIP3   OH242719   2.685   6.219  10.291  0.0392  0.3059 -0.4526
 6175TIP3    H142720   2.635   6.300  10.282 -1.3822 -0.1105  2.3367
 6175TIP3    H242721   2.623   6.149  10.269 -0.1248 -0.1313  1.1937
 6176TIP3   OH242722   4.382   5.180   8.674  0.0582  0.6770  0.1181
 6176TIP3    H142723   4.340   5.094   8.670  1.8059 -0.1608 -1.1128
 6176TIP3    H242724   4.313   5.238   8.708 -1.3296 -1.0747  0.4589
 6177TIP3   OH242725   2.668   1.783  11.321  0.0564  0.0444 -0.3203
 6177TIP3    H142726   2.645   1.848  11.387 -0.1263  0.6487 -0.9563
 6177TIP3    H242727   2.584   1.762  11.279  0.3627  0.8550 -1.4023
 6178TIP3   OH242728   4.758   5.412  11.079  0.0265 -0.5757  0.8845
 6178TIP3    H142729   4.753   5.330  11.128  0.5032 -0.6754  0.7645
 6178TIP3    H242730   4.687   5.406  11.016  0.4300 -1.1550  0.4809
 6179TIP3   OH242731   5.556   3.368   9.644 -0.2189 -0.5308  0.0779
 6179TIP3    H142732   5.477   3.342   9.597  0.1834  1.2492 -1.6832
 6179TIP3    H242733   5.607   3.287   9.651 -1.3974 -1.3306 -0.3191
 6180TIP3   OH242734   5.294   6.190  11.075  0.3045 -0.2366  0.2796
 6180TIP3    H142735   5.301   6.095  11.062 -1.4393 -0.2717 -0.6718
 6180TIP3    H242736   5.306   6.226  10.987 -1.1300  0.2604  0.2653
 6181TIP3   OH242737   6.273   5.231  10.302  0.2670  0.0468 -0.3590
 6181TIP3    H142738   6.278   5.323  10.328  1.5467 -0.5001  1.6092
 6181TIP3    H242739   6.309   5.229  10.213  2.1135  1.2341  0.2874
 6182TIP3   OH242740   0.608   0.294  12.357 -0.4875 -0.3111  0.0110
 6182TIP3    H142741   0.543   0.236  12.396 -1.2072  1.0903  0.9931
 6182TIP3    H242742   0.606   0.372  12.412  0.2052  0.7770 -1.4446
 6183TIP3   OH242743   0.878   3.673  11.079 -0.9033  0.0661 -0.1992
 6183TIP3    H142744   0.907   3.582  11.081 -0.3455  0.2471  0.7193
 6183TIP3    H242745   0.861   3.695  11.171 -2.5377  0.4254 -0.5527
 6184TIP3   OH242746   5.111   4.540  10.557 -0.1841 -0.3399 -0.4665
 6184TIP3    H142747   5.065   4.509  10.478 -0.5669 -0.2303 -0.2894
 6184TIP3    H242748   5.187   4.482  10.564 -0.2154 -0.4334 -0.8457
 6185TIP3   OH242749   5.137   2.486   9.716 -0.7704  0.6274 -0.3291
 6185TIP3    H142750   5.203   2.550   9.742  0.6136  0.5341 -3.1736
 6185TIP3    H242751   5.172   2.402   9.745 -0.6509  0.7841 -0.0214
 6186TIP3   OH242752   3.064   1.595   9.734  0.3914  0.1417  0.1129
 6186TIP3    H142753   3.024   1.581   9.820  2.1772 -1.1712  0.7783
 6186TIP3    H242754   3.033   1.522   9.680  1.7567 -0.8240  0.6021
 6187TIP3   OH242755   3.470   5.348  10.656  0.1836  0.6718 -0.5339
 6187TIP3    H142756   3.437   5.258  10.649 -2.2060  1.5575 -1.6584
 6187TIP3    H242757   3.516   5.350  10.740  0.0102 -1.4991 -0.3261
 6188TIP3   OH242758   3.640   3.254  11.139 -0.4488  0.0755  0.2169
 6188TIP3    H142759   3.553   3.218  11.122 -0.5605  0.0958  0.7349
 6188TIP3    H242760   3.645   3.332  11.084 -0.6015 -0.1517 -0.1233
 6189TIP3   OH242761   1.858   6.408  10.693 -0.1462 -0.4226  0.6850
 6189TIP3    H142762   1.772   6.413  10.734 -1.0446  0.5131 -1.1547
 6189TIP3    H242763   1.917   6.454  10.753 -1.0027 -0.6822  1.7537
 6190TIP3   OH242764   3.517   5.912   8.815 -0.2713  0.4240 -0.0606
 6190TIP3    H142765   3.565   5.988   8.848  0.2831  1.5261 -3.0855
 6190TIP3    H242766   3.429   5.945   8.796 -0.3885  0.0064 -0.2668
 6191TIP3   OH242767   2.216   0.290   9.420 -0.0622  0.0929 -0.7448
 6191TIP3    H142768   2.124   0.276   9.442 -0.0098 -1.2577 -1.2762
 6191TIP3    H242769   2.214   0.334   9.335 -0.2358 -1.0798 -1.3717
 6192TIP3   OH242770   2.100   6.691  10.344  0.7818 -0.3489 -0.1695
 6192TIP3    H142771   2.016   6.666  10.382 -0.5610  1.1240 -1.9771
 6192TIP3    H242772   2.088   6.781  10.316  2.1097 -0.8710 -2.7093
 6193TIP3   OH242773   0.235   1.083  10.388  0.1130 -0.4349  0.3016
 6193TIP3    H142774   0.274   1.101  10.473 -0.1500  1.7377  0.0169
 6193TIP3    H242775   0.294   1.019  10.348  1.1109 -0.2860  1.4785
 6194TIP3   OH242776   3.051   3.290  10.083  0.2267  0.2096 -0.2692
 6194TIP3    H142777   3.141   3.256  10.081  0.5805  1.0455 -2.8393
 6194TIP3    H242778   2.997   3.215  10.057  0.1807 -0.1897  0.9057
 6195TIP3   OH242779   4.720   2.819   9.275 -0.6097  0.6269  0.0286
 6195TIP3    H142780   4.805   2.788   9.306 -0.0957 -1.2092 -2.8041
 6195TIP3    H242781   4.719   2.913   9.297  0.8746  0.1512  2.5947
 6196TIP3   OH242782   6.598   5.418  10.777 -0.2974 -0.8943 -0.0472
 6196TIP3    H142783   6.573   5.326  10.788  2.0951 -1.4958  1.1003
 6196TIP3    H242784   6.669   5.416  10.712 -1.8483  0.4949 -1.8982
 6197TIP3   OH242785   2.166   4.804   9.178  0.2501  0.3848 -0.0112
 6197TIP3    H142786   2.099   4.804   9.247  0.4002 -1.4661  0.1895
 6197TIP3    H242787   2.181   4.897   9.159 -1.8111  0.8813  0.4796
 6198TIP3   OH242788   5.481   0.240   9.723  0.6439  0.1958  0.3479
 6198TIP3    H142789   5.478   0.329   9.759 -0.5100  0.1562  0.3799
 6198TIP3    H242790   5.575   0.221   9.716  0.9174  1.5688 -0.0542
 6199TIP3   OH242791   0.775   3.631   9.827 -0.3435  0.6170 -0.5167
 6199TIP3    H142792   0.694   3.580   9.826 -1.3594  1.9217  2.4728
 6199TIP3    H242793   0.766   3.687   9.904  3.1493  1.2923 -0.4618
 6200TIP3   OH242794   3.749   4.226  11.665 -0.6665  0.3791 -0.4681
 6200TIP3    H142795   3.732   4.265  11.579 -1.4507  0.9566 -0.0717
 6200TIP3    H242796   3.743   4.132  11.651 -2.2257  0.4947 -0.7888
 6201TIP3   OH242797   0.564   1.889   9.012  0.3587 -0.3864  0.2819
 6201TIP3    H142798   0.499   1.828   9.046 -2.8342  1.8870 -1.1931
 6201TIP3    H242799   0.562   1.875   8.917 -1.3327  2.5400 -0.2534
 6202TIP3   OH242800   3.574   4.118   9.126  0.4059 -0.0846 -0.4654
 6202TIP3    H142801   3.570   4.098   9.219 -1.9079 -0.9998 -0.6814
 6202TIP3    H242802   3.538   4.040   9.083  0.4886  0.7020 -2.0457
 6203TIP3   OH242803   2.523   6.033  10.182 -0.1663 -0.1238 -0.1781
 6203TIP3    H142804   2.506   5.942  10.207 -4.2893  0.2900 -0.7986
 6203TIP3    H242805   2.486   6.041  10.094  0.9795  1.9636 -0.5270
 6204TIP3   OH242806   3.701   6.486   9.300 -0.3857  0.1620  0.1663
 6204TIP3    H142807   3.637   6.502   9.231 -0.5593  1.6144  0.6430
 6204TIP3    H242808   3.721   6.572   9.336  2.1130 -0.2107 -0.1841
 6205TIP3   OH242809   5.419   6.302  10.870  0.8190 -0.0993 -0.2342
 6205TIP3    H142810   5.388   6.268  10.786 -0.9457  0.7996  0.0074
 6205TIP3    H242811   5.385   6.391  10.874 -0.0596 -0.4625  1.8915
 6206TIP3   OH242812   5.356   2.278  11.947 -0.0343  0.5823 -0.1030
 6206TIP3    H142813   5.274   2.296  11.993 -0.5348 -0.0662 -0.7267
 6206TIP3    H242814   5.386   2.364  11.916 -0.4979  0.8139  0.0818
 6207TIP3   OH242815   4.333   6.505   9.173 -0.6646 -0.1093 -0.3551
 6207TIP3    H142816   4.393   6.458   9.114 -0.8272 -0.3997 -0.2959
 6207TIP3    H242817   4.382   6.516   9.254 -0.9946 -1.1432 -0.0005
 6208TIP3   OH242818   6.323   1.865  10.500 -0.5416  0.0606  0.0668
 6208TIP3    H142819   6.339   1.939  10.559 -0.8122  1.6658 -1.7843
 6208TIP3    H242820   6.391   1.872  10.434 -0.7635 -1.1785 -0.3031
 6209TIP3   OH242821   5.247   4.526   9.908 -0.4362  0.4782  0.0636
 6209TIP3    H142822   5.309   4.587   9.949  0.2142 -0.6847  0.8444
 6209TIP3    H242823   5.281   4.439   9.929 -2.9138 -0.2381  1.4759
 6210TIP3   OH242824   6.452   0.517   9.061  0.0706  0.7024  0.0856
 6210TIP3    H142825   6.500   0.484   8.985 -0.8288 -1.0287  0.2233
 6210TIP3    H242826   6.467   0.452   9.129 -1.5796  0.6715  0.4574
 6211TIP3   OH242827   1.198   1.415  11.639  0.1224 -0.4109  0.0236
 6211TIP3    H142828   1.284   1.425  11.599  0.3837 -0.4640  0.5527
 6211TIP3    H242829   1.172   1.325  11.620 -1.0262  0.3582 -2.4339
 6212TIP3   OH242830   5.709   4.087   9.916 -0.0540  0.2417 -0.4641
 6212TIP3    H142831   5.657   4.085   9.997 -2.3208  0.0328 -1.8456
 6212TIP3    H242832   5.654   4.134   9.853  0.4446 -1.8928 -2.6441
 6213TIP3   OH242833   5.326   5.481  11.109 -0.2710  0.6480  0.1230
 6213TIP3    H142834   5.292   5.539  11.178 -1.5802  0.9612 -0.7661
 6213TIP3    H242835   5.282   5.398  11.123  1.2009 -0.0263  1.0553
 6214TIP3   OH242836   6.145   3.092   9.425 -0.3239 -0.6596 -0.4435
 6214TIP3    H142837   6.136   3.102   9.520 -1.8884 -1.1434 -0.5080
 6214TIP3    H242838   6.206   3.019   9.415  1.8213  0.9451  0.1189
 6215TIP3   OH242839   1.129   0.558  10.260  0.7063  0.8735 -0.5491
 6215TIP3    H142840   1.066   0.526  10.324  2.3192  0.5257  0.9350
 6215TIP3    H242841   1.083   0.553  10.176 -0.7195 -0.8044  0.2762
 6216TIP3   OH242842   5.851   3.222  10.637 -0.0311 -0.2920 -0.3860
 6216TIP3    H142843   5.866   3.259  10.550  3.3768  1.3635  0.7340
 6216TIP3    H242844   5.865   3.294  10.697 -1.2407 -1.6455  1.6469
 6217TIP3   OH242845   3.976   6.111  11.583 -0.4035  0.0344  0.7728
 6217TIP3    H142846   4.008   6.054  11.513  1.2725  3.7735 -1.8049
 6217TIP3    H242847   3.882   6.121  11.564 -0.5760 -1.1954  0.8584
 6218TIP3   OH242848   1.059   4.455   8.636  0.1762 -0.2388 -0.1269
 6218TIP3    H142849   1.150   4.450   8.606 -0.7024 -1.3407 -2.9671
 6218TIP3    H242850   1.038   4.366   8.664 -0.2737 -0.1747 -0.2549
 6219TIP3   OH242851   2.207   6.386   8.493  0.0357 -0.2159  0.5340
 6219TIP3    H142852   2.223   6.329   8.568 -0.8766  0.2271  1.1002
 6219TIP3    H242853   2.179   6.328   8.423 -0.4130 -0.5251  0.9581
 6220TIP3   OH242854   4.646   1.689  10.187  0.0032  0.5018 -0.2712
 6220TIP3    H142855   4.704   1.655  10.118  0.3450 -0.3885  0.4209
 6220TIP3    H242856   4.699   1.755  10.232  0.6403 -0.5440  0.5691
 6221TIP3   OH242857   3.083   1.699  11.340 -0.0284 -0.2705 -0.3647
 6221TIP3    H142858   3.008   1.664  11.291  0.5621 -1.5242 -0.4025
 6221TIP3    H242859   3.134   1.746  11.274 -0.9835  0.9800 -0.2564
 6222TIP3   OH242860   1.793   2.829   9.250  0.4142  0.0064  0.3994
 6222TIP3    H142861   1.863   2.869   9.198 -0.0210  1.4224  0.8562
 6222TIP3    H242862   1.745   2.775   9.187  0.2840  1.1783 -0.5455
 6223TIP3   OH242863   4.766   2.184  11.188 -0.0679 -0.2153 -0.3496
 6223TIP3    H142864   4.856   2.214  11.177  0.9506 -2.7086  0.4330
 6223TIP3    H242865   4.748   2.131  11.110 -1.6654  1.8784 -1.5073
 6224TIP3   OH242866   5.194   0.576   9.662  0.6323  0.2267  0.6003
 6224TIP3    H142867   5.106   0.537   9.664 -0.8684  3.2692  0.0851
 6224TIP3    H242868   5.204   0.616   9.748  1.6817 -0.2984  0.7432
 6225TIP3   OH242869   2.246   0.878  10.337  0.0158  0.6092 -0.4794
 6225TIP3    H142870   2.164   0.902  10.295  0.0870 -0.1396 -1.0660
 6225TIP3    H242871   2.307   0.865  10.265  1.0244  2.3662 -0.0269
 6226TIP3   OH242872   0.900   2.684  11.259  0.7002  0.3895  0.1154
 6226TIP3    H142873   0.934   2.600  11.290  0.0546 -0.1560 -0.6040
 6226TIP3    H242874   0.821   2.699  11.311  2.3406  2.0421  2.3473
 6227TIP3   OH242875   3.748   2.244  10.306 -0.1366 -0.0165 -0.1065
 6227TIP3    H142876   3.772   2.306  10.237 -2.0672  0.5746 -0.3000
 6227TIP3    H242877   3.806   2.169  10.292  0.7176  0.8173 -1.2536
 6228TIP3   OH242878   1.053   1.893  10.238  0.3373  0.4284 -0.3040
 6228TIP3    H142879   1.046   1.826  10.170  0.1007 -0.3312  0.4577
 6228TIP3    H242880   1.132   1.943  10.214  1.8326 -1.5150  0.3094
 6229TIP3   OH242881   0.737   0.429   8.622 -0.6533 -0.0694  0.0925
 6229TIP3    H142882   0.772   0.478   8.696  1.8257 -1.7850  0.1737
 6229TIP3    H242883   0.801   0.443   8.552 -2.8278  1.3521 -1.7786
 6230TIP3   OH242884   0.102   5.446   9.638  0.2813  1.0844 -0.4245
 6230TIP3    H142885   0.155   5.366   9.630 -1.9119 -0.4836 -0.1442
 6230TIP3    H242886   0.127   5.499   9.562  0.0317 -0.9731 -2.0326
 6231TIP3   OH242887   1.279   3.038  11.341  0.1361  0.2550 -0.1760
 6231TIP3    H142888   1.215   3.033  11.411  0.2919  1.2825  0.0600
 6231TIP3    H242889   1.350   3.091  11.377 -0.5443  2.3035 -1.6559
 6232TIP3   OH242890   1.860   2.839  11.251  0.1923 -0.3335  0.7301
 6232TIP3    H142891   1.827   2.833  11.162  0.1624  0.2494  0.6997
 6232TIP3    H242892   1.940   2.786  11.251  1.2639  1.1848 -0.1521
 6233TIP3   OH242893   5.321   5.542  11.877 -0.5818  0.1876 -0.0111
 6233TIP3    H142894   5.354   5.558  11.966  0.7032  0.7725 -0.5741
 6233TIP3    H242895   5.336   5.449  11.862 -0.6658  0.1171  0.3149
 6234TIP3   OH242896   0.292   5.912  11.658  0.0568 -0.1149 -0.5052
 6234TIP3    H142897   0.243   5.906  11.740  0.7600  1.0326  0.0297
 6234TIP3    H242898   0.381   5.882  11.681  0.3922  0.7046 -0.7024
 6235TIP3   OH242899   3.767   0.763   9.082 -0.4373 -0.1000 -0.2276
 6235TIP3    H142900   3.681   0.786   9.046 -0.3762 -0.1477 -0.4079
 6235TIP3    H242901   3.829   0.802   9.020 -0.3102  1.0474  0.5815
 6236TIP3   OH242902   6.297   4.575   9.985 -0.4788 -0.3753 -0.0593
 6236TIP3    H142903   6.382   4.594   9.945  0.3250 -1.6489  0.9725
 6236TIP3    H242904   6.233   4.616   9.926  0.9269  2.6918  0.3718
 6237TIP3   OH242905   0.449   3.141  10.776  0.1060 -0.5511 -0.0911
 6237TIP3    H142906   0.449   3.184  10.691 -0.5439  0.6494  0.5020
 6237TIP3    H242907   0.370   3.087  10.776  0.4915 -1.1408 -0.5105
 6238TIP3   OH242908   3.460   2.857  11.799  0.3157  0.2932 -0.1922
 6238TIP3    H142909   3.442   2.888  11.888 -1.4460  1.0849 -0.7678
 6238TIP3    H242910   3.477   2.936  11.749  2.6211 -0.2412 -0.3378
 6239TIP3   OH242911   3.822   5.658   9.561  0.2446  0.1149 -0.2505
 6239TIP3    H142912   3.895   5.701   9.607  0.3906 -0.1812 -0.1975
 6239TIP3    H242913   3.751   5.722   9.563  0.8651  0.8594 -1.3237
 6240TIP3   OH242914   1.287   6.139   8.549 -1.0895  0.3329 -0.4632
 6240TIP3    H142915   1.266   6.099   8.634 -0.4503 -0.8245 -0.8270
 6240TIP3    H242916   1.213   6.117   8.493 -1.2454  0.5938 -0.3555
 6241TIP3   OH242917   3.157   2.199   8.611 -0.1349 -0.6404  0.2179
 6241TIP3    H142918   3.243   2.221   8.577 -0.8268  0.2988 -0.9760
 6241TIP3    H242919   3.174   2.162   8.698  1.6790 -3.0611 -1.0640
 6242TIP3   OH242920   0.931   5.050   9.030  0.4732 -0.2935 -0.5048
 6242TIP3    H142921   0.940   5.054   9.126 -0.3769 -1.7314 -0.3410
 6242TIP3    H242922   1.020   5.042   8.997  0.7556 -0.0411  0.1836
 6243TIP3   OH242923   1.263   2.168  11.419  0.0956 -0.3722 -0.3361
 6243TIP3    H142924   1.250   2.087  11.371 -0.2528 -0.9697  0.7263
 6243TIP3    H242925   1.194   2.168  11.485  0.3282  0.6015 -0.0741
 6244TIP3   OH242926   1.786   6.041   8.899  0.5126  0.1266  0.0946
 6244TIP3    H142927   1.796   6.070   8.808  1.2790 -0.5002 -0.0294
 6244TIP3    H242928   1.695   6.062   8.921  0.0775 -0.4634 -1.0882
 6245TIP3   OH242929   3.170   0.673  11.105  0.0792 -0.1940  0.4554
 6245TIP3    H142930   3.074   0.677  11.111  0.1180 -0.6201  1.6421
 6245TIP3    H242931   3.192   0.737  11.038 -0.9867  0.6778  0.8931
 6246TIP3   OH242932   3.042   0.993  11.649  0.0289 -0.0233  0.1116
 6246TIP3    H142933   3.063   0.906  11.616 -2.3264 -0.1517 -1.3010
 6246TIP3    H242934   3.115   1.016  11.706  0.7710 -2.8463  0.4229
 6247TIP3   OH242935   1.794   6.524   9.335  0.2883 -0.3030  0.1903
 6247TIP3    H142936   1.846   6.603   9.324  0.9701 -0.6192  1.0389
 6247TIP3    H242937   1.839   6.475   9.404  0.9928 -2.3312 -1.5853
 6248TIP3   OH242938   3.735   3.099  10.849 -0.1597 -0.1696 -0.0809
 6248TIP3    H142939   3.805   3.033  10.843  3.3047  3.0373  1.0984
 6248TIP3    H242940   3.781   3.183  10.851 -4.2176  2.3476 -0.5492
 6249TIP3   OH242941   6.050   4.379  10.890 -0.1211 -0.5410  0.3235
 6249TIP3    H142942   6.075   4.452  10.946  1.7278 -0.9426  0.0910
 6249TIP3    H242943   5.961   4.400  10.861 -0.6994  0.2112  2.4880
 6250TIP3   OH242944   0.315   4.375   9.670 -0.4446  0.0271 -0.0957
 6250TIP3    H142945   0.269   4.421   9.740  0.1898 -0.3423  0.5794
 6250TIP3    H242946   0.335   4.289   9.707  0.1059 -0.0865 -0.6445
 6251TIP3   OH242947   2.511   1.317   9.741  0.6056  0.0117  0.0944
 6251TIP3    H142948   2.490   1.352   9.827  0.1838 -0.6488  0.2603
 6251TIP3    H242949   2.556   1.235   9.758 -1.0350 -1.0058 -0.3173
 6252TIP3   OH242950   6.116   3.134   8.930 -0.5709 -0.1782 -0.0517
 6252TIP3    H142951   6.102   3.134   9.025 -1.2553  1.1204 -0.1310
 6252TIP3    H242952   6.115   3.041   8.906 -2.4148 -0.4659  0.9312
 6253TIP3   OH242953   3.485   1.762   9.782  0.6603  0.6554 -0.0613
 6253TIP3    H142954   3.431   1.770   9.861  1.4433 -2.7798  1.0256
 6253TIP3    H242955   3.573   1.783   9.811  0.9575 -0.6624  0.0430
 6254TIP3   OH242956   1.766   5.519   9.031  0.1637  0.1462  0.6014
 6254TIP3    H142957   1.747   5.563   9.114  0.3142 -0.1865  0.8196
 6254TIP3    H242958   1.791   5.589   8.971 -1.4945  0.5849  0.3688
 6255TIP3   OH242959   2.836   3.386   8.961 -0.4596 -0.2529 -0.4840
 6255TIP3    H142960   2.837   3.313   8.900  1.1580 -0.4022 -0.3167
 6255TIP3    H242961   2.792   3.352   9.039  2.0800 -1.7855  0.3955
 6256TIP3   OH242962   6.427   5.020   9.856  0.2826 -0.5055 -0.1378
 6256TIP3    H142963   6.390   4.966   9.786  2.0139  1.2231 -2.5289
 6256TIP3    H242964   6.520   4.998   9.858  0.6804  1.0794  0.0523
 6257TIP3   OH242965   0.215   5.017   9.350 -0.4700 -0.2467  0.6708
 6257TIP3    H142966   0.191   4.990   9.261  1.7421 -1.4374  0.3588
 6257TIP3    H242967   0.155   4.969   9.407 -0.5334 -1.1504 -0.1233
 6258TIP3   OH242968   1.896   1.218  10.661  0.0597  0.4511 -0.0517
 6258TIP3    H142969   1.836   1.220  10.586  0.0258  2.1060 -0.0160
 6258TIP3    H242970   1.844   1.181  10.732 -0.7709  1.3759 -0.1599
 6259TIP3   OH242971   1.527   4.563   9.042 -0.2004 -0.1202 -0.2506
 6259TIP3    H142972   1.462   4.630   9.063 -0.0911 -0.4953  1.4975
 6259TIP3    H242973   1.478   4.481   9.043  0.0138 -0.2517 -0.4480
 6260TIP3   OH242974   5.429   3.666   8.915 -0.0474 -0.3043 -0.0881
 6260TIP3    H142975   5.477   3.643   8.994  2.4800  1.7014 -0.9131
 6260TIP3    H242976   5.489   3.647   8.843 -1.6025 -0.3821 -1.4371
 6261TIP3   OH242977   4.841   4.297  11.866 -0.0277 -0.2901 -0.2151
 6261TIP3    H142978   4.815   4.368  11.925 -0.3695  1.5859 -2.5012
 6261TIP3    H242979   4.804   4.219  11.906 -0.7012  0.9633  1.7671
 6262TIP3   OH242980   3.369   5.426  11.113  0.1187 -0.2818 -0.3842
 6262TIP3    H142981   3.429   5.501  11.104  0.3486 -0.5308 -0.9297
 6262TIP3    H242982   3.327   5.418  11.027 -2.1794  1.1131  0.5123
 6263TIP3   OH242983   3.697   0.530  10.362 -0.1582 -0.2859 -0.3424
 6263TIP3    H142984   3.618   0.523  10.414 -1.4174 -1.7061 -2.3095
 6263TIP3    H242985   3.692   0.617  10.321  0.4610  0.5207  1.1908
 6264TIP3   OH242986   2.124   0.380  10.672  0.8096  0.1056 -0.1751
 6264TIP3    H142987   2.087   0.386  10.584 -0.9125  0.6237  0.5591
 6264TIP3    H242988   2.164   0.292  10.675  2.3680  0.6824 -1.9779
 6265TIP3   OH242989   5.143   0.767   9.865 -0.0769 -0.0615  0.2968
 6265TIP3    H142990   5.050   0.752   9.878 -0.0903 -1.0303 -0.7242
 6265TIP3    H242991   5.163   0.844   9.918 -1.2422 -0.4223  1.2995
 6266TIP3   OH242992   2.077   1.902  10.530 -0.6784  0.7113 -0.5037
 6266TIP3    H142993   2.061   1.948  10.448 -0.9053  2.9210  0.6915
 6266TIP3    H242994   1.992   1.868  10.556 -0.5692 -0.1658 -1.2431
 6267TIP3   OH242995   0.554   0.878  12.343 -0.0643  0.2230  0.0859
 6267TIP3    H142996   0.632   0.833  12.372  0.0974  0.0780 -0.5646
 6267TIP3    H242997   0.488   0.857  12.409  0.5054  0.5599  0.7774
 6268TIP3   OH242998   4.413   4.895   9.716  0.2607  0.2051  0.3377
 6268TIP3    H142999   4.454   4.933   9.638  1.7635 -0.3992  0.7957
 6268TIP3    H243000   4.374   4.970   9.761 -2.9330  0.3047 -2.1997
 6269TIP3   OH243001   4.644   3.404  11.271  0.2803 -0.2386 -0.4772
 6269TIP3    H143002   4.609   3.472  11.214 -0.2221 -0.1672 -0.0813
 6269TIP3    H243003   4.709   3.448  11.325 -0.3297  0.0083  0.0546
 6270TIP3   OH243004   1.102   1.370  10.430 -0.5178  0.0740  0.0323
 6270TIP3    H143005   1.173   1.312  10.402 -0.9226 -0.5754  0.3408
 6270TIP3    H243006   1.126   1.396  10.519 -1.1298 -0.9081  0.4986
 6271TIP3   OH243007   2.154   1.423   9.457 -0.1093 -0.1355  0.2695
 6271TIP3    H143008   2.080   1.425   9.397 -0.9588  0.5444  1.3046
 6271TIP3    H243009   2.208   1.498   9.432  0.5821 -0.9915 -0.8861
 6272TIP3   OH243010   1.480   3.433   9.014 -0.4885 -0.5162  0.0082
 6272TIP3    H143011   1.402   3.386   8.984 -1.1255 -0.0374  0.8527
 6272TIP3    H243012   1.447   3.493   9.080  0.7230 -0.8334  0.9283
 6273TIP3   OH243013   5.076   6.174  10.489 -0.3019 -0.4220 -0.3297
 6273TIP3    H143014   4.989   6.197  10.521 -0.0051 -1.3649  1.2761
 6273TIP3    H243015   5.136   6.229  10.541  0.1704 -1.6605  0.4761
 6274TIP3   OH243016   4.739   5.788  10.562 -0.0607 -0.0250  0.2878
 6274TIP3    H143017   4.790   5.807  10.484 -0.3730  0.3146  0.1631
 6274TIP3    H243018   4.663   5.740  10.530  1.1073 -2.2808  0.6838
 6275TIP3   OH243019   2.201   5.629  11.434 -0.3674  0.0219 -0.6372
 6275TIP3    H143020   2.149   5.610  11.512  0.8089  1.6274  0.6207
 6275TIP3    H243021   2.139   5.669  11.373 -1.1634 -0.5893 -0.2418
 6276TIP3   OH243022   6.285   2.353  10.311 -0.4339 -0.4692 -0.3130
 6276TIP3    H143023   6.334   2.416  10.365 -0.4686  0.8940 -1.7920
 6276TIP3    H243024   6.348   2.283  10.293 -0.8574 -1.7897  2.6928
 6277TIP3   OH243025   1.425   2.586  11.221 -0.4115  0.1949  0.2583
 6277TIP3    H143026   1.472   2.581  11.304  0.7462  0.9722 -0.3192
 6277TIP3    H243027   1.362   2.657  11.233 -0.3234  0.2294  0.5122
 6278TIP3   OH243028   0.155   2.272  10.795  0.2163 -0.2911  0.0227
 6278TIP3    H143029   0.206   2.265  10.876  1.7258 -1.6913 -0.9931
 6278TIP3    H243030   0.149   2.183  10.762 -1.5965  0.0556 -0.7149
 6279TIP3   OH243031   4.472   0.789   9.707  0.5870 -0.4748  0.3938
 6279TIP3    H143032   4.441   0.732   9.777  1.3952 -1.1482  0.2302
 6279TIP3    H243033   4.405   0.857   9.699  0.4135 -0.4638  1.7147
 6280TIP3   OH243034   2.868   4.219   9.574  0.3108  0.2301 -0.4459
 6280TIP3    H143035   2.858   4.203   9.480  1.5373  1.5134 -0.8219
 6280TIP3    H243036   2.954   4.182   9.595  1.1448  2.1111 -0.3762
 6281TIP3   OH243037   3.949   1.979   9.741  0.5275  0.5353 -0.3146
 6281TIP3    H143038   4.016   2.033   9.699  1.7309 -0.6428  0.0250
 6281TIP3    H243039   3.881   2.041   9.767  1.6314  1.8155 -0.3633
 6282TIP3   OH243040   1.552   4.585   8.672 -0.4897 -0.7816 -0.3080
 6282TIP3    H143041   1.605   4.657   8.706 -0.2307 -1.9318  1.9315
 6282TIP3    H243042   1.611   4.538   8.613  0.3700 -0.8818  0.5972
 6283TIP3   OH243043   5.801   6.138  10.108 -0.3025  0.4641  0.4532
 6283TIP3    H143044   5.712   6.173  10.119 -0.5890 -0.3447  0.8008
 6283TIP3    H243045   5.843   6.154  10.192 -0.7655 -0.8903  0.9876
 6284TIP3   OH243046   1.962   4.494  10.823  0.4399 -0.0962 -0.1818
 6284TIP3    H143047   1.969   4.401  10.801  0.3172 -0.6398  1.9056
 6284TIP3    H243048   1.868   4.508  10.833  0.5761 -0.6298  2.7238
 6285TIP3   OH243049   1.167   5.005   8.903 -0.3986  0.2883 -0.1056
 6285TIP3    H143050   1.186   4.913   8.888  1.1917  0.5030  0.3903
 6285TIP3    H243051   1.233   5.034   8.966 -0.9216  1.7447 -0.1727
 6286TIP3   OH243052   3.291   5.738  12.281 -0.5372 -0.2450  0.0755
 6286TIP3    H143053   3.219   5.684  12.312  0.6329  0.1642  3.9643
 6286TIP3    H243054   3.309   5.800  12.352  3.0982  0.2121 -0.9912
 6287TIP3   OH243055   4.738   1.252   9.604 -0.1276  0.1995  0.0115
 6287TIP3    H143056   4.760   1.169   9.646  1.2153  0.3201 -0.4023
 6287TIP3    H243057   4.746   1.235   9.510 -1.7635  0.2955 -0.1642
 6288TIP3   OH243058   6.431   3.436  11.685 -0.1294 -0.1825 -0.4311
 6288TIP3    H143059   6.448   3.474  11.771 -0.3977  0.5843 -0.7156
 6288TIP3    H243060   6.398   3.348  11.704  1.1420 -0.5438  0.2124
 6289TIP3   OH243061   3.841   1.986  10.273 -0.8968  0.3278  0.3410
 6289TIP3    H143062   3.920   1.960  10.225 -1.4029  0.3479 -0.5151
 6289TIP3    H243063   3.781   1.912  10.263  0.1276 -1.1917  3.7664
 6290TIP3   OH243064   1.754   5.413   9.491 -0.1278 -0.5819  0.0661
 6290TIP3    H143065   1.712   5.414   9.577 -1.3032 -1.7321 -0.4487
 6290TIP3    H243066   1.846   5.431   9.508 -0.6193  0.9368  1.3744
 6291TIP3   OH243067   0.065   6.458  10.978  0.3936 -0.3372  0.0094
 6291TIP3    H143068  -0.029   6.447  10.965  0.3717  0.7669 -0.9689
 6291TIP3    H243069   0.105   6.390  10.924  0.1643 -0.3337 -0.1664
 6292TIP3   OH243070   5.568   5.008  10.375 -0.0426  0.5147  0.1722
 6292TIP3    H143071   5.594   4.964  10.455 -1.1890  1.2966  1.0072
 6292TIP3    H243072   5.610   5.094  10.380 -1.0660  1.0063  0.5275
 6293TIP3   OH243073   1.125   1.247   9.173 -0.1799  0.1788 -0.4614
 6293TIP3    H143074   1.163   1.285   9.252  0.7452 -0.3399 -0.6372
 6293TIP3    H243075   1.145   1.153   9.180 -2.3918 -0.3165 -0.0423
 6294TIP3   OH243076   5.682   6.352   9.231  0.2629 -0.4206  0.2718
 6294TIP3    H143077   5.690   6.421   9.166  0.2208  1.3067  2.0329
 6294TIP3    H243078   5.772   6.322   9.245  0.3491 -0.3327 -0.0743
 6295TIP3   OH243079   4.562   2.307   9.565  0.0544  0.2862 -0.8461
 6295TIP3    H143080   4.501   2.253   9.515 -1.5059  0.6493  0.5745
 6295TIP3    H243081   4.641   2.252   9.574 -1.0873 -1.3437 -0.3542
 6296TIP3   OH243082   0.933   6.064  12.092  0.2887 -0.4093  0.4479
 6296TIP3    H143083   0.908   6.157  12.091 -0.7784 -0.6702 -0.7880
 6296TIP3    H243084   0.953   6.045  12.183  2.4420  1.5143  0.4557
 6297TIP3   OH243085   0.692   0.930   9.263 -0.6305 -0.0772 -0.0683
 6297TIP3    H143086   0.757   0.906   9.328 -1.5679 -0.6681  0.6804
 6297TIP3    H243087   0.615   0.956   9.314 -1.7462 -1.5785 -0.8943
 6298TIP3   OH243088   1.052   0.616  13.023  0.3547 -0.3052 -0.4564
 6298TIP3    H143089   1.101   0.695  13.000  1.6091 -0.1825  2.2631
 6298TIP3    H243090   1.030   0.627  13.116 -1.6692 -2.0421 -0.6393
 6299TIP3   OH243091   3.977   2.847   9.354  0.4687  0.1392  0.4528
 6299TIP3    H143092   4.005   2.817   9.440  2.6562 -0.6555 -0.4552
 6299TIP3    H243093   4.056   2.885   9.315 -0.1008 -0.7405 -1.7116
 6300TIP3   OH243094   1.784   4.168   8.797 -0.3775  0.1071  0.2877
 6300TIP3    H143095   1.839   4.208   8.864  0.9433 -1.2732  0.0925
 6300TIP3    H243096   1.800   4.219   8.718 -0.2735  0.4281  0.5166
 6301TIP3   OH243097   3.233   2.180  10.290 -0.1756 -0.0528  0.3397
 6301TIP3    H143098   3.149   2.173  10.244 -0.7793 -1.3480  1.5381
 6301TIP3    H243099   3.210   2.214  10.377  0.8449  1.6658 -0.0136
 6302TIP3   OH243100   3.561   2.298  10.920 -0.4942 -0.2740 -0.1164
 6302TIP3    H143101   3.496   2.295  10.991  0.0222 -0.8347  0.3404
 6302TIP3    H243102   3.641   2.330  10.962 -0.7597  1.6344 -0.9243
 6303TIP3   OH243103   0.803   3.897  10.445 -0.1762  0.3246  0.0228
 6303TIP3    H143104   0.740   3.830  10.416 -0.2378  0.3203  0.1688
 6303TIP3    H243105   0.792   3.902  10.539  0.9452 -0.6050  0.2320
 6304TIP3   OH243106   1.345   5.083   9.085 -0.4419 -0.2178  0.0508
 6304TIP3    H143107   1.315   5.173   9.072  0.7795  0.1259 -0.5670
 6304TIP3    H243108   1.372   5.080   9.176  2.4989  1.0373 -0.6688
 6305TIP3   OH243109   3.811   1.072   8.811  0.2605  0.2081 -0.5094
 6305TIP3    H143110   3.893   1.121   8.808  0.3721  0.0240 -0.4990
 6305TIP3    H243111   3.743   1.139   8.803  0.4237  0.1629 -2.8610
 6306TIP3   OH243112   2.374   2.537  11.646 -0.4373  0.1864 -0.1686
 6306TIP3    H143113   2.455   2.588  11.658 -0.2090 -0.4059  0.9363
 6306TIP3    H243114   2.404   2.447  11.635 -0.9573 -0.1275  0.8740
 6307TIP3   OH243115   5.182   5.820   9.122 -0.0315 -0.2769 -0.0670
 6307TIP3    H143116   5.220   5.904   9.148  2.2044 -1.2667  0.1595
 6307TIP3    H243117   5.134   5.790   9.199  1.6105 -0.5064  0.9081
 6308TIP3   OH243118   2.107   0.972  11.829 -0.3813 -0.0683  0.3971
 6308TIP3    H143119   2.107   0.976  11.924  0.3441  0.3778  0.3862
 6308TIP3    H243120   2.156   1.050  11.802  0.6638 -0.9427 -0.3077
 6309TIP3   OH243121   6.456   1.305   8.697 -0.2101 -0.0058 -0.7543
 6309TIP3    H143122   6.530   1.258   8.659  0.8083  0.7798  0.2092
 6309TIP3    H243123   6.409   1.240   8.748 -0.0617 -0.4568 -1.1903
 6310TIP3   OH243124   0.045   4.110  11.415 -0.4584  0.4535  0.1067
 6310TIP3    H143125   0.075   4.095  11.505 -0.0384  1.1779  0.0936
 6310TIP3    H243126   0.119   4.087  11.360 -0.4736  0.6810 -0.0133
 6311TIP3   OH243127   2.681   6.644  11.220  0.0379 -0.2002  0.2158
 6311TIP3    H143128   2.746   6.713  11.227 -1.4298  1.4349 -1.3278
 6311TIP3    H243129   2.709   6.578  11.284  1.7597  1.5627  1.3977
 6312TIP3   OH243130   2.443   6.712   9.470 -0.1220 -0.6550 -0.0290
 6312TIP3    H143131   2.534   6.686   9.487 -0.5683 -2.7760 -0.5653
 6312TIP3    H243132   2.450   6.792   9.419  1.3992  0.1976  1.4245
 6313TIP3   OH243133   5.125   6.152  10.810  0.0424  0.3963 -0.3258
 6313TIP3    H143134   5.214   6.132  10.782 -0.6078 -0.2442 -2.0674
 6313TIP3    H243135   5.071   6.084  10.771 -1.3985  1.6211 -0.5855
 6314TIP3   OH243136   4.050   6.514   9.428  0.5929 -0.1718 -0.3826
 6314TIP3    H143137   4.098   6.596   9.416 -1.0667  0.6930 -1.5734
 6314TIP3    H243138   4.058   6.469   9.344 -0.6025 -0.0443 -0.5751
 6315TIP3   OH243139   3.954   3.801  11.546  0.2881 -0.0712  0.0751
 6315TIP3    H143140   3.959   3.864  11.474  0.0249 -0.8015 -0.5971
 6315TIP3    H243141   3.903   3.728  11.510 -2.6788  0.8663  1.9703
 6316TIP3   OH243142   2.819   2.067   9.212 -0.1253  0.1094  0.7564
 6316TIP3    H143143   2.876   2.014   9.268  0.9208  0.0141 -0.3644
 6316TIP3    H243144   2.865   2.072   9.128 -1.2860  0.9022  0.1363
 6317TIP3   OH243145   6.301   1.518   8.798  0.3516  0.0164 -0.3038
 6317TIP3    H143146   6.247   1.557   8.730 -0.5371 -1.2365 -0.3448
 6317TIP3    H243147   6.344   1.443   8.756  0.8113 -0.0028  0.1776
 6318TIP3   OH243148   4.070   2.769   8.903  0.3252  0.3443 -0.0378
 6318TIP3    H143149   4.032   2.681   8.897  0.2341  0.2999  1.0177
 6318TIP3    H243150   4.013   2.816   8.963  1.1187  0.7232  0.4329
 6319TIP3   OH243151   4.539   5.401   9.146 -0.1971  0.1614 -0.5853
 6319TIP3    H143152   4.496   5.449   9.217 -1.2270 -0.9973 -0.3826
 6319TIP3    H243153   4.577   5.469   9.091 -0.3121  1.1310  0.4923
 6320TIP3   OH243154   3.282   5.542  10.539 -0.4505  0.1400 -0.3529
 6320TIP3    H143155   3.355   5.482  10.554 -0.4781  0.3001  0.4445
 6320TIP3    H243156   3.205   5.485  10.537 -0.5395  0.1858  0.9401
 6321TIP3   OH243157   2.750   6.176   9.980  0.1136  0.3943  0.1129
 6321TIP3    H143158   2.710   6.186  10.067  0.7858  0.4157  0.4235
 6321TIP3    H243159   2.830   6.126   9.996  0.6383  1.0697 -0.3864
 6322TIP3   OH243160   4.130   3.514  10.459 -0.3036 -0.3400  0.5706
 6322TIP3    H143161   4.141   3.599  10.416  0.0650 -0.6969 -0.0628
 6322TIP3    H243162   4.098   3.456  10.389  2.2566 -1.4427  0.1868
 6323TIP3   OH243163   0.313   0.382   9.408 -0.1302  0.1826  0.1249
 6323TIP3    H143164   0.381   0.407   9.345 -0.6182 -0.7855 -0.8161
 6323TIP3    H243165   0.273   0.465   9.434  0.6241  0.6650 -0.2195
 6324TIP3   OH243166   6.274   2.294   9.821 -0.3702  0.0641 -0.6135
 6324TIP3    H143167   6.241   2.339   9.899 -1.1097 -0.5490 -0.5549
 6324TIP3    H243168   6.219   2.326   9.750 -2.7361 -2.6388 -0.1655
 6325TIP3   OH243169   0.721   4.323  10.166 -0.2762  0.1823 -0.0674
 6325TIP3    H143170   0.668   4.381  10.111  0.8939  1.6169  0.2723
 6325TIP3    H243171   0.696   4.345  10.256 -0.8471 -0.8662  0.0527
 6326TIP3   OH243172   4.134   4.543  10.478  0.5588 -0.3906 -0.0194
 6326TIP3    H143173   4.106   4.451  10.470 -2.0781  0.1989  1.2506
 6326TIP3    H243174   4.091   4.587  10.405 -0.0018  0.1462  0.6123
 6327TIP3   OH243175   5.281   2.563  10.437 -0.0575  0.0161 -0.3354
 6327TIP3    H143176   5.198   2.564  10.485 -0.7638 -0.8463 -1.5079
 6327TIP3    H243177   5.305   2.655  10.431 -0.1060  0.1836  1.3738
 6328TIP3   OH243178   1.085   5.302  11.694  0.1200 -0.2424 -0.0405
 6328TIP3    H143179   1.010   5.336  11.743  0.9958 -0.5299  1.6113
 6328TIP3    H243180   1.055   5.219  11.658 -0.1193 -0.8165  1.3878
 6329TIP3   OH243181   5.187   4.109   9.777  0.0738 -0.5919 -0.3399
 6329TIP3    H143182   5.125   4.072   9.715 -0.1571 -0.6612 -0.0720
 6329TIP3    H243183   5.133   4.166   9.833  0.1421 -1.1186  0.2770
 6330TIP3   OH243184   6.373   6.464   9.865  0.1447 -0.1814 -0.3509
 6330TIP3    H143185   6.432   6.439   9.794 -0.0888 -1.4893 -0.0931
 6330TIP3    H243186   6.300   6.403   9.859  0.7643 -1.2384  1.8325
 6331TIP3   OH243187   0.592   0.842  10.540  0.0094 -0.1241 -0.1181
 6331TIP3    H143188   0.684   0.823  10.519 -0.3651 -1.5594 -0.5937
 6331TIP3    H243189   0.585   0.828  10.635 -0.1733 -2.3361 -0.3864
 6332TIP3   OH243190   4.985   6.214   8.977 -0.4762  0.1002 -0.1886
 6332TIP3    H143191   5.011   6.124   8.958  1.5298  0.6131 -0.0822
 6332TIP3    H243192   4.991   6.220   9.073  1.0223  0.7642 -0.2955
 6333TIP3   OH243193   0.056   1.672  11.059 -0.6546  0.8216  0.3328
 6333TIP3    H143194  -0.013   1.713  11.110 -0.2443  1.5760  0.2925
 6333TIP3    H243195   0.093   1.743  11.006  1.2484  0.8208  1.5536
 6334TIP3   OH243196   2.907   6.645  10.190 -0.4042 -0.1433  1.0409
 6334TIP3    H143197   2.905   6.635  10.094 -0.8249  1.2785  0.8833
 6334TIP3    H243198   2.910   6.555  10.223  0.0779 -0.6508 -0.3119
 6335TIP3   OH243199   0.157   3.940   9.961 -0.2577  0.6171  0.7211
 6335TIP3    H143200   0.099   3.917   9.889  1.3370  1.2883 -0.8587
 6335TIP3    H243201   0.114   4.013  10.005 -1.5052 -0.1492  0.7992
 6336TIP3   OH243202   2.880   0.635  12.161  0.4924 -0.3794  0.1575
 6336TIP3    H143203   2.950   0.602  12.217 -0.5191 -0.9231  1.1471
 6336TIP3    H243204   2.861   0.564  12.101 -2.2948 -2.1785  2.8538
 6337TIP3   OH243205   1.636   1.109   9.965 -0.1116  0.2926  0.0384
 6337TIP3    H143206   1.580   1.034   9.983 -1.4105  1.0307 -0.7522
 6337TIP3    H243207   1.725   1.076   9.976 -0.6760 -1.1005  0.6481
 6338TIP3   OH243208   5.841   2.471   9.055  0.1669  0.1135 -0.3786
 6338TIP3    H143209   5.860   2.435   9.142 -1.0686  0.4153  0.0385
 6338TIP3    H243210   5.782   2.544   9.072 -2.3988 -1.5161 -1.6100
 6339TIP3   OH243211   6.689   2.232   9.837 -0.4401 -0.0467 -0.6405
 6339TIP3    H143212   6.758   2.272   9.889  0.5270 -1.5853 -0.6667
 6339TIP3    H243213   6.616   2.222   9.898 -0.2290  0.5084 -0.2892
 6340TIP3   OH243214   0.642   2.528   9.644 -0.1381 -0.0586  0.2314
 6340TIP3    H143215   0.645   2.529   9.549 -2.7621  1.3083  0.0867
 6340TIP3    H243216   0.554   2.559   9.666  0.3650 -0.4005  3.1020
 6341TIP3   OH243217   6.365   5.879   9.948 -0.1198 -0.4176  0.1563
 6341TIP3    H143218   6.373   5.801  10.003  0.0392 -0.1382  0.5355
 6341TIP3    H243219   6.292   5.928   9.986  1.2477  0.7724  1.3982
 6342TIP3   OH243220   4.347   4.733   9.354  0.1047  0.3070  0.1274
 6342TIP3    H143221   4.388   4.650   9.380 -0.0831 -0.0300 -0.6257
 6342TIP3    H243222   4.376   4.748   9.264 -0.3036  0.7752  0.0663
 6343TIP3   OH243223   6.650   4.046   8.581  0.4397  0.0111  1.0346
 6343TIP3    H143224   6.668   4.031   8.674 -1.5329 -0.0747  1.4341
 6343TIP3    H243225   6.617   4.136   8.578 -1.4791 -0.6659  0.7510
 6344TIP3   OH243226   6.640   5.852  11.633  0.0101  0.0771 -0.3222
 6344TIP3    H143227   6.729   5.851  11.667  0.9927  0.8642 -2.6711
 6344TIP3    H243228   6.603   5.935  11.664  0.5478  0.3420 -0.3933
 6345TIP3   OH243229   5.544   3.160  10.267 -0.0702  0.2709 -0.1021
 6345TIP3    H143230   5.510   3.143  10.179 -0.1443  0.6015 -0.1392
 6345TIP3    H243231   5.471   3.138  10.326  0.1764 -0.5331 -0.0808
 6346TIP3   OH243232   1.425   4.543   9.354  0.1805  0.4116 -0.1709
 6346TIP3    H143233   1.474   4.517   9.433 -1.2760 -0.8325  0.3676
 6346TIP3    H243234   1.479   4.612   9.315  2.2214 -0.6714  0.5418
 6347TIP3   OH243235   2.162   6.540   9.367  0.0960  0.2315 -0.5773
 6347TIP3    H143236   2.169   6.445   9.370  1.3482  0.3200  0.7907
 6347TIP3    H243237   2.233   6.571   9.423  0.5432  2.0224 -2.0268
 6348TIP3   OH243238   4.593   4.168  11.198 -0.1406  0.2111  0.0083
 6348TIP3    H143239   4.512   4.210  11.227  1.2749  3.1748 -0.0023
 6348TIP3    H243240   4.630   4.130  11.277 -0.3882  0.9106  0.4679
 6349TIP3   OH243241   3.873   2.647  10.990  0.2727 -0.3469 -0.2107
 6349TIP3    H143242   3.804   2.630  11.054 -0.7200  2.3018 -0.4536
 6349TIP3    H243243   3.841   2.607  10.909 -2.1471  2.5758 -0.8768
 6350TIP3   OH243244   3.409   3.448   9.844  0.6699 -0.0568  0.3444
 6350TIP3    H143245   3.377   3.515   9.905  1.6485 -0.1978  1.0403
 6350TIP3    H243246   3.472   3.397   9.895  0.3761 -1.1531 -0.3458
 6351TIP3   OH243247   3.593   5.302  10.889  0.4649  0.5967 -0.2004
 6351TIP3    H143248   3.502   5.323  10.911 -0.0356  1.5173 -2.7513
 6351TIP3    H243249   3.644   5.355  10.950 -0.7309  1.3564  0.1988
 6352TIP3   OH243250   5.304   6.056   9.589  0.0709 -0.2692  0.2918
 6352TIP3    H143251   5.226   6.043   9.644  0.5159 -2.3690  0.5066
 6352TIP3    H243252   5.376   6.023   9.642  0.6792 -1.2111 -1.0774
 6353TIP3   OH243253   1.835   2.504  11.489  0.0386  0.1426 -0.0546
 6353TIP3    H143254   1.906   2.466  11.539 -0.8555 -0.2205  0.9772
 6353TIP3    H243255   1.827   2.593  11.523  0.0117  0.1883 -0.1803
 6354TIP3   OH243256   5.486   3.816  10.536 -0.0354 -0.0976  0.2284
 6354TIP3    H143257   5.554   3.748  10.540  0.6069  0.5029 -0.2337
 6354TIP3    H243258   5.475   3.844  10.627  0.8759  0.3060  0.2283
 6355TIP3   OH243259   1.428   5.723  11.781  0.3844  0.0704  0.2772
 6355TIP3    H143260   1.410   5.745  11.690 -0.4305  0.9631  0.6387
 6355TIP3    H243261   1.447   5.807  11.823  0.5318 -0.3052  0.9803
 6356TIP3   OH243262   0.760   6.174   9.515  0.2902 -0.5993 -0.3251
 6356TIP3    H143263   0.805   6.253   9.485 -1.5960  0.6368 -0.0639
 6356TIP3    H243264   0.721   6.138   9.436 -0.5633 -0.1000 -0.1408
 6357TIP3   OH243265   0.304   0.102   8.989  0.1943 -0.0302  0.0995
 6357TIP3    H143266   0.373   0.145   9.039 -0.4516  2.0564 -0.7017
 6357TIP3    H243267   0.307   0.142   8.902 -3.4085  1.9064  0.6511
 6358TIP3   OH243268   4.488   4.577  10.939 -0.2827 -0.1649  0.0565
 6358TIP3    H143269   4.434   4.656  10.935 -0.0740  0.0206  0.7728
 6358TIP3    H243270   4.426   4.505  10.928 -0.3333  0.0983 -1.8794
 6359TIP3   OH243271   0.035   0.475  10.792  0.2713 -0.1640  0.2856
 6359TIP3    H143272   0.046   0.383  10.771  0.6713  0.1374 -0.9171
 6359TIP3    H243273  -0.039   0.504  10.739 -0.9120 -0.1499  1.8724
 6360TIP3   OH243274   1.737   4.753  11.347  1.0602 -0.0698 -0.0873
 6360TIP3    H143275   1.676   4.827  11.343 -0.9652 -1.6826 -0.6171
 6360TIP3    H243276   1.772   4.745  11.259  0.1623 -0.6062 -0.4064
 6361TIP3   OH243277   4.042   2.227   9.295  0.5093 -0.4906  0.5260
 6361TIP3    H143278   4.037   2.283   9.372 -3.1543  0.0119  0.0903
 6361TIP3    H243279   4.007   2.281   9.224  1.6244 -1.7047 -1.0325
 6362TIP3   OH243280   2.797   1.002  10.971 -0.4835 -0.0399  0.1140
 6362TIP3    H143281   2.877   1.055  10.971  0.4416 -1.3437 -1.1897
 6362TIP3    H243282   2.780   0.984  11.063  0.4715  0.6322  0.4442
 6363TIP3   OH243283   5.697   4.777   9.960  0.7429  0.1745 -0.4302
 6363TIP3    H143284   5.632   4.840   9.926 -0.1228 -1.1963 -1.4155
 6363TIP3    H243285   5.772   4.831   9.984 -0.9673  1.9217  1.3814
 6364TIP3   OH243286   4.495   0.152  10.756 -0.2474 -0.0326  0.4412
 6364TIP3    H143287   4.554   0.199  10.816  1.1813 -1.6536  0.3991
 6364TIP3    H243288   4.493   0.206  10.677  0.0869  0.7296  0.9386
 6365TIP3   OH243289   6.043   3.797   8.834 -0.3930 -0.5283  0.4125
 6365TIP3    H143290   6.115   3.860   8.835 -0.6383 -0.1690  2.8875
 6365TIP3    H243291   5.967   3.849   8.808 -0.1455 -0.4079 -0.0818
 6366TIP3   OH243292   4.975   4.734  10.673 -0.2108 -0.0095 -0.0638
 6366TIP3    H143293   4.983   4.795  10.600  0.9272 -0.3401 -0.2318
 6366TIP3    H243294   5.029   4.659  10.648  0.5345  0.0454  1.3049
 6367TIP3   OH243295   6.364   6.688   9.173 -0.2127  0.3771  0.2270
 6367TIP3    H143296   6.382   6.769   9.126  0.4102  0.3438  0.3872
 6367TIP3    H243297   6.269   6.685   9.182 -0.2866  0.7323 -0.4020
 6368TIP3   OH243298   6.169   2.474  10.023  0.6338 -0.2346 -0.3176
 6368TIP3    H143299   6.202   2.466  10.112  1.7574  1.6346 -0.5015
 6368TIP3    H243300   6.223   2.544   9.984  1.2598 -2.0411 -2.9646
 6369TIP3   OH243301   2.968   1.522  10.296 -0.0633  0.1316 -0.0960
 6369TIP3    H143302   2.992   1.431  10.280 -0.6875  0.0720 -0.7678
 6369TIP3    H243303   2.994   1.539  10.386 -1.9679 -1.3972  0.8267
 6370TIP3   OH243304   3.059   5.383  10.483 -0.0169 -0.3449  0.5934
 6370TIP3    H143305   3.078   5.376  10.389  0.6416  0.5997  0.6411
 6370TIP3    H243306   3.048   5.293  10.512 -0.8453 -0.6184 -0.5101
 6371TIP3   OH243307   4.831   2.355  11.406 -0.5114  0.4820  0.1900
 6371TIP3    H143308   4.839   2.281  11.467 -1.9362  1.8987  2.2554
 6371TIP3    H243309   4.789   2.318  11.329 -2.2564 -0.7367  1.6164
 6372TIP3   OH243310   4.604   1.360   9.949 -0.4585 -0.6521  0.2805
 6372TIP3    H143311   4.564   1.385  10.033  0.7523  0.4602  0.5541
 6372TIP3    H243312   4.627   1.443   9.908  0.2113 -1.2235 -0.5330
 6373TIP3   OH243313   3.549   5.272  11.293  0.2454  0.1062  0.4672
 6373TIP3    H143314   3.480   5.300  11.233 -0.9065 -0.8997  1.2804
 6373TIP3    H243315   3.595   5.203  11.245  1.6810  1.7461 -0.6550
 6374TIP3   OH243316   4.552   5.034  10.088  0.1509 -0.0129 -0.5478
 6374TIP3    H143317   4.612   5.036  10.162  0.1162  0.2005 -0.5266
 6374TIP3    H243318   4.607   5.016  10.012  0.1002 -0.9303 -0.3782
 6375TIP3   OH243319   4.252   1.942   8.916  0.0865 -0.3311  0.1846
 6375TIP3    H143320   4.343   1.950   8.946 -0.6452 -0.2931  2.6383
 6375TIP3    H243321   4.201   1.947   8.997 -2.0706 -0.9708 -1.0909
 6376TIP3   OH243322   2.468   2.823  10.184 -0.0545  0.0036 -0.1982
 6376TIP3    H143323   2.520   2.780  10.116  0.4885 -2.1128  1.4689
 6376TIP3    H243324   2.462   2.915  10.155  2.4966 -0.2117 -1.6735
 6377TIP3   OH243325   0.311   3.564  11.794  0.8147 -0.1482 -0.1780
 6377TIP3    H143326   0.293   3.654  11.821  2.8187 -0.0560  1.0060
 6377TIP3    H243327   0.227   3.518  11.806 -0.0317  1.3615 -0.0762
 6378TIP3   OH243328   1.203   3.875   9.500  0.2238 -0.0733  0.5618
 6378TIP3    H143329   1.178   3.840   9.585 -0.8776  0.7982  0.6130
 6378TIP3    H243330   1.133   3.936   9.476  0.4604 -0.3550 -1.0128
 6379TIP3   OH243331   3.129   4.233  10.248  0.2916 -0.0681  0.1917
 6379TIP3    H143332   3.088   4.289  10.314 -1.1008  0.0106 -0.7028
 6379TIP3    H243333   3.096   4.265  10.164  1.6216 -0.4940 -0.5394
 6380TIP3   OH243334   1.040   3.379   8.933  0.6248  0.5003 -0.6695
 6380TIP3    H143335   1.068   3.313   8.997 -0.3745  1.1073  0.4486
 6380TIP3    H243336   0.971   3.336   8.883 -1.1157  1.0926  1.0669
 6381TIP3   OH243337   1.633   4.693  10.182 -0.4867  0.0306 -0.3695
 6381TIP3    H143338   1.668   4.626  10.122 -0.2260  0.9467 -1.2741
 6381TIP3    H243339   1.667   4.668  10.268 -1.3935 -1.6838 -0.4492
 6382TIP3   OH243340   4.974   1.041  11.111 -0.0639  0.3576 -0.3163
 6382TIP3    H143341   5.037   1.098  11.067  0.2411  2.0848  2.1826
 6382TIP3    H243342   5.027   0.972  11.150  0.1849  1.1539  0.7915
 6383TIP3   OH243343   4.228   5.609   8.980 -0.2385  0.2582 -0.0092
 6383TIP3    H143344   4.167   5.544   9.016 -1.1516  1.1308  0.0482
 6383TIP3    H243345   4.173   5.666   8.927  0.6012  0.8432 -0.2543
 6384TIP3   OH243346   6.145   1.155   9.872 -0.4252  0.3837 -0.0971
 6384TIP3    H143347   6.075   1.215   9.847 -1.0454  0.7715  2.2937
 6384TIP3    H243348   6.211   1.210   9.915 -0.0254 -0.3616  0.2810
 6385TIP3   OH243349   1.836   0.584  10.931 -0.2465  0.2592  0.2150
 6385TIP3    H143350   1.879   0.668  10.945  0.9690 -0.1235 -0.9905
 6385TIP3    H243351   1.744   0.606  10.915 -0.3265  1.1796  1.7504
 6386TIP3   OH243352   2.711   2.543  10.675 -0.2204 -0.3583 -0.4111
 6386TIP3    H143353   2.751   2.628  10.660 -2.2795  0.5332 -1.2560
 6386TIP3    H243354   2.743   2.488  10.603  1.9599 -0.7078  0.7246
 6387TIP3   OH243355   2.821   3.091  11.140  0.1226 -0.2267  0.0334
 6387TIP3    H143356   2.726   3.080  11.132 -0.2670  2.0031  0.7213
 6387TIP3    H243357   2.858   3.017  11.093 -1.9657 -0.8049 -0.8189
 6388TIP3   OH243358   1.722   3.574  10.176 -0.4265  0.1052  0.0625
 6388TIP3    H143359   1.776   3.542  10.248  1.0714  1.7866 -0.2366
 6388TIP3    H243360   1.689   3.658  10.206 -2.3074 -0.5526 -0.0681
 6389TIP3   OH243361   5.471   2.747   9.568 -0.2417  0.4460 -0.2622
 6389TIP3    H143362   5.482   2.766   9.475 -0.4189  1.6893 -0.0468
 6389TIP3    H243363   5.560   2.746   9.604 -0.2165  0.6660 -0.3189
 6390TIP3   OH243364   4.031   1.503   8.546  0.1703 -0.4432  0.2623
 6390TIP3    H143365   4.063   1.536   8.462  1.2574 -2.8602 -0.3600
 6390TIP3    H243366   4.110   1.476   8.593 -0.4823  0.1604  1.7628
 6391TIP3   OH243367   0.807   3.995   9.205  0.5588  0.2201 -0.1121
 6391TIP3    H143368   0.862   3.918   9.188 -0.4761 -0.6369  0.2783
 6391TIP3    H243369   0.837   4.061   9.142 -0.1598 -1.3155 -2.1673
 6392TIP3   OH243370   2.053   3.368  10.139  0.1444  0.1611 -0.1287
 6392TIP3    H143371   2.073   3.275  10.133 -1.3783 -0.2078  0.0878
 6392TIP3    H243372   2.123   3.404  10.194 -0.1378 -1.1541  1.1413
 6393TIP3   OH243373   2.232   5.406   9.486  0.5883 -0.0289  0.1188
 6393TIP3    H143374   2.218   5.326   9.436  2.4007  1.0130 -2.2590
 6393TIP3    H243375   2.208   5.477   9.425  1.8737  1.2760  1.0430
 6394TIP3   OH243376   2.761   2.172   8.669  0.2256  0.7165  0.4750
 6394TIP3    H143377   2.766   2.192   8.763 -1.8424  1.3210  0.5064
 6394TIP3    H243378   2.702   2.238   8.634  0.3160 -0.0042 -1.1134
 6395TIP3   OH243379   1.514   1.880  10.311  0.4354 -0.4240 -0.5470
 6395TIP3    H143380   1.584   1.825  10.348 -0.4710 -2.4647 -1.7066
 6395TIP3    H243381   1.443   1.874  10.375  0.9640  0.9417  0.2074
 6396TIP3   OH243382   1.363   2.762  19.942 -0.2681 -0.2494  0.6498
 6396TIP3    H143383   1.436   2.724  19.990  0.7432  0.5200 -0.2201
 6396TIP3    H243384   1.358   2.853  19.973 -1.4664 -0.5366  1.3684
 6397TIP3   OH243385   4.062   0.490  11.225 -0.5010 -0.2602  0.1608
 6397TIP3    H143386   4.034   0.501  11.316 -1.1768  0.3210 -0.1108
 6397TIP3    H243387   4.105   0.404  11.224 -0.4194 -0.2414  1.0407
 6398TIP3   OH243388   2.008   0.251  10.313  0.1420  0.8934 -0.0644
 6398TIP3    H143389   1.961   0.326  10.351 -0.8750  0.6643 -0.8345
 6398TIP3    H243390   2.059   0.289  10.242 -0.6722  0.8184 -0.7036
 6399TIP3   OH243391   6.058   5.495  12.075 -0.0073 -0.2020  0.3990
 6399TIP3    H143392   6.095   5.533  12.155 -0.4760 -0.2530  0.6419
 6399TIP3    H243393   5.974   5.458  12.102  0.3275 -1.2008  0.1078
 6400TIP3   OH243394   4.436   4.090  10.711 -0.0637 -0.2801  0.3231
 6400TIP3    H143395   4.483   4.161  10.755  0.9447 -0.2532 -0.7550
 6400TIP3    H243396   4.402   4.036  10.783 -0.2703  0.9107  1.1468
 6401TIP3   OH243397   1.892   3.404  11.485  0.2290 -0.4663 -0.3203
 6401TIP3    H143398   1.845   3.403  11.569 -0.8925 -1.5874 -0.9394
 6401TIP3    H243399   1.859   3.328  11.438  1.3983 -0.2759 -1.4952
 6402TIP3   OH243400   4.035   3.128   9.796  0.2981 -0.5721 -0.1595
 6402TIP3    H143401   3.985   3.191   9.847  0.5469 -0.5852  0.1013
 6402TIP3    H243402   4.121   3.168   9.785  0.7160 -1.2132  0.6967
 6403TIP3   OH243403   0.426   6.668   8.710  0.0629  0.6227 -0.1172
 6403TIP3    H143404   0.385   6.750   8.683 -0.9150  0.5397  1.0099
 6403TIP3    H243405   0.411   6.664   8.805  1.3047 -0.1995  0.0748
 6404TIP3   OH243406   6.101   1.707   9.152  0.7161 -0.0763 -0.3378
 6404TIP3    H143407   6.184   1.672   9.121  0.6795 -2.0493  1.5409
 6404TIP3    H243408   6.108   1.703   9.248 -2.7312 -3.8267  0.0558
 6405TIP3   OH243409   4.820   0.963  11.632 -0.0867 -0.0943 -0.0307
 6405TIP3    H143410   4.725   0.963  11.621 -0.1327  1.7239  0.0649
 6405TIP3    H243411   4.841   1.051  11.662  1.4919 -0.9082  1.4049
 6406TIP3   OH243412   5.255   1.392   9.901 -0.3691 -0.3538 -0.4832
 6406TIP3    H143413   5.187   1.329   9.880  0.8567 -1.5563 -1.0458
 6406TIP3    H243414   5.281   1.371   9.991 -1.1016  0.4785 -0.0595
 6407TIP3   OH243415   4.813   2.205  11.631 -0.4390  0.3077 -0.1510
 6407TIP3    H143416   4.825   2.250  11.714 -2.1934  0.2068  0.1847
 6407TIP3    H243417   4.861   2.123  11.641  2.0529  1.6162 -0.4503
 6408TIP3   OH243418   1.722   5.673  11.754 -0.0481 -0.9032  0.0267
 6408TIP3    H143419   1.754   5.600  11.807 -1.1740  0.2877  2.5348
 6408TIP3    H243420   1.627   5.672  11.767 -0.0627  1.2310  0.4991
 6409TIP3   OH243421   4.290   2.550  10.345 -0.0662  0.8411 -0.5126
 6409TIP3    H143422   4.302   2.505  10.428 -1.7626 -2.7424 -2.0071
 6409TIP3    H243423   4.207   2.597  10.355 -1.0750 -0.8487 -0.5913
 6410TIP3   OH243424   2.424   1.401   9.982 -0.0587 -0.0327  0.2339
 6410TIP3    H143425   2.429   1.475  10.042 -0.4760 -1.0085  1.5251
 6410TIP3    H243426   2.467   1.329  10.029 -1.6377 -1.2078 -0.0145
 6411TIP3   OH243427   4.145   1.066  11.234 -0.3894  0.2080  0.5286
 6411TIP3    H143428   4.227   1.021  11.255  0.6002  1.5303 -0.3255
 6411TIP3    H243429   4.077   1.012  11.275  0.8667 -1.0923  1.0038
 6412TIP3   OH243430   4.988   5.109  10.277 -0.5026  0.1229 -0.2144
 6412TIP3    H143431   4.952   5.165  10.208  0.5370  3.8682  1.9875
 6412TIP3    H243432   5.079   5.138  10.286 -0.4345 -0.6516  2.3039
 6413TIP3   OH243433   4.617   6.500  10.471 -0.1876  0.0344 -0.1253
 6413TIP3    H143434   4.629   6.436  10.541  0.7269  0.2967 -0.0326
 6413TIP3    H243435   4.588   6.580  10.515  0.8213  0.3312  0.0105
 6414TIP3   OH243436   3.876   3.463  10.630  0.0677  0.3031  0.1270
 6414TIP3    H143437   3.968   3.475  10.604 -0.0138  2.9458  0.7864
 6414TIP3    H243438   3.828   3.466  10.547  0.4344  0.7030 -0.0795
 6415TIP3   OH243439   4.246   4.001  11.142 -0.1136 -0.5757  0.0378
 6415TIP3    H143440   4.204   3.915  11.139  1.1159 -1.1559 -1.4836
 6415TIP3    H243441   4.287   4.011  11.056  0.6274  1.1037  0.5475
 6416TIP3   OH243442   1.421   5.129   9.341 -0.9152 -0.5100  0.3859
 6416TIP3    H143443   1.453   5.092   9.423 -1.4528 -1.8649  0.0074
 6416TIP3    H243444   1.451   5.220   9.343  2.6176 -1.4875  0.2794
 6417TIP3   OH243445   4.754   5.620   9.044  0.0856 -0.4787  0.0660
 6417TIP3    H143446   4.822   5.608   8.978 -0.3906 -0.3299 -0.4519
 6417TIP3    H243447   4.693   5.683   9.006  1.6309  2.4804  2.0191
 6418TIP3   OH243448   1.847   3.907  10.893 -0.4598 -0.0316  0.0631
 6418TIP3    H143449   1.825   3.987  10.846 -1.1420  1.2320  2.3783
 6418TIP3    H243450   1.921   3.930  10.948 -1.8261 -0.3323  2.1774
 6419TIP3   OH243451   2.115   3.078  11.464 -0.7260  0.6229 -0.6335
 6419TIP3    H143452   2.092   3.056  11.555 -0.5716  0.7721 -0.5577
 6419TIP3    H243453   2.084   3.003  11.413  1.1643 -0.5286 -0.1956
 6420TIP3   OH243454   5.746   1.521  10.237  0.4713 -0.2073  0.3129
 6420TIP3    H143455   5.785   1.441  10.272  0.0648 -0.1609  0.8925
 6420TIP3    H243456   5.663   1.530  10.284  0.0322  0.0006 -0.4910
 6421TIP3   OH243457   6.500   1.059  10.916 -0.0188  0.3545 -0.0176
 6421TIP3    H143458   6.549   1.069  10.834 -0.8616  1.1555 -0.4395
 6421TIP3    H243459   6.424   1.006  10.891  0.0629  0.0362  0.3986
 6422TIP3   OH243460   0.232   1.381  10.991 -0.0804 -0.2617 -0.3105
 6422TIP3    H143461   0.155   1.328  11.010  0.1413 -0.5154 -0.1004
 6422TIP3    H243462   0.233   1.448  11.059  0.1250 -0.5257 -0.0477
 6423TIP3   OH243463   5.497   5.103   9.175 -0.7893 -0.0314 -0.7351
 6423TIP3    H143464   5.441   5.179   9.158 -2.8579 -0.9208  1.5015
 6423TIP3    H243465   5.473   5.040   9.107 -0.7958  0.4273 -1.1702
 6424TIP3   OH243466   5.867   1.468   9.035  0.4278 -0.0061 -0.0319
 6424TIP3    H143467   5.869   1.557   9.001  0.7686 -0.3892 -1.0393
 6424TIP3    H243468   5.775   1.442   9.028  0.2100  0.4674  0.8461
 6425TIP3   OH243469   4.695   1.138   8.987 -0.6741  0.5288  0.1295
 6425TIP3    H143470   4.719   1.060   9.037  2.4153  0.2100 -1.6348
 6425TIP3    H243471   4.655   1.104   8.907  0.5817  0.6879 -0.5936
 6426TIP3   OH243472   1.226   1.685   9.156 -0.4790 -0.3745 -0.1635
 6426TIP3    H143473   1.141   1.656   9.125 -1.1643  1.1757  0.1399
 6426TIP3    H243474   1.284   1.674   9.081 -1.3405  0.1048 -0.9276
 6427TIP3   OH243475   4.221   1.554  11.447 -0.7479 -0.0745  0.2352
 6427TIP3    H143476   4.145   1.609  11.463 -1.5918 -1.1376  0.0600
 6427TIP3    H243477   4.183   1.467  11.428  0.4140 -0.2335 -1.5821
 6428TIP3   OH243478   6.411   6.658  10.066  0.6070 -0.5678  0.0820
 6428TIP3    H143479   6.367   6.614   9.994  1.5179  0.5371 -1.1974
 6428TIP3    H243480   6.503   6.658  10.042  0.8909  0.1263  1.0865
 6429TIP3   OH243481   5.518   1.147  10.357 -0.7896 -0.2621 -0.0296
 6429TIP3    H143482   5.479   1.211  10.417 -1.2525 -0.5235 -0.0533
 6429TIP3    H243483   5.552   1.078  10.414 -0.4375 -0.0782 -0.0143
 6430TIP3   OH243484   2.773   5.228  10.530  0.2502  0.3999 -0.0426
 6430TIP3    H143485   2.825   5.227  10.610  1.3268  2.1470 -0.6500
 6430TIP3    H243486   2.732   5.315  10.530 -2.3318 -0.7254  0.1516
 6431TIP3   OH243487   0.331   4.293   9.980  0.8567  0.4148 -0.1210
 6431TIP3    H143488   0.392   4.221   9.996  0.8068  0.5525  0.7234
 6431TIP3    H243489   0.245   4.252   9.980  0.2229  0.9689  5.4057
 6432TIP3   OH243490   6.086   0.434   9.494  0.0310 -0.2016  0.0058
 6432TIP3    H143491   6.174   0.403   9.474 -0.5463 -0.9283 -1.5387
 6432TIP3    H243492   6.096   0.484   9.575  1.7593 -0.7194  0.1420
 6433TIP3   OH243493   2.605   2.795   9.663  0.3373  0.5273  0.8033
 6433TIP3    H143494   2.626   2.834   9.578 -0.1916 -0.7269  0.0715
 6433TIP3    H243495   2.510   2.797   9.667  0.3543  0.4285  1.2938
 6434TIP3   OH243496   4.318   2.039   9.936  0.1736  0.1971 -0.1084
 6434TIP3    H143497   4.400   1.991   9.919 -0.0868 -0.4512  0.4424
 6434TIP3    H243498   4.331   2.078  10.022 -0.0184  0.2657 -0.1114
 6435TIP3   OH243499   2.255   4.948   8.713 -0.1818 -0.2585  0.3750
 6435TIP3    H143500   2.198   4.876   8.741 -1.1018  1.1816  2.4391
 6435TIP3    H243501   2.335   4.937   8.763  0.6611 -1.1716 -1.1014
 6436TIP3   OH243502   4.814   0.473  12.314  0.2715  0.6587  0.3130
 6436TIP3    H143503   4.870   0.550  12.319 -0.3506  1.0991  0.5589
 6436TIP3    H243504   4.872   0.400  12.336  0.9151  1.0287 -0.1299
 6437TIP3   OH243505   4.256   4.672   9.760  0.0720 -0.4794  0.4020
 6437TIP3    H143506   4.333   4.728   9.750  0.7501 -1.4359  0.1311
 6437TIP3    H243507   4.183   4.726   9.729  0.9402 -0.3501 -1.5224
 6438TIP3   OH243508   1.652   4.241  11.091  0.1189  0.2042 -0.6231
 6438TIP3    H143509   1.646   4.147  11.072  1.1648  0.0026 -0.0136
 6438TIP3    H243510   1.741   4.264  11.068  0.6389  0.5160  1.4893
 6439TIP3   OH243511   3.962   4.544  11.310  0.5416  0.0920 -0.0422
 6439TIP3    H143512   4.011   4.493  11.245  2.1752  1.1771  0.2904
 6439TIP3    H243513   3.879   4.565  11.266  0.6196 -1.2173 -0.8720
 6440TIP3   OH243514   0.992   6.025  10.671  0.1093 -0.0291  0.0315
 6440TIP3    H143515   1.084   6.001  10.668  0.3602  0.9446 -2.0669
 6440TIP3    H243516   0.988   6.110  10.627 -1.6196  0.6047  1.3068
 6441TIP3   OH243517   0.569   3.989   9.731  0.6617  0.0837 -0.5139
 6441TIP3    H143518   0.618   3.906   9.723 -1.9049 -1.5498 -0.4347
 6441TIP3    H243519   0.619   4.040   9.795  1.5147 -2.0887  0.6773
 6442TIP3   OH243520   6.213   0.619   9.135  0.0184  0.5246  0.0820
 6442TIP3    H143521   6.270   0.544   9.120 -2.2455 -1.0894 -1.0846
 6442TIP3    H243522   6.254   0.691   9.088  1.6956 -0.2149  0.3343
 6443TIP3   OH243523   1.845   2.318  10.566  0.5471 -0.4139 -0.0805
 6443TIP3    H143524   1.860   2.412  10.576  0.4487 -0.4230  0.1661
 6443TIP3    H243525   1.932   2.282  10.550  0.6317 -0.3206  0.1545
 6444TIP3   OH243526   4.839   1.746   9.610  0.1621  0.7374  0.9369
 6444TIP3    H143527   4.887   1.664   9.599 -0.1334  0.4302  1.8764
 6444TIP3    H243528   4.881   1.807   9.549  0.8266  0.0829  0.7292
 6445TIP3   OH243529   3.881   3.805  12.451 -0.1110 -0.6316 -0.1499
 6445TIP3    H143530   3.928   3.800  12.534  0.0430  0.5840 -0.1362
 6445TIP3    H243531   3.802   3.753  12.466 -0.8504  0.8020  1.3253
 6446TIP3   OH243532   4.767   5.936  10.021  0.4461  0.3456  0.1875
 6446TIP3    H143533   4.858   5.915  10.041  0.7745  0.9316 -0.6016
 6446TIP3    H243534   4.717   5.907  10.097  1.1885 -0.7456  0.2794
 6447TIP3   OH243535   0.097   0.750   9.264 -0.7957 -0.1907  0.4095
 6447TIP3    H143536   0.003   0.754   9.245 -1.1205  3.2655  1.9116
 6447TIP3    H243537   0.139   0.751   9.178 -2.0311 -2.9257 -0.3267
 6448TIP3   OH243538   4.956   1.327  10.465  0.1088 -0.1473  0.1738
 6448TIP3    H143539   4.872   1.289  10.489 -0.0950  0.4538  0.4383
 6448TIP3    H243540   4.971   1.298  10.375 -0.0253 -0.8676  0.3845
 6449TIP3   OH243541   5.663   2.442  11.069  0.4970 -0.3299 -0.1141
 6449TIP3    H143542   5.598   2.401  11.012  0.7090  1.3638 -1.6790
 6449TIP3    H243543   5.625   2.527  11.091  1.6336  0.1887 -0.0699
 6450TIP3   OH243544   2.788   5.561  10.887 -0.1190  0.0117  0.2168
 6450TIP3    H143545   2.809   5.527  10.974  2.6474  0.2235 -0.2874
 6450TIP3    H243546   2.827   5.648  10.885 -0.6127  0.2246 -1.0549
 6451TIP3   OH243547   0.143   2.420   9.950 -0.8649  0.1858  0.1879
 6451TIP3    H143548   0.117   2.470  10.027 -0.1389 -0.6128  0.9793
 6451TIP3    H243549   0.151   2.485   9.880  0.4075  1.2468  1.2683
 6452TIP3   OH243550   4.557   3.566   9.183  0.4303  0.5330 -0.5564
 6452TIP3    H143551   4.616   3.642   9.185 -3.0543  3.5026 -1.1440
 6452TIP3    H243552   4.513   3.572   9.098 -1.3609 -0.9738  0.2048
 6453TIP3   OH243553   0.461   1.837  11.318  1.2335  0.0901  0.5740
 6453TIP3    H143554   0.540   1.811  11.364  1.0581 -0.7430  0.4191
 6453TIP3    H243555   0.405   1.874  11.387  1.6135  0.3625  0.7424
 6454TIP3   OH243556   1.511   4.202  10.838  0.1248 -0.4536 -0.2463
 6454TIP3    H143557   1.553   4.241  10.916  0.5258 -2.3598  0.5402
 6454TIP3    H243558   1.506   4.275  10.776 -1.7551  1.6299  2.0907
 6455TIP3   OH243559   3.667   3.586  10.081 -0.7606 -0.4409 -0.5659
 6455TIP3    H143560   3.678   3.638  10.161  0.8913 -1.2196 -0.2461
 6455TIP3    H243561   3.685   3.496  10.108 -0.5916 -0.7686 -1.7386
 6456TIP3   OH243562   0.910   2.788   8.930  0.1118 -0.1363 -0.4292
 6456TIP3    H143563   0.855   2.709   8.935 -1.0329  0.5749 -1.4624
 6456TIP3    H243564   0.878   2.844   9.001  1.4734 -0.8846  0.8472
 6457TIP3   OH243565   3.028   5.469  11.859  0.6533  0.0968 -0.5652
 6457TIP3    H143566   3.041   5.555  11.898 -2.2089  1.2495 -1.8797
 6457TIP3    H243567   3.051   5.407  11.928  2.1202  1.9093  0.6368
 6458TIP3   OH243568   3.868   4.136   9.019 -0.0607  0.2735 -0.2713
 6458TIP3    H143569   3.852   4.162   9.109 -0.4354 -2.1707  0.4447
 6458TIP3    H243570   3.800   4.179   8.968 -0.1313  1.2976  0.6750
 6459TIP3   OH243571   5.001   3.879  10.931  0.0967 -0.1471 -0.3440
 6459TIP3    H143572   4.922   3.932  10.927 -0.6569 -1.1139  0.9224
 6459TIP3    H243573   5.036   3.895  11.019 -0.7063 -2.4426  0.4639
 6460TIP3   OH243574   0.082   3.193   8.519 -0.3644 -0.4708  0.2910
 6460TIP3    H143575   0.000   3.165   8.560  0.2897  0.9108  2.6973
 6460TIP3    H243576   0.150   3.145   8.566  0.4312  1.3565  1.0749
 6461TIP3   OH243577   4.864   2.441  10.259  0.2215  0.4580  0.4455
 6461TIP3    H143578   4.909   2.372  10.307 -0.4707 -0.1731  0.2059
 6461TIP3    H243579   4.797   2.473  10.319  0.6098  1.0051  0.5956
 6462TIP3   OH243580   0.435   1.339  11.933 -0.2549  0.5573  0.2386
 6462TIP3    H143581   0.456   1.432  11.926  0.2200  0.5712  1.4561
 6462TIP3    H243582   0.453   1.318  12.025 -1.1223 -0.5527  0.1715
 6463TIP3   OH243583   2.301   0.047  11.417  0.0214 -0.3667 -0.0583
 6463TIP3    H143584   2.340  -0.035  11.447  2.1180  0.3517 -0.6484
 6463TIP3    H243585   2.232   0.065  11.481 -0.2021 -2.3520  0.3246
 6464TIP3   OH243586   2.827   0.055   9.442 -0.2088  0.0429  0.0486
 6464TIP3    H143587   2.754   0.112   9.465  0.0193  1.3339 -2.0680
 6464TIP3    H243588   2.792  -0.003   9.375  0.3658 -0.2064 -0.0388
 6465TIP3   OH243589   4.621   2.460   8.998  0.7957 -0.2112  0.8057
 6465TIP3    H143590   4.659   2.545   9.020  1.0830 -0.0909 -0.0928
 6465TIP3    H243591   4.550   2.448   9.060  0.2449  1.0590  0.4507
 6466TIP3   OH243592   0.959   0.256   9.195 -0.4276 -0.4040 -0.1803
 6466TIP3    H143593   0.938   0.179   9.247  3.6501  0.1190  2.7840
 6466TIP3    H243594   1.034   0.230   9.141 -0.6679  0.7928 -1.1436
 6467TIP3   OH243595   1.571   1.560  10.416  0.0721  0.1836  0.0359
 6467TIP3    H143596   1.602   1.564  10.507 -0.7983  0.0999  0.3558
 6467TIP3    H243597   1.488   1.609  10.418 -0.3282 -0.4572 -0.5475
 6468TIP3   OH243598   3.355   2.549  10.758 -0.0464  0.5818  0.6678
 6468TIP3    H143599   3.283   2.564  10.819 -0.6075  1.5309 -0.1979
 6468TIP3    H243600   3.321   2.485  10.696  0.2478  0.2086  0.8880
 6469TIP3   OH243601   2.125   2.580  11.504  0.1104  0.0667 -0.5801
 6469TIP3    H143602   2.194   2.519  11.530  0.1985  0.2208 -0.4494
 6469TIP3    H243603   2.102   2.627  11.584  0.2363  0.3987 -0.7319
 6470TIP3   OH243604   3.186   6.295   9.001 -0.6624 -0.6429 -0.0791
 6470TIP3    H143605   3.255   6.230   9.016 -0.5927 -0.4020  0.6963
 6470TIP3    H243606   3.203   6.327   8.912  0.1201 -0.7092  0.0377
 6471TIP3   OH243607   2.584   6.308   9.329 -0.5598  0.3232 -0.0625
 6471TIP3    H143608   2.492   6.314   9.304  0.1934  0.1759 -3.4014
 6471TIP3    H243609   2.632   6.318   9.246  2.5288  2.2471  1.7536
 6472TIP3   OH243610   2.608   6.414   9.891 -0.3952  0.1377 -0.0388
 6472TIP3    H143611   2.548   6.380   9.957 -0.2355  1.5265  0.8584
 6472TIP3    H243612   2.680   6.350   9.888  0.3362  0.7820  2.2395
 6473TIP3   OH243613   5.328   4.224  10.026 -0.2565 -0.7784 -0.1227
 6473TIP3    H143614   5.394   4.233   9.956 -0.1052 -0.0798  0.1025
 6473TIP3    H243615   5.256   4.177   9.984  0.6605 -2.1948 -0.1825
 6474TIP3   OH243616   3.056   2.068  10.769  0.4165 -0.4295  0.6933
 6474TIP3    H143617   3.130   2.109  10.814  0.5409 -0.7275  0.7622
 6474TIP3    H243618   3.096   2.002  10.711  0.2010 -0.6508  0.7931
 6475TIP3   OH243619   2.072   1.323  11.650  0.2371 -0.5861 -0.5360
 6475TIP3    H143620   2.121   1.343  11.570  1.2424 -0.3011  0.1265
 6475TIP3    H243621   2.140   1.297  11.713 -0.5510 -0.9475  0.1771
 6476TIP3   OH243622   4.417   2.508  11.313  0.7440 -0.0703 -0.0302
 6476TIP3    H143623   4.462   2.515  11.229  2.0030 -1.1380  0.5183
 6476TIP3    H243624   4.439   2.420  11.345 -1.6968 -0.6306  0.3077
 6477TIP3   OH243625   5.387   3.319  11.193 -0.7603  0.5685  1.0851
 6477TIP3    H143626   5.411   3.292  11.105 -1.0903 -0.0442  1.1759
 6477TIP3    H243627   5.427   3.405  11.204 -0.4015  0.4826  0.4775
 6478TIP3   OH243628   4.593   0.587  10.556  0.1583  0.1864 -0.0697
 6478TIP3    H143629   4.642   0.534  10.493 -0.3325  0.8898 -1.0537
 6478TIP3    H243630   4.611   0.678  10.530 -1.5843  0.4619 -0.3957
 6479TIP3   OH243631   2.511   3.993  10.244  0.1867 -0.3521 -0.2182
 6479TIP3    H143632   2.553   4.050  10.179  0.4021  0.2962  0.4711
 6479TIP3    H243633   2.464   3.928  10.192  0.0479  0.3722 -1.0273
 6480TIP3   OH243634   4.239   0.734   9.873  0.7599  0.3170  0.0056
 6480TIP3    H143635   4.242   0.655   9.927 -2.1562 -0.1466 -0.3207
 6480TIP3    H243636   4.167   0.786   9.910  0.7753  1.4983 -1.4863
 6481TIP3   OH243637   2.352   0.568  11.843 -0.7428 -0.1273  0.9172
 6481TIP3    H143638   2.323   0.489  11.798 -0.6101  0.2515  0.1493
 6481TIP3    H243639   2.395   0.536  11.922  1.7142 -1.0091 -0.6776
 6482TIP3   OH243640   2.905   5.492  11.601  0.2276  0.2599  0.0619
 6482TIP3    H143641   2.916   5.578  11.562 -0.4049  0.2379 -0.1811
 6482TIP3    H243642   2.946   5.498  11.687  2.1034  0.1590 -0.7825
 6483TIP3   OH243643   0.119   3.824  11.541 -0.9979  0.0232  0.3651
 6483TIP3    H143644   0.079   3.738  11.526 -1.0734  0.5115 -2.9802
 6483TIP3    H243645   0.047   3.878  11.575 -0.9566 -1.1485  2.4586
 6484TIP3   OH243646   6.001   1.948   8.753  0.1412  0.6115 -0.0417
 6484TIP3    H143647   5.978   1.913   8.839  0.8214  0.1108 -0.0549
 6484TIP3    H243648   5.938   1.908   8.694  0.5501 -0.1707  0.0281
 6485TIP3   OH243649   6.560   1.169   9.573 -0.2132 -0.5526  0.4494
 6485TIP3    H143650   6.594   1.094   9.621  0.2712  0.8156  2.3841
 6485TIP3    H243651   6.563   1.241   9.636 -1.1025  0.9951 -1.1757
 6486TIP3   OH243652   2.970   1.437  11.738 -0.3509 -0.4922 -0.1075
 6486TIP3    H143653   2.988   1.426  11.831 -3.7389  1.0231  0.8643
 6486TIP3    H243654   2.927   1.355  11.712  0.1269 -0.7071 -0.2368
 6487TIP3   OH243655   2.963   5.654  10.513 -0.0039  0.3668  0.4395
 6487TIP3    H143656   2.882   5.684  10.471 -2.0321 -2.1706  2.1971
 6487TIP3    H243657   2.983   5.571  10.470  1.5287  0.7801  0.2829
 6488TIP3   OH243658   2.510   1.470  11.094  0.2193  0.2721 -0.6779
 6488TIP3    H143659   2.531   1.558  11.064 -0.1302 -0.2449 -2.5175
 6488TIP3    H243660   2.416   1.459  11.077  0.0495 -0.1588  0.3817
 6489TIP3   OH243661   1.662   5.879  10.748 -0.1145 -0.1515 -0.3736
 6489TIP3    H143662   1.626   5.829  10.675 -1.7753 -1.6878  1.3893
 6489TIP3    H243663   1.727   5.821  10.787 -0.1703  0.1263  0.1435
 6490TIP3   OH243664   5.032   0.026  10.249 -0.0578  0.2524 -0.1525
 6490TIP3    H143665   5.074  -0.007  10.169  0.6541 -1.0945  0.7286
 6490TIP3    H243666   4.989   0.107  10.222  0.2441 -0.1184 -1.8730
 6491TIP3   OH243667   2.971   6.213  10.818 -0.5538  0.7585 -0.1933
 6491TIP3    H143668   2.992   6.235  10.727 -1.6841  0.4256 -0.5515
 6491TIP3    H243669   2.954   6.119  10.818  0.4501  0.5537  0.5823
 6492TIP3   OH243670   2.160   5.375  11.644  0.2177 -0.8024  0.3071
 6492TIP3    H143671   2.256   5.378  11.645  0.2195 -0.5301  1.7448
 6492TIP3    H243672   2.135   5.359  11.736 -1.1543  1.5656  0.4330
 6493TIP3   OH243673   0.039   1.969  10.241  0.2913 -0.4372  0.0765
 6493TIP3    H143674   0.120   1.923  10.222 -0.3212 -1.9096  0.8920
 6493TIP3    H243675   0.059   2.061  10.222  1.9496 -0.8418 -0.3063
 6494TIP3   OH243676   5.639   6.743   9.101  0.1321 -0.1089 -0.6938
 6494TIP3    H143677   5.602   6.831   9.097 -1.7187 -0.8865 -3.2208
 6494TIP3    H243678   5.648   6.725   9.195  0.6492  2.7489 -0.1199
 6495TIP3   OH243679   4.110   5.657  10.207 -0.0035 -0.2745  0.3569
 6495TIP3    H143680   4.126   5.566  10.182 -2.4101 -0.6594 -0.0450
 6495TIP3    H243681   4.073   5.698  10.129  0.1063  0.7997  0.8371
 6496TIP3   OH243682   0.147   5.901  11.180 -0.0868  0.1016 -0.0549
 6496TIP3    H143683   0.114   5.848  11.107 -0.3894  0.4523 -0.1800
 6496TIP3    H243684   0.112   5.859  11.258 -0.3939  0.1602 -0.1592
 6497TIP3   OH243685   5.458   0.152   9.380 -0.3280  0.3661  0.4342
 6497TIP3    H143686   5.421   0.191   9.301  0.3191  1.3292  0.5874
 6497TIP3    H243687   5.549   0.182   9.381 -0.2589  0.1544  1.4121
 6498TIP3   OH243688   0.536   4.097   8.800 -0.4222  0.0120  0.2059
 6498TIP3    H143689   0.535   4.001   8.802  1.6290 -0.0532  0.2322
 6498TIP3    H243690   0.629   4.120   8.799 -0.7437  1.9141 -3.5442
 6499TIP3   OH243691   0.629   0.288  11.853  0.1448  0.0945 -0.1204
 6499TIP3    H143692   0.611   0.299  11.759 -1.3675 -0.7899  0.0384
 6499TIP3    H243693   0.673   0.203  11.859  0.0655  0.0632 -0.0003
 6500TIP3   OH243694   1.422   5.811   9.640  0.5769  0.0671  0.4507
 6500TIP3    H143695   1.450   5.859   9.562  0.9647  1.3195  1.3260
 6500TIP3    H243696   1.328   5.796   9.627  0.8153 -0.5328 -0.6511
 6501TIP3   OH243697   2.043   6.555   9.049  0.0380  0.1976 -0.2291
 6501TIP3    H143698   2.041   6.548   9.144 -0.4193  0.7239 -0.1897
 6501TIP3    H243699   1.952   6.541   9.022 -0.2370  2.0014 -0.4118
 6502TIP3   OH243700   5.957   5.434   9.032 -0.3556 -0.0189 -0.3211
 6502TIP3    H143701   5.911   5.517   9.017 -1.2257 -0.3900  0.2220
 6502TIP3    H243702   5.938   5.413   9.124  0.5644 -0.3939 -0.2079
 6503TIP3   OH243703   6.055   1.397   9.484 -0.1206  0.5995  0.8472
 6503TIP3    H143704   6.113   1.337   9.437 -1.2034  0.3056 -0.1612
 6503TIP3    H243705   5.980   1.408   9.426 -1.7032 -0.0816  2.6798
 6504TIP3   OH243706   2.587   5.783   9.748 -0.0469  0.5680  0.3985
 6504TIP3    H143707   2.524   5.765   9.678  2.8535 -1.2465 -2.0418
 6504TIP3    H243708   2.580   5.877   9.763 -1.1141  0.9912 -2.1296
 6505TIP3   OH243709   4.740   0.724   8.972  0.6466 -0.2807  0.1508
 6505TIP3    H143710   4.664   0.782   8.966  0.4669 -0.6647 -1.9262
 6505TIP3    H243711   4.703   0.636   8.969  1.1022 -0.4896  0.5243
 6506TIP3   OH243712   3.712   1.761  10.180 -0.7460 -0.4415 -0.0068
 6506TIP3    H143713   3.652   1.767  10.106 -0.3750  1.5550 -0.1844
 6506TIP3    H243714   3.743   1.670  10.178 -1.1079 -0.5662 -1.9852
 6507TIP3   OH243715   2.283   2.055  10.324 -0.0304 -0.6704 -0.6911
 6507TIP3    H143716   2.190   2.073  10.340  0.3474  1.5354 -0.6325
 6507TIP3    H243717   2.284   2.008  10.240 -1.1841 -0.7421 -0.6809
 6508TIP3   OH243718   3.896   5.167  10.879  0.6510 -0.3687 -0.4799
 6508TIP3    H143719   3.805   5.137  10.882 -0.0569  1.5294 -1.4049
 6508TIP3    H243720   3.932   5.141  10.964  0.0447 -3.4027 -1.0566
 6509TIP3   OH243721   1.814   4.266  11.648  0.5308 -0.6101 -0.1220
 6509TIP3    H143722   1.848   4.330  11.585  0.4105 -0.5866 -0.1643
 6509TIP3    H243723   1.732   4.305  11.679 -0.5010 -1.5535 -1.5190
 6510TIP3   OH243724   6.725   1.245  11.030 -0.1043  0.5434 -0.7620
 6510TIP3    H143725   6.663   1.313  11.057 -0.1304 -0.2543  1.4018
 6510TIP3    H243726   6.671   1.169  11.012  0.1439  0.1845 -0.0239
 6511TIP3   OH243727   0.750   2.555   8.953  0.3614  0.4802  0.1177
 6511TIP3    H143728   0.697   2.497   9.006 -0.4755  0.5471 -0.6179
 6511TIP3    H243729   0.834   2.510   8.944  0.4958  0.4284  1.3950
 6512TIP3   OH243730   1.174   4.014   9.131  0.0595 -0.4718 -0.4597
 6512TIP3    H143731   1.140   4.099   9.157  0.0322 -0.5496 -0.2365
 6512TIP3    H243732   1.208   4.027   9.042 -1.8722 -0.7400 -1.2905
 6513TIP3   OH243733   1.176   3.282  10.381 -0.5273 -0.3515 -0.6824
 6513TIP3    H143734   1.131   3.347  10.435 -0.8300 -1.1437  0.0385
 6513TIP3    H243735   1.116   3.207  10.379 -0.4392 -0.4134 -1.9768
 6514TIP3   OH243736   0.623   6.591   9.785 -0.4561 -1.0289 -0.0205
 6514TIP3    H143737   0.558   6.652   9.818 -0.7248 -0.3882 -1.6491
 6514TIP3    H243738   0.680   6.574   9.860 -0.7999  0.6591  0.6742
 6515TIP3   OH243739   6.551   4.937   9.453 -0.8480  0.2652  0.3872
 6515TIP3    H143740   6.590   5.011   9.407  0.9274  1.4305  3.5041
 6515TIP3    H243741   6.474   4.972   9.496 -0.4521  0.1337  1.2255
 6516TIP3   OH243742   0.335   6.376  12.369  0.3406  0.1046  0.3928
 6516TIP3    H143743   0.425   6.403  12.350  0.5778 -0.0991  1.1992
 6516TIP3    H243744   0.282   6.453  12.349  0.8147  0.5897  0.9758
 6517TIP3   OH243745   6.197   4.280   8.898 -0.5348  0.0578  0.1750
 6517TIP3    H143746   6.152   4.257   8.816 -0.7496 -1.9393  0.8003
 6517TIP3    H243747   6.130   4.272   8.965  0.4972 -2.2798  1.0323
 6518TIP3   OH243748   2.586   6.454  11.760 -0.0892  0.1503  0.0216
 6518TIP3    H143749   2.561   6.419  11.845 -0.6945  1.2664  0.3194
 6518TIP3    H243750   2.673   6.419  11.744  0.0523 -0.0290  1.1191
 6519TIP3   OH243751   5.010   0.174  10.489  0.0350  0.5353 -0.1063
 6519TIP3    H143752   5.022   0.111  10.418  0.7287 -0.0331  0.5060
 6519TIP3    H243753   4.932   0.223  10.464  0.5560  0.7011 -1.5245
 6520TIP3   OH243754   3.504   0.026  11.427  0.0821  0.3273  0.3147
 6520TIP3    H143755   3.415   0.003  11.454 -0.3844 -0.6833 -1.8709
 6520TIP3    H243756   3.495   0.107  11.377  0.5718  0.8304  1.0205
 6521TIP3   OH243757   0.568   5.383  11.761 -0.2901 -0.8807  0.0182
 6521TIP3    H143758   0.500   5.325  11.728 -3.1900  1.0771  2.0551
 6521TIP3    H243759   0.538   5.471  11.736  1.0817  0.1087  1.6362
 6522TIP3   OH243760   3.061   0.468  10.585  0.3115  0.1768 -0.2262
 6522TIP3    H143761   3.131   0.467  10.520  0.4018 -1.1148 -0.1315
 6522TIP3    H243762   3.003   0.396  10.559  0.0628 -0.0197  0.8176
 6523TIP3   OH243763   3.009   5.738  10.060 -0.4408 -0.2451 -0.0561
 6523TIP3    H143764   3.100   5.740  10.090 -0.1113 -0.4398 -1.0194
 6523TIP3    H243765   3.012   5.775   9.972 -1.2300 -0.6517 -0.2638
 6524TIP3   OH243766   2.747   6.649   9.222 -0.1892  0.7611  0.1149
 6524TIP3    H143767   2.738   6.556   9.241  1.0988  0.3267 -1.2153
 6524TIP3    H243768   2.687   6.665   9.149  0.3109  0.7529 -0.3006
 6525TIP3   OH243769   1.141   4.446  11.321 -0.4895  0.2190 -0.6962
 6525TIP3    H143770   1.224   4.456  11.367 -0.9570  0.3599  0.1524
 6525TIP3    H243771   1.165   4.441  11.228  0.4042  1.0113 -0.5268
 6526TIP3   OH243772   5.001   4.071  10.342  0.1660 -0.2931  0.1738
 6526TIP3    H143773   5.037   4.089  10.428 -2.0021 -0.7380  1.2472
 6526TIP3    H243774   4.966   3.982  10.348 -1.3567  0.2033 -0.6458
 6527TIP3   OH243775   0.557   0.676  11.479 -0.4776 -0.1362  0.4287
 6527TIP3    H143776   0.526   0.743  11.419 -1.5501  0.4342  1.5809
 6527TIP3    H243777   0.522   0.594  11.444 -1.0395  0.1783  0.2391
 6528TIP3   OH243778   3.751   5.558   9.833  0.2652 -0.2899  0.4439
 6528TIP3    H143779   3.802   5.511   9.767 -1.3294 -1.3658 -0.1074
 6528TIP3    H243780   3.715   5.634   9.787 -1.1909 -1.2661 -0.1113
 6529TIP3   OH243781   4.766   0.223  11.906  0.1631  0.3975 -0.0469
 6529TIP3    H143782   4.811   0.141  11.923  0.4210  0.8928  1.9278
 6529TIP3    H243783   4.837   0.287  11.891  0.0535  0.7000  0.6900
 6530TIP3   OH243784   0.542   4.746  11.096 -0.0310 -0.2301 -0.3800
 6530TIP3    H143785   0.627   4.751  11.053 -0.1806  1.9373 -0.5153
 6530TIP3    H243786   0.479   4.740  11.024 -0.0913 -0.0600 -0.3415
 6531TIP3   OH243787   4.913   3.238  11.386  0.2542  0.5894  0.0234
 6531TIP3    H143788   4.868   3.155  11.396 -1.4183  1.6374  1.9601
 6531TIP3    H243789   4.844   3.304  11.394  1.5586  2.1885 -1.1774
 6532TIP3   OH243790   2.148   5.708   9.636  0.2703 -0.2280  0.6408
 6532TIP3    H143791   2.235   5.671   9.619  0.4003  0.3678 -0.0157
 6532TIP3    H243792   2.161   5.766   9.711  0.7230  0.8453 -0.2470
 6533TIP3   OH243793   4.286   0.272   9.887  0.3236 -0.0846  0.5398
 6533TIP3    H143794   4.271   0.210   9.816 -1.3474  0.4848  0.3448
 6533TIP3    H243795   4.227   0.243   9.957  0.8239  0.2597  1.1181
 6534TIP3   OH243796   3.942   6.119  11.177  0.0175  0.5915  0.6895
 6534TIP3    H143797   3.884   6.092  11.106  0.3445  0.5597  0.4341
 6534TIP3    H243798   3.963   6.038  11.223  2.0685  0.1619 -0.8715
 6535TIP3   OH243799   2.110   3.968  10.119  0.5510 -0.5364  0.4452
 6535TIP3    H143800   2.131   4.040  10.179 -1.7278  2.1177 -1.7029
 6535TIP3    H243801   2.154   3.992  10.037  0.8206 -2.3085  0.0429
 6536TIP3   OH243802   0.419   6.051  10.111  0.2126  0.4420 -0.3127
 6536TIP3    H143803   0.378   6.008  10.036 -0.0398 -0.2977  0.2359
 6536TIP3    H243804   0.452   5.979  10.165  0.9972  0.9839 -0.0442
 6537TIP3   OH243805   1.142   3.939  10.506 -0.3048 -0.3706 -0.5315
 6537TIP3    H143806   1.054   3.904  10.520  0.7003 -2.6102  0.5729
 6537TIP3    H243807   1.167   3.908  10.420 -0.0398 -0.9906 -0.2329
 6538TIP3   OH243808   1.546   3.193  11.302 -0.1740 -1.0782  0.1011
 6538TIP3    H143809   1.515   3.265  11.247 -1.2996  0.8561  3.0204
 6538TIP3    H243810   1.641   3.200  11.300 -0.2555  0.9175  0.7226
 6539TIP3   OH243811   0.166   0.698   9.858 -0.1269 -0.5071 -0.3145
 6539TIP3    H143812   0.150   0.735   9.945 -0.1551 -0.1676 -0.4666
 6539TIP3    H243813   0.209   0.767   9.809  0.9194 -1.0763 -0.2258
 6540TIP3   OH243814   1.790   4.376  12.212  0.0172  0.2587  0.1324
 6540TIP3    H143815   1.802   4.384  12.118 -0.9257 -0.7994 -0.0876
 6540TIP3    H243816   1.816   4.462  12.247 -0.7263  1.0378 -1.1860
 6541TIP3   OH243817   2.146   5.815   9.204 -0.5913 -0.3031  0.4269
 6541TIP3    H143818   2.227   5.834   9.252  0.6764 -0.6349 -1.4342
 6541TIP3    H243819   2.113   5.901   9.177 -1.8206 -0.0492  2.5722
 6542TIP3   OH243820   2.471   2.560   9.912  0.3419 -0.0374 -0.0233
 6542TIP3    H143821   2.540   2.624   9.928 -0.1422  0.7997 -1.1389
 6542TIP3    H243822   2.433   2.544   9.998 -1.1448  3.0891  0.0439
 6543TIP3   OH243823   4.415   1.345   8.850 -0.1203 -0.1190  0.4157
 6543TIP3    H143824   4.473   1.387   8.787 -1.0326 -1.3568 -1.3496
 6543TIP3    H243825   4.445   1.254   8.854 -0.4936 -0.2128  1.2597
 6544TIP3   OH243826   1.030   3.734  11.351 -0.5053  0.0630  0.3848
 6544TIP3    H143827   0.934   3.727  11.355 -0.5545 -0.5155 -1.0631
 6544TIP3    H243828   1.050   3.812  11.402 -1.5900 -0.6994  2.0912
 6545TIP3   OH243829   5.521   2.758   9.264  0.0211  0.4466 -0.2518
 6545TIP3    H143830   5.615   2.764   9.277 -0.2194  0.8368  1.4054
 6545TIP3    H243831   5.504   2.812   9.186  1.2700 -0.4629 -1.1910
 6546TIP3   OH243832   2.809   5.890   8.676 -0.6444  0.5039 -0.1336
 6546TIP3    H143833   2.810   5.969   8.730 -1.5569  2.0070 -2.1686
 6546TIP3    H243834   2.725   5.894   8.631 -0.0543 -0.8396 -1.4233
 6547TIP3   OH243835   2.454   3.995  11.217 -0.2488  0.1816 -0.5636
 6547TIP3    H143836   2.533   3.949  11.186  0.0800  0.9500 -0.9174
 6547TIP3    H243837   2.474   4.019  11.307  1.0862  2.7415 -1.4385
 6548TIP3   OH243838   2.439   4.830  11.060 -0.2735 -0.2087  0.0385
 6548TIP3    H143839   2.390   4.865  10.986  1.6799 -2.2195 -2.3874
 6548TIP3    H243840   2.512   4.891  11.072 -0.1545 -0.3030 -0.2138
 6549TIP3   OH243841   3.246   3.087   9.074 -0.6054  0.0854 -0.5323
 6549TIP3    H143842   3.158   3.058   9.094  0.1805 -1.2444  1.3178
 6549TIP3    H243843   3.293   3.080   9.157  0.4745  3.8332 -0.6324
 6550TIP3   OH243844   2.253   1.674   9.373 -0.7368 -0.2087  0.2703
 6550TIP3    H143845   2.209   1.706   9.295 -2.2820  1.6394  1.8088
 6550TIP3    H243846   2.299   1.750   9.408  0.9274 -1.2959  0.5636
 6551TIP3   OH243847   1.740   6.744  11.624 -0.2903 -0.3494  0.2162
 6551TIP3    H143848   1.656   6.777  11.594 -0.4145 -0.9724 -0.1476
 6551TIP3    H243849   1.719   6.669  11.680  0.0295 -0.8561 -0.3278
 6552TIP3   OH243850   1.863   1.677  10.485 -0.1585 -0.3053  0.2590
 6552TIP3    H143851   1.919   1.600  10.494 -0.8850 -0.9311 -0.3156
 6552TIP3    H243852   1.842   1.679  10.392 -0.4385  0.3846  0.3364
 6553TIP3   OH243853   3.831   1.764  12.093  0.0011 -0.1347  0.7707
 6553TIP3    H143854   3.924   1.787  12.086 -0.6272  2.2242 -1.3110
 6553TIP3    H243855   3.786   1.848  12.102 -2.2116 -0.6188 -3.2723
 6554TIP3   OH243856   1.442   2.974  11.659 -0.2285  0.0051  0.0024
 6554TIP3    H143857   1.366   2.920  11.682 -0.1642 -1.1243 -2.1560
 6554TIP3    H243858   1.405   3.058  11.634 -0.8964 -0.7019 -1.5546
 6555TIP3   OH243859   4.136   2.790  10.834 -0.6153 -0.3186 -0.1978
 6555TIP3    H143860   4.136   2.719  10.770  2.2836 -0.3203 -0.3084
 6555TIP3    H243861   4.132   2.745  10.919  2.0073 -0.7567 -0.2364
 6556TIP3   OH243862   4.063   5.753   9.663 -0.0769 -0.0262 -0.5471
 6556TIP3    H143863   4.129   5.733   9.730  0.6070 -2.1147 -1.7795
 6556TIP3    H243864   4.064   5.849   9.657  0.9505  0.1265  1.3028
 6557TIP3   OH243865   4.733   6.110   9.513 -0.3001  0.1740 -0.1025
 6557TIP3    H143866   4.809   6.054   9.499 -1.2898 -1.0371 -0.7754
 6557TIP3    H243867   4.769   6.188   9.556  1.6288  0.4916 -2.1111
 6558TIP3   OH243868   6.227   0.423  11.413  0.3097  0.2313 -0.7029
 6558TIP3    H143869   6.137   0.392  11.426 -0.4369  2.2694 -0.7249
 6558TIP3    H243870   6.256   0.378  11.334 -0.7749 -0.2756 -0.8409
 6559TIP3   OH243871   2.041   3.970  11.084  0.3913  0.5310  0.1415
 6559TIP3    H143872   2.081   3.889  11.116  1.4856  0.6929 -0.7498
 6559TIP3    H243873   2.111   4.013  11.033 -0.5577  1.4101 -0.4640
 6560TIP3   OH243874   5.004   2.252  11.121  0.0313  0.4622 -0.3504
 6560TIP3    H143875   5.044   2.177  11.076  0.6852  0.0333  0.8938
 6560TIP3    H243876   5.075   2.317  11.126 -0.8253  1.6502 -2.3816
 6561TIP3   OH243877   4.326   0.749  12.446  0.4266 -0.0080  0.5090
 6561TIP3    H143878   4.292   0.830  12.482  0.0799 -0.6106  1.5965
 6561TIP3    H243879   4.411   0.772  12.408 -0.1734  1.0669 -0.2205
 6562TIP3   OH243880   5.868   3.296   8.890 -0.3574  0.7701 -0.1761
 6562TIP3    H143881   5.932   3.226   8.877 -0.9053 -0.0982  1.5121
 6562TIP3    H243882   5.905   3.349   8.960  0.0299  2.2025 -1.4159
 6563TIP3   OH243883   3.330   0.337   9.663 -0.1704  0.3363 -0.1043
 6563TIP3    H143884   3.240   0.334   9.629 -0.0113  0.6093 -0.5451
 6563TIP3    H243885   3.382   0.291   9.598 -0.0129  0.0313  0.2346
 6564TIP3   OH243886   0.893   1.655  11.463 -0.4559  0.4810  0.3044
 6564TIP3    H143887   0.899   1.561  11.447 -0.9186  0.6009 -0.6500
 6564TIP3    H243888   0.955   1.671  11.534  0.0320 -0.4611  0.1120
 6565TIP3   OH243889   4.449   2.906  10.451  0.3815  0.8911  0.0734
 6565TIP3    H143890   4.361   2.920  10.485  0.5754  1.0857  0.4981
 6565TIP3    H243891   4.450   2.954  10.368 -0.5766 -0.8396 -1.0051
 6566TIP3   OH243892   0.827   4.808   9.320 -0.3934 -0.7616  0.1571
 6566TIP3    H143893   0.744   4.777   9.284 -0.7170 -0.7030  0.8193
 6566TIP3    H243894   0.848   4.886   9.269 -0.6687 -0.8668 -0.1206
 6567TIP3   OH243895   3.864   6.594  11.502 -0.2403 -0.0141 -0.2235
 6567TIP3    H143896   3.922   6.527  11.538 -1.6673 -0.6371  1.0013
 6567TIP3    H243897   3.849   6.568  11.411  1.2812  0.1141 -0.5444
 6568TIP3   OH243898   4.425   5.089  12.202 -0.5133 -0.2531  0.2724
 6568TIP3    H143899   4.366   5.085  12.277 -0.4269  0.1855  0.3661
 6568TIP3    H243900   4.405   5.173  12.161 -1.5225 -1.0609 -0.9930
 6569TIP3   OH243901   4.970   3.369  11.148  0.2920  0.5190 -0.5111
 6569TIP3    H143902   5.012   3.317  11.080 -0.2935  0.4152 -0.7975
 6569TIP3    H243903   4.964   3.310  11.223  1.9855  0.9877  0.0294
 6570TIP3   OH243904   4.600   0.767  10.175 -0.6750 -0.5700  0.0481
 6570TIP3    H143905   4.685   0.796  10.211 -1.1627  0.5487  0.3471
 6570TIP3    H243906   4.599   0.673  10.191  0.2309 -0.4991  0.6566
 6571TIP3   OH243907   1.631   5.988   9.465 -1.1355 -0.1562  0.0265
 6571TIP3    H143908   1.633   6.021   9.555  0.2355  0.2635 -0.1349
 6571TIP3    H243909   1.646   6.066   9.411 -0.7858 -0.5892 -0.5019
 6572TIP3   OH243910   0.605   5.780  10.469  0.1931 -0.2613 -0.0687
 6572TIP3    H143911   0.633   5.699  10.511 -2.9135  0.3032  3.5497
 6572TIP3    H243912   0.657   5.848  10.511 -1.4663  0.1072  1.4927
 6573TIP3   OH243913   2.761   1.539  10.604  0.4781  0.1653  0.2129
 6573TIP3    H143914   2.670   1.530  10.577  0.4229  0.7582  0.1900
 6573TIP3    H243915   2.763   1.618  10.657  1.1809  0.7812 -0.7058
 6574TIP3   OH243916   5.842   5.684   8.951 -0.4892  0.3606  0.2758
 6574TIP3    H143917   5.927   5.677   8.907 -0.0317 -0.4403  1.2546
 6574TIP3    H243918   5.842   5.771   8.990  0.4142 -0.0821  1.3093
 6575TIP3   OH243919   2.666   3.115  10.620  0.6495 -0.3869  0.1099
 6575TIP3    H143920   2.620   3.066  10.552 -0.4138 -0.3111  0.7526
 6575TIP3    H243921   2.754   3.078  10.619  1.8690  2.0117 -3.7409
 6576TIP3   OH243922   6.121   5.201  11.739 -0.0227  0.1079  0.3275
 6576TIP3    H143923   6.176   5.212  11.816 -0.1465  0.1921  0.4056
 6576TIP3    H243924   6.047   5.260  11.754 -1.2691 -1.6127  1.2725
 6577TIP3   OH243925   2.521   5.758  10.921  0.0793 -0.7904  0.0267
 6577TIP3    H143926   2.611   5.761  10.954 -0.4488  0.0841  1.5108
 6577TIP3    H243927   2.529   5.775  10.827  1.5248 -1.6082 -0.0253
 6578TIP3   OH243928   0.076   0.998  10.873 -0.4208 -0.4030 -0.4253
 6578TIP3    H143929   0.079   0.903  10.874  0.6135 -0.4334 -2.4700
 6578TIP3    H243930   0.018   1.020  10.800 -1.9780  0.5759  1.0313
 6579TIP3   OH243931   1.180   0.710  12.070  0.2811  0.2365  0.0035
 6579TIP3    H143932   1.266   0.677  12.042  0.1896  1.4916 -1.9251
 6579TIP3    H243933   1.199   0.792  12.115  0.2867 -0.9887  2.3807
 6580TIP3   OH243934   2.037   6.051   9.059  0.6536  0.0715  0.5431
 6580TIP3    H143935   2.067   6.132   9.017  1.9541  0.3290  1.8903
 6580TIP3    H243936   1.966   6.020   9.003  1.3058  1.2019 -0.9870
 6581TIP3   OH243937   6.561   5.032  10.508 -0.1585 -0.1990  0.3541
 6581TIP3    H143938   6.571   5.102  10.443 -1.3195  2.1165  2.4572
 6581TIP3    H243939   6.466   5.026  10.521  0.0597  0.4443  2.7372
 6582TIP3   OH243940   2.516   1.253  11.279  0.3629 -0.3295 -0.5900
 6582TIP3    H143941   2.553   1.305  11.207 -1.9264  1.1013 -0.8407
 6582TIP3    H243942   2.469   1.317  11.332  1.7455 -1.3980  2.0989
 6583TIP3   OH243943   0.291   4.176   9.098  0.4460  0.1173 -0.2893
 6583TIP3    H143944   0.281   4.197   9.006  0.3487  0.9828 -0.0883
 6583TIP3    H243945   0.225   4.108   9.114 -0.9063  1.3518 -0.4180
 6584TIP3   OH243946   6.617   2.861  10.908  0.0070  0.8101 -0.7427
 6584TIP3    H143947   6.633   2.789  10.847  0.5529  0.1256  0.1699
 6584TIP3    H243948   6.672   2.840  10.984 -1.4778  1.0296  0.4528
 6585TIP3   OH243949   2.096   5.922   9.903 -0.3078 -0.1540  0.2400
 6585TIP3    H143950   2.086   6.012   9.873  2.0941 -0.0456 -0.5049
 6585TIP3    H243951   2.137   5.929   9.989  0.9845 -0.4843 -0.3148
 6586TIP3   OH243952   5.897   4.356   9.427 -0.2459 -0.7133 -0.0700
 6586TIP3    H143953   5.983   4.388   9.400  0.7180 -1.9360  1.3665
 6586TIP3    H243954   5.846   4.435   9.441  1.3818  0.1795  1.2698
 6587TIP3   OH243955   0.393   3.816  11.246  0.2818  0.2977  0.4769
 6587TIP3    H143956   0.340   3.832  11.168 -1.4630 -0.1949  1.5268
 6587TIP3    H243957   0.441   3.735  11.225 -1.5667 -0.8726  0.5751
 6588TIP3   OH243958   5.657   3.413   8.720  1.0212 -0.4406  0.0276
 6588TIP3    H143959   5.710   3.347   8.765 -0.0100 -1.9693 -0.8858
 6588TIP3    H243960   5.720   3.476   8.687  2.2028 -1.7011 -0.2156
 6589TIP3   OH243961   4.874   1.963  11.752 -0.3822  1.1144 -0.2544
 6589TIP3    H143962   4.935   1.890  11.738  1.6874  2.5313  0.9070
 6589TIP3    H243963   4.797   1.922  11.791  0.4189 -0.5485 -0.3266
 6590TIP3   OH243964   2.951   3.116   9.190  0.0083 -0.5136 -0.0206
 6590TIP3    H143965   2.942   3.025   9.160 -0.8095  0.2614 -2.3360
 6590TIP3    H243966   2.892   3.122   9.265 -1.7578 -1.3108 -1.2961
 6591TIP3   OH243967   0.686   2.363  10.183 -0.4857  0.3509  0.3827
 6591TIP3    H143968   0.684   2.332  10.274 -0.8848  1.7840  0.8916
 6591TIP3    H243969   0.604   2.411  10.173 -0.1075  0.8132 -0.5207
 6592TIP3   OH243970   0.877   3.229   8.792  0.1809 -0.5182 -0.4215
 6592TIP3    H143971   0.795   3.212   8.839 -0.3808  2.3938 -0.1373
 6592TIP3    H243972   0.894   3.149   8.743 -2.3521 -1.5427  0.2271
 6593TIP3   OH243973   5.718   0.304   9.302 -0.1588  0.1373  0.4175
 6593TIP3    H143974   5.752   0.391   9.320  0.6639 -0.2452  0.7631
 6593TIP3    H243975   5.759   0.278   9.220 -0.8100  0.2824  0.0429
 6594TIP3   OH243976   2.820   5.603   9.311  0.6977  0.0512  0.2644
 6594TIP3    H143977   2.904   5.641   9.340  0.9973  0.6317 -1.3061
 6594TIP3    H243978   2.829   5.510   9.332  0.9302  0.4047  1.9173
 6595TIP3   OH243979   4.901   1.199  11.735 -0.1493 -0.0067 -0.2045
 6595TIP3    H143980   4.990   1.164  11.739  0.4304  1.0340 -2.5735
 6595TIP3    H243981   4.904   1.278  11.789  0.7365  0.7049 -1.2565
 6596TIP3   OH243982   1.031   4.037   9.955  0.0819 -0.1167 -0.4002
 6596TIP3    H143983   1.031   3.947   9.987  0.6932  0.0057 -0.0440
 6596TIP3    H243984   0.987   4.032   9.870  1.1531 -0.9602 -0.9264
 6597TIP3   OH243985   2.461   3.261   8.714  0.3239  0.1311 -0.0817
 6597TIP3    H143986   2.492   3.350   8.696  1.5459 -0.3613 -0.5252
 6597TIP3    H243987   2.523   3.204   8.668 -1.8541 -0.9037 -1.9614
 6598TIP3   OH243988   5.368   3.343   9.279  0.0655  0.0932 -0.2253
 6598TIP3    H143989   5.401   3.416   9.331  0.9464 -0.5586  0.1611
 6598TIP3    H243990   5.446   3.290   9.260 -0.5093 -0.5779 -0.7621
 6599TIP3   OH243991   6.298   1.802  10.926  0.4224  0.2547 -0.3826
 6599TIP3    H143992   6.341   1.774  11.007  0.0364  0.3529 -0.1443
 6599TIP3    H243993   6.225   1.857  10.955 -0.3109 -0.5093 -0.7589
 6600TIP3   OH243994   1.612   3.970   9.275 -0.2991  0.4040  0.6762
 6600TIP3    H143995   1.660   3.927   9.203 -0.6813  1.1046 -0.0142
 6600TIP3    H243996   1.554   3.902   9.308  2.1065 -0.9329  2.5049
 6601TIP3   OH243997   3.254   1.899   9.372 -0.3094 -0.0336 -0.4009
 6601TIP3    H143998   3.262   1.907   9.467  0.4818 -1.9076 -0.2603
 6601TIP3    H243999   3.337   1.932   9.338  0.5695 -1.8701 -0.2022
 6602TIP3   OH244000   2.913   0.246   9.681 -0.3309  0.0833  0.8415
 6602TIP3    H144001   2.958   0.243   9.765  0.4292  0.3296  0.4593
 6602TIP3    H244002   2.822   0.224   9.701  0.0989 -1.1693  1.5468
 6603TIP3   OH244003   5.513   0.334  10.293 -0.1989 -0.1327 -0.2258
 6603TIP3    H144004   5.593   0.288  10.269 -0.0633 -0.4317  0.7660
 6603TIP3    H244005   5.538   0.391  10.366  0.2323  3.3868 -2.8506
 6604TIP3   OH244006   0.492   0.885  11.288 -0.4007 -0.4045  0.5572
 6604TIP3    H144007   0.397   0.878  11.294 -0.4429  0.3837  0.9097
 6604TIP3    H244008   0.513   0.969  11.329  0.5055 -0.8510  1.0328
 6605TIP3   OH244009   5.531   2.874  11.441 -0.5302  0.3461 -0.2870
 6605TIP3    H144010   5.504   2.960  11.408  0.3693  1.1633  1.0723
 6605TIP3    H244011   5.626   2.877  11.444 -0.5414  0.3977  2.5207
 6606TIP3   OH244012   0.174   0.955   9.779 -0.0425  0.1298 -0.1697
 6606TIP3    H144013   0.079   0.944   9.781 -0.1460  0.1904 -2.5131
 6606TIP3    H244014   0.194   0.977   9.688  2.2828 -0.4397  0.1462
 6607TIP3   OH244015   3.367   0.170   9.018 -0.2478  0.3284 -0.7972
 6607TIP3    H144016   3.334   0.184   9.107  0.5988  0.2142 -0.4549
 6607TIP3    H244017   3.299   0.208   8.962  0.2100  2.4415 -0.0313
 6608TIP3   OH244018   3.499   2.782  10.079  0.2679  0.5063 -0.1526
 6608TIP3    H144019   3.520   2.710  10.138 -1.4299 -0.7039 -0.9428
 6608TIP3    H244020   3.408   2.767  10.054 -0.3969  3.3862  0.2334
 6609TIP3   OH244021   5.200   1.449  10.623 -0.7446  0.1836 -0.2293
 6609TIP3    H144022   5.211   1.543  10.607 -0.0539  0.2323  0.4570
 6609TIP3    H244023   5.136   1.421  10.558 -0.6357  1.0463 -0.7291
 6610TIP3   OH244024   1.798   5.685  17.811  0.2580 -0.1604  0.5342
 6610TIP3    H144025   1.864   5.615  17.808  2.4108  1.7677 -1.2558
 6610TIP3    H244026   1.754   5.680  17.727 -0.9864 -0.5611  1.1869
 6611TIP3   OH244027   1.375   4.825   8.595  0.5506 -0.1585 -0.1640
 6611TIP3    H144028   1.290   4.806   8.555  1.2339 -0.2896 -1.5971
 6611TIP3    H244029   1.413   4.739   8.613  0.6070 -0.1046 -0.0278
 6612TIP3   OH244030   0.147   1.178   9.293 -0.0355 -0.2078 -0.2595
 6612TIP3    H144031   0.188   1.240   9.353 -0.1840 -0.9554  0.6481
 6612TIP3    H244032   0.202   1.180   9.215  0.7816  0.0329  0.3027
 6613TIP3   OH244033   6.422   2.085  11.976 -0.1371 -0.2818  0.2451
 6613TIP3    H144034   6.513   2.113  11.968 -0.4490  1.0548  1.1667
 6613TIP3    H244035   6.426   1.990  11.964  1.3855 -0.2701  0.4086
 6614TIP3   OH244036   5.304   4.323  10.526  0.1114 -0.4475  0.1798
 6614TIP3    H144037   5.227   4.281  10.562 -0.6919 -0.1014 -1.0718
 6614TIP3    H244038   5.330   4.267  10.453  0.0349  0.3053 -0.4431
 6615TIP3   OH244039   2.173   2.646   9.624  0.2680  0.1635 -0.3363
 6615TIP3    H144040   2.235   2.618   9.557 -1.2013 -1.0738 -1.2665
 6615TIP3    H244041   2.193   2.591   9.699  0.9794  0.5250 -0.2570
 6616TIP3   OH244042   6.730   5.839  11.387 -0.1787  0.2517  0.1878
 6616TIP3    H144043   6.701   5.829  11.478  1.2422  0.4522  0.6863
 6616TIP3    H244044   6.665   5.792  11.336 -1.0783  0.2512  1.2968
 6617TIP3   OH244045   5.813   6.472  11.609  0.3582 -0.2135 -0.3004
 6617TIP3    H144046   5.888   6.434  11.655  0.3129 -0.6496 -0.5745
 6617TIP3    H244047   5.810   6.425  11.525  0.0030  0.0591 -0.4442
 6618TIP3   OH244048   3.755   0.745  11.139 -0.0591 -0.6344 -0.1374
 6618TIP3    H144049   3.732   0.795  11.217 -0.6128 -3.7327  1.8388
 6618TIP3    H244050   3.679   0.754  11.081 -0.7197 -0.3318  0.7669
 6619TIP3   OH244051   3.213   6.531   9.201 -0.0062  0.0566 -0.1370
 6619TIP3    H144052   3.223   6.465   9.132  0.0127  0.0509 -0.1290
 6619TIP3    H244053   3.128   6.572   9.184 -1.0766 -1.4993  1.1755
 6620TIP3   OH244054   6.311   5.040   9.602 -0.9183 -0.6108  0.1628
 6620TIP3    H144055   6.225   5.038   9.644 -0.4448  1.8737  1.4843
 6620TIP3    H244056   6.330   5.133   9.592  1.0879 -1.1091 -1.2671
 6621TIP3   OH244057   2.594   0.644  11.211  0.3367  0.4250  0.2303
 6621TIP3    H144058   2.569   0.617  11.299  0.0325 -0.5981 -0.1543
 6621TIP3    H244059   2.644   0.570  11.177  0.3222  0.7494 -0.5124
 6622TIP3   OH244060   3.381   3.606  12.256  0.3973  0.6389  0.5982
 6622TIP3    H144061   3.412   3.667  12.188  0.6138  0.5724  0.6372
 6622TIP3    H244062   3.287   3.599  12.240  0.4244  0.7292  0.3882
 6623TIP3   OH244063   6.389   0.576  10.095 -0.0908  0.1853 -0.5271
 6623TIP3    H144064   6.295   0.588  10.110  0.2598  1.3201  1.0273
 6623TIP3    H244065   6.416   0.655  10.049 -0.1012 -0.7728 -2.2932
 6624TIP3   OH244066   0.669   4.044  10.238 -0.3208  0.3723  0.4203
 6624TIP3    H144067   0.750   4.021  10.284 -1.0346 -0.7434  1.1624
 6624TIP3    H244068   0.606   4.060  10.308 -1.1498 -0.3226 -0.1589
 6625TIP3   OH244069   1.723   3.580   9.608 -0.0177 -0.2179  0.1871
 6625TIP3    H144070   1.745   3.605   9.698  0.1243 -1.2396  0.4568
 6625TIP3    H244071   1.631   3.604   9.598  0.1983  0.6980  0.3047
 6626TIP3   OH244072   5.961   2.033  10.429 -0.1250 -0.1896  0.4138
 6626TIP3    H144073   5.878   2.037  10.381  0.3628  1.3751 -0.3998
 6626TIP3    H244074   6.001   2.119  10.414  0.9224 -0.3329  2.1085
 6627TIP3   OH244075   5.088   2.407  10.773 -0.0227 -0.7773 -0.0646
 6627TIP3    H144076   5.147   2.333  10.762  2.0248  0.7233  0.2807
 6627TIP3    H244077   5.144   2.479  10.801 -2.0637  0.6940  0.5041
 6628TIP3   OH244078   0.473   3.479  10.285  0.0743 -0.2732 -0.3904
 6628TIP3    H144079   0.502   3.477  10.194 -1.9041 -1.6947 -1.0414
 6628TIP3    H244080   0.395   3.424  10.288  0.2512 -0.5434  2.2496
 6629TIP3   OH244081   2.896   2.831  10.090 -0.1219 -0.1903  0.3118
 6629TIP3    H144082   2.859   2.745  10.109 -0.6699 -0.0230  0.0243
 6629TIP3    H244083   2.990   2.815  10.081  0.0610 -0.4358  2.1627
 6630TIP3   OH244084   3.955   2.816  11.536 -0.3034 -0.3428 -0.1709
 6630TIP3    H144085   3.889   2.836  11.603 -1.0493 -0.5242 -0.8372
 6630TIP3    H244086   3.976   2.724  11.549 -0.6740 -0.4578 -0.3769
 6631TIP3   OH244087   0.264   5.241   9.517  0.3920  1.3747  0.2772
 6631TIP3    H144088   0.256   5.165   9.460 -0.8843  1.6903  0.0075
 6631TIP3    H244089   0.344   5.285   9.487  1.7444 -0.3690  1.1047
 6632TIP3   OH244090   2.325   0.728   9.914 -0.2883 -0.2200  0.3562
 6632TIP3    H144091   2.419   0.744   9.909  0.0654 -2.2977 -1.4051
 6632TIP3    H244092   2.288   0.811   9.943  2.0765  0.6147  1.2491
 6633TIP3   OH244093   3.629   2.617  11.959  0.0096  0.0556 -0.1654
 6633TIP3    H144094   3.695   2.686  11.960  0.5795 -0.4601 -0.9267
 6633TIP3    H244095   3.630   2.585  11.869 -3.6208  2.2295 -1.1865
 6634TIP3   OH244096   5.915   2.814  10.083  0.0897  0.2989  0.2956
 6634TIP3    H144097   5.847   2.861  10.132  0.4334  1.5190 -0.3664
 6634TIP3    H244098   5.938   2.740  10.139 -0.3536  1.0032  1.4388
 6635TIP3   OH244099   4.654   0.027  11.646 -0.5107  0.1866  0.4667
 6635TIP3    H144100   4.614   0.038  11.733 -0.4452 -3.0252  1.0355
 6635TIP3    H244101   4.737  -0.018  11.663 -1.4515 -2.4538 -1.2821
 6636TIP3   OH244102   4.510   5.260   9.399  0.0504 -0.2762  0.3746
 6636TIP3    H144103   4.554   5.301   9.324 -0.5564 -0.6944 -0.2226
 6636TIP3    H244104   4.428   5.309   9.408  0.7109  0.6561  1.6352
 6637TIP3   OH244105   5.416   3.607  11.173 -0.1851 -0.2119  0.0659
 6637TIP3    H144106   5.430   3.697  11.204 -1.1127  0.5249 -1.5288
 6637TIP3    H244107   5.321   3.595  11.176 -0.1372 -0.8100 -0.5864
 6638TIP3   OH244108   1.184   0.955  10.837  0.3716  0.2367  0.3282
 6638TIP3    H144109   1.220   0.866  10.828 -0.2050 -0.0198  0.5601
 6638TIP3    H244110   1.231   1.005  10.770  0.4088 -0.3315 -0.0831
 6639TIP3   OH244111   0.807   5.742  10.955  0.6195 -0.6595  0.2427
 6639TIP3    H144112   0.816   5.766  11.047 -0.1110  1.3947 -0.1640
 6639TIP3    H244113   0.736   5.797  10.923  0.1777 -2.0652 -1.3305
 6640TIP3   OH244114   2.918   2.848   9.051  0.0453 -0.5438 -0.1559
 6640TIP3    H144115   2.898   2.808   8.967 -2.7819 -0.9603  0.6096
 6640TIP3    H244116   2.932   2.774   9.110  1.6682 -0.2537 -0.1152
 6641TIP3   OH244117   4.973   0.759  11.717  0.0900  0.0595  0.0367
 6641TIP3    H144118   4.942   0.829  11.659  1.2158 -0.2875 -1.0379
 6641TIP3    H244119   4.900   0.743  11.777 -0.4941  1.5748 -0.2258
 6642TIP3   OH244120   3.480   4.147  10.164  0.6126  0.0144 -0.5272
 6642TIP3    H144121   3.457   4.221  10.221 -0.2494 -0.6010 -0.0659
 6642TIP3    H244122   3.484   4.185  10.076 -0.7510  0.4402 -0.4304
 6643TIP3   OH244123   1.636   5.210  10.067  0.5235  0.3694  0.2859
 6643TIP3    H144124   1.573   5.139  10.081  1.5711 -0.2072  2.4626
 6643TIP3    H244125   1.676   5.190   9.983 -1.1920 -0.0154 -0.4877
 6644TIP3   OH244126   0.318   3.650  10.870 -0.2941  0.0913 -0.8653
 6644TIP3    H144127   0.376   3.726  10.865  1.6606 -1.3819 -1.9151
 6644TIP3    H244128   0.311   3.620  10.779 -0.0026 -1.7013 -0.3231
 6645TIP3   OH244129   5.631   0.907  11.363  0.3519 -0.9391 -0.1007
 6645TIP3    H144130   5.538   0.932  11.369  0.6709  0.3007  0.1001
 6645TIP3    H244131   5.666   0.965  11.295  1.8194  1.5227  2.5182
 6646TIP3   OH244132   0.414   3.166   9.560  0.7666 -0.1443 -0.4238
 6646TIP3    H144133   0.337   3.120   9.528 -0.2310  1.4230 -0.3944
 6646TIP3    H244134   0.454   3.205   9.482  1.2821 -0.5842 -0.3840
 6647TIP3   OH244135   1.264   4.906  10.899 -0.4159  0.4420  0.0643
 6647TIP3    H144136   1.310   4.913  10.983 -0.3728  0.2390  0.0596
 6647TIP3    H244137   1.196   4.973  10.903 -0.7731  0.0644  0.4926
 6648TIP3   OH244138   3.848   3.881   9.669  0.0835 -0.1845 -0.0930
 6648TIP3    H144139   3.789   3.878   9.594  0.5590 -0.2465 -0.4723
 6648TIP3    H244140   3.822   3.806   9.724  0.7848 -1.1304 -1.0094
 6649TIP3   OH244141   5.778   5.786  10.820 -0.4018  0.1014  0.0371
 6649TIP3    H144142   5.791   5.691  10.813 -1.7802 -0.0541 -0.6212
 6649TIP3    H244143   5.741   5.812  10.736  0.2095  1.2870  0.1050
 6650TIP3   OH244144   4.074   1.720   9.769  0.2579 -0.6154  0.9633
 6650TIP3    H144145   4.139   1.736   9.838  0.0745 -1.1612  1.2672
 6650TIP3    H244146   4.016   1.796   9.772  2.4422  1.2884 -1.1506
 6651TIP3   OH244147   2.139   0.094  12.016  0.8868 -0.6179 -0.2570
 6651TIP3    H144148   2.163   0.077  11.925 -1.0536  1.2887 -1.2136
 6651TIP3    H244149   2.199   0.164  12.044 -0.8208  1.3786 -1.3483
 6652TIP3   OH244150   3.284   0.814  10.599  0.2273 -0.3746 -0.2818
 6652TIP3    H144151   3.240   0.827  10.515  0.2343 -1.3476 -0.4447
 6652TIP3    H244152   3.377   0.823  10.579  0.3492 -2.1332 -0.7196
 6653TIP3   OH244153   1.753   4.926  10.109  0.2045  0.3697 -0.2342
 6653TIP3    H144154   1.697   4.965  10.177  1.1525 -0.4961  1.0990
 6653TIP3    H244155   1.729   4.833  10.110  0.5238  0.2795 -0.8043
 6654TIP3   OH244156   6.276   4.184   9.696  0.5712 -0.3560 -0.1657
 6654TIP3    H144157   6.335   4.116   9.662  0.7134 -0.0120 -0.6111
 6654TIP3    H244158   6.267   4.246   9.624  0.6345  0.2290  0.3228
 6655TIP3   OH244159   0.318   0.716   9.089 -0.1589 -0.0950  0.0639
 6655TIP3    H144160   0.282   0.774   9.022 -0.5581 -0.5048 -0.0799
 6655TIP3    H244161   0.350   0.775   9.157  0.0658  0.3172 -0.3921
 6656TIP3   OH244162   5.044   4.884  10.455  0.2038  0.3396 -0.1218
 6656TIP3    H144163   5.041   4.965  10.404 -1.3218 -0.4810 -1.4066
 6656TIP3    H244164   5.062   4.816  10.391  0.1852 -0.4849  0.7353
 6657TIP3   OH244165   3.662   5.215  10.198  0.0324  0.3384  0.0379
 6657TIP3    H144166   3.592   5.278  10.178 -0.6936 -1.1371 -2.5599
 6657TIP3    H244167   3.741   5.256  10.163  0.2284  1.2713  1.4820
 6658TIP3   OH244168   6.307   0.297  10.897 -0.5490 -0.3094 -0.5751
 6658TIP3    H144169   6.384   0.322  10.846  0.1231 -0.7174  0.2209
 6658TIP3    H244170   6.254   0.246  10.835  0.1172 -0.5624 -0.9573
 6659TIP3   OH244171   2.440   4.085  11.758  0.4120 -0.1547 -0.4741
 6659TIP3    H144172   2.379   4.011  11.768  0.3111  0.0485  0.4741
 6659TIP3    H244173   2.389   4.162  11.783  1.2585 -0.0697  1.1380
 6660TIP3   OH244174   5.427   2.235  11.635 -0.2479  0.5211 -0.4097
 6660TIP3    H144175   5.443   2.321  11.674  0.5178  0.8595 -1.4398
 6660TIP3    H244176   5.357   2.250  11.571 -1.4566 -0.0208  0.7219
 6661TIP3   OH244177   5.330   1.964  10.848  0.4808 -0.4652 -0.3069
 6661TIP3    H144178   5.369   1.957  10.761  3.0087 -1.1502  0.7923
 6661TIP3    H244179   5.345   1.878  10.888  0.5214  0.2178  1.2229
 6662TIP3   OH244180   1.322   6.030  10.440  0.4817 -0.1520 -0.1333
 6662TIP3    H144181   1.296   6.038  10.532  0.6984 -0.6005 -0.0321
 6662TIP3    H244182   1.367   5.946  10.435 -0.0433 -0.4028 -0.7776
 6663TIP3   OH244183   2.545   1.695  10.466  0.7322 -0.4752 -0.1616
 6663TIP3    H144184   2.527   1.652  10.382 -1.7120  0.1982 -0.0327
 6663TIP3    H244185   2.632   1.734  10.453  0.7407 -0.9928 -2.1076
 6664TIP3   OH244186   3.397   3.980   9.346  0.0245  0.1130 -0.0978
 6664TIP3    H144187   3.335   4.042   9.308  1.0580  2.1790  1.4100
 6664TIP3    H244188   3.349   3.940   9.419 -0.3678 -0.2885 -0.5628
 6665TIP3   OH244189   6.613   5.539  10.210 -1.1548 -0.3262 -0.6799
 6665TIP3    H144190   6.588   5.566  10.298 -2.9867 -0.3734 -1.1557
 6665TIP3    H244191   6.688   5.595  10.189  1.9681 -2.9437  2.3166
 6666TIP3   OH244192   3.509   2.743   8.813  0.1296  0.5546 -0.3042
 6666TIP3    H144193   3.512   2.659   8.858 -1.2948  0.7131  0.1278
 6666TIP3    H244194   3.595   2.750   8.770  1.1169 -0.0870  1.4694
 6667TIP3   OH244195   0.943   2.108  10.681 -0.3616  0.7553 -0.2056
 6667TIP3    H144196   0.915   2.067  10.599  1.1269  0.0581 -0.3891
 6667TIP3    H244197   1.016   2.055  10.711 -0.1390  1.6925  0.9872
 6668TIP3   OH244198   0.875   6.418   9.416 -0.2183  0.6050  0.0340
 6668TIP3    H144199   0.959   6.417   9.461 -1.2992  0.4970  2.1847
 6668TIP3    H244200   0.822   6.481   9.464 -1.2573  0.9990 -1.5336
 6669TIP3   OH244201   2.820   2.625   9.682 -0.4702  0.2579 -0.4731
 6669TIP3    H144202   2.796   2.534   9.668  0.0030  0.2222 -1.0835
 6669TIP3    H244203   2.744   2.675   9.650 -0.6932  0.0852 -0.2150
 6670TIP3   OH244204   1.023   1.482   9.476 -0.0297 -0.4852 -0.3462
 6670TIP3    H144205   1.034   1.480   9.571  1.6714  2.1547 -0.3715
 6670TIP3    H244206   1.004   1.574   9.456  1.6552 -0.5561 -2.6990
 6671TIP3   OH244207   0.644   2.795   9.394  0.3548 -0.2199 -0.5076
 6671TIP3    H144208   0.730   2.801   9.434  0.0113  1.3742  0.0580
 6671TIP3    H244209   0.618   2.703   9.407  2.0566 -0.7962 -0.9459
 6672TIP3   OH244210   6.576   1.974   8.882  0.4381 -0.3652 -0.3313
 6672TIP3    H144211   6.614   1.926   8.809  0.3026 -0.1739 -0.5268
 6672TIP3    H244212   6.528   1.908   8.932 -0.4626 -0.2898 -1.0637
 6673TIP3   OH244213   5.784   1.467  11.302 -0.3328 -0.0933  0.0309
 6673TIP3    H144214   5.723   1.473  11.375 -0.9305  0.3546 -0.4987
 6673TIP3    H244215   5.729   1.466  11.224  0.2536 -1.3336 -0.4010
 6674TIP3   OH244216   4.174   6.377  12.126 -0.0498 -0.7160  0.1862
 6674TIP3    H144217   4.252   6.347  12.173 -1.3232 -2.5401  1.2966
 6674TIP3    H244218   4.207   6.416  12.045  2.0219 -0.8593  0.9132
 6675TIP3   OH244219   2.326   1.633  10.696  0.4060 -0.1089  0.0481
 6675TIP3    H144220   2.386   1.604  10.627 -0.2377 -0.3386 -0.4227
 6675TIP3    H244221   2.366   1.713  10.730 -0.6954  1.6576 -2.5476
 6676TIP3   OH244222   6.289   5.055   8.998  0.2920 -0.6415 -0.1252
 6676TIP3    H144223   6.310   5.106   9.076  0.5724 -2.0143  0.7413
 6676TIP3    H244224   6.362   5.071   8.938 -0.4976  1.3552 -0.6271
 6677TIP3   OH244225   2.651   2.736  10.381  0.0696  0.3388 -0.2615
 6677TIP3    H144226   2.591   2.774  10.317 -0.1403 -0.4178 -0.5138
 6677TIP3    H244227   2.682   2.812  10.432 -2.2786  0.6080  0.8935
 6678TIP3   OH244228   3.097   0.507   8.788 -0.0266  0.7806 -0.6824
 6678TIP3    H144229   3.115   0.600   8.770  2.1833 -0.1146 -3.9628
 6678TIP3    H244230   3.021   0.486   8.734 -2.3631  1.1695  2.1957
 6679TIP3   OH244231   3.416   4.516  11.227  0.0121 -0.0688  0.0403
 6679TIP3    H144232   3.371   4.596  11.202  1.1807 -0.1291 -2.6197
 6679TIP3    H244233   3.400   4.455  11.154  1.0057 -1.4542  0.9263
 6680TIP3   OH244234   0.481   1.029  11.723 -0.0605  0.8821  0.0924
 6680TIP3    H144235   0.546   1.000  11.787 -0.1615 -0.0991 -0.2249
 6680TIP3    H244236   0.523   1.013  11.638 -1.0185 -0.5601 -0.1397
 6681TIP3   OH244237   6.052   3.220  10.090 -0.0240 -0.2740 -1.2541
 6681TIP3    H144238   6.026   3.184  10.005 -3.4754  0.4120 -0.6449
 6681TIP3    H244239   6.017   3.310  10.089  1.8231  0.5193  0.0804
 6682TIP3   OH244240   2.211   1.948   9.548  0.1803  0.4924  0.3261
 6682TIP3    H144241   2.121   1.931   9.520  0.6411 -1.5852 -0.0184
 6682TIP3    H244242   2.233   2.032   9.507 -1.4747  0.8694  0.1420
 6683TIP3   OH244243   5.748   5.757  11.977  0.0958 -0.3465  0.1841
 6683TIP3    H144244   5.749   5.686  11.914 -2.3523  0.0410 -0.3996
 6683TIP3    H244245   5.734   5.836  11.925 -3.4536 -0.1594  1.1079
 6684TIP3   OH244246   1.920   1.547  11.579  0.2929 -0.1745  0.4924
 6684TIP3    H144247   1.987   1.606  11.614  0.8533 -1.1332  1.0598
 6684TIP3    H244248   1.934   1.464  11.624 -1.7287 -0.2195  1.1550
 6685TIP3   OH244249   1.675   3.091  11.776 -0.2170  0.2579  0.4902
 6685TIP3    H144250   1.588   3.062  11.748 -0.6416  1.4600  0.5359
 6685TIP3    H244251   1.681   3.061  11.867 -1.0212  1.0930  0.8358
 6686TIP3   OH244252   4.971   2.273  10.421  0.0258  0.0441 -0.5612
 6686TIP3    H144253   4.958   2.227  10.504  0.5412  0.2176 -0.3858
 6686TIP3    H244254   5.062   2.303  10.423  0.1972 -0.3871 -1.4075
 6687TIP3   OH244255   1.812   5.449  11.194  0.0404 -0.3389 -0.1846
 6687TIP3    H144256   1.888   5.498  11.161  0.8678 -0.6473  1.1638
 6687TIP3    H244257   1.791   5.388  11.123 -0.6123  1.4784 -1.6401
 6688TIP3   OH244258   0.952   0.177   8.772 -0.2827  0.1650  0.0026
 6688TIP3    H144259   1.025   0.226   8.734  0.2323  0.6739  1.5496
 6688TIP3    H244260   0.987   0.088   8.785 -0.5327 -0.0675 -0.9010
 6689TIP3   OH244261   1.166   0.053  11.454  0.1878 -0.0453 -0.2082
 6689TIP3    H144262   1.254   0.041  11.489 -0.3972 -0.3585  1.2553
 6689TIP3    H244263   1.177   0.108  11.377  1.4932  1.4093  0.9598
 6690TIP3   OH244264   2.946   6.539  11.613  0.3335 -0.2454  0.1890
 6690TIP3    H144265   2.900   6.495  11.685 -1.2265  1.1533  0.1224
 6690TIP3    H244266   3.026   6.488  11.600  0.0719 -1.2283  2.1111
 6691TIP3   OH244267   4.542   0.056  10.043 -0.1053  0.3708 -0.4687
 6691TIP3    H144268   4.630   0.034  10.012 -0.3373  1.1915 -1.7798
 6691TIP3    H244269   4.537   0.151  10.037 -1.1787  0.3179 -0.6447
 6692TIP3   OH244270   2.282   4.129  10.281 -0.8001 -0.3476 -0.2559
 6692TIP3    H144271   2.374   4.104  10.276 -0.3085  1.5240 -1.9860
 6692TIP3    H244272   2.253   4.098  10.367  0.9722 -2.4031 -0.3290
 6693TIP3   OH244273   4.281   0.528  10.274  0.0801 -0.1747  0.4807
 6693TIP3    H144274   4.300   0.622  10.283  1.0354 -0.4203  1.1285
 6693TIP3    H244275   4.356   0.484  10.313 -0.5814 -1.2195  0.6158
 6694TIP3   OH244276   3.957   1.296  10.426  0.4496  0.0458 -0.1655
 6694TIP3    H144277   4.019   1.254  10.486 -0.1892  0.8998  1.1283
 6694TIP3    H244278   3.886   1.232  10.417  0.2284  0.1860  0.5338
 6695TIP3   OH244279   5.384   5.553  11.381 -0.1597  0.1597  0.0973
 6695TIP3    H144280   5.380   5.645  11.354 -1.3770  0.3371  0.8333
 6695TIP3    H244281   5.464   5.548  11.434 -0.5445  1.0060  0.7817
 6696TIP3   OH244282   4.353   5.182  11.208  0.0402  0.1062 -0.1068
 6696TIP3    H144283   4.267   5.157  11.174 -0.2994  0.1605  0.6864
 6696TIP3    H244284   4.407   5.196  11.130 -0.4072 -0.8319 -0.5903
 6697TIP3   OH244285   3.056   0.010   8.695  0.0292 -1.0242  0.3633
 6697TIP3    H144286   3.073  -0.052   8.766 -0.2763 -1.2990  0.1998
 6697TIP3    H244287   3.095  -0.030   8.618  1.7594  0.0075  0.6532
 6698TIP3   OH244288   2.957   3.538   9.892 -0.1806 -0.5004  0.4128
 6698TIP3    H144289   2.985   3.622   9.929 -0.8108  0.0743 -0.3832
 6698TIP3    H244290   3.011   3.473   9.937  0.6854  0.3742  0.6782
 6699TIP3   OH244291   2.414   0.522  10.282 -0.0547 -0.1055 -0.3317
 6699TIP3    H144292   2.451   0.610  10.288  0.4157 -0.3171 -0.1246
 6699TIP3    H244293   2.321   0.534  10.304  0.4807 -0.0240  2.2437
 6700TIP3   OH244294   0.967   3.786   9.165  0.1682 -0.5184 -0.2365
 6700TIP3    H144295   1.033   3.735   9.118  0.4571 -1.5944  1.2404
 6700TIP3    H244296   1.015   3.861   9.200  0.4295 -0.8432  0.1093
 6701TIP3   OH244297   5.882   2.576  10.249 -0.4106  0.5154  0.0474
 6701TIP3    H144298   5.880   2.484  10.224 -0.1002  0.6135 -0.3385
 6701TIP3    H244299   5.865   2.575  10.344 -0.7701  0.0916 -0.0186
 6702TIP3   OH244300   1.921   4.372   8.906 -0.7763 -0.5393  0.3208
 6702TIP3    H144301   2.013   4.391   8.886 -0.1587 -1.6293  1.9691
 6702TIP3    H244302   1.884   4.457   8.929  0.0554 -0.2254  0.5306
 6703TIP3   OH244303   5.744   6.592  11.082 -0.2267 -0.4333  0.3960
 6703TIP3    H144304   5.675   6.654  11.107 -0.0305  0.2374 -0.6778
 6703TIP3    H244305   5.718   6.561  10.995  1.0619  0.2077 -0.2446
 6704TIP3   OH244306   4.784   6.351   9.226  0.0055 -0.0078  0.1907
 6704TIP3    H144307   4.737   6.345   9.309 -0.2603 -0.3600  0.0197
 6704TIP3    H244308   4.858   6.291   9.236  0.9161  1.1827  0.7731
 6705TIP3   OH244309   4.140   6.748  11.307 -0.2349  0.3444  0.4666
 6705TIP3    H144310   4.087   6.792  11.372 -1.9254  0.0756 -0.6644
 6705TIP3    H244311   4.078   6.724  11.238  1.5568  1.2108 -1.5617
 6706TIP3   OH244312   3.298   4.810  10.562 -0.1181 -0.0109  0.6612
 6706TIP3    H144313   3.364   4.741  10.571  1.6786  1.5495  0.1076
 6706TIP3    H244314   3.214   4.764  10.567  0.9828 -2.4591 -1.1073
 6707TIP3   OH244315   6.459   2.163   9.971  0.4954  0.2259  0.1744
 6707TIP3    H144316   6.401   2.202   9.905  0.3246  0.3227  0.3753
 6707TIP3    H244317   6.442   2.069   9.966 -1.3052  0.3845  1.6811
 6708TIP3   OH244318   2.786   3.198  11.564 -0.0516 -0.0410  0.0176
 6708TIP3    H144319   2.769   3.104  11.576 -0.8025 -0.1187 -1.4100
 6708TIP3    H244320   2.723   3.225  11.498 -0.4321  1.6853  1.0221
 6709TIP3   OH244321   3.835   4.842  10.985  0.2023 -0.2382 -0.1836
 6709TIP3    H144322   3.923   4.879  10.982 -0.0697  0.5094  0.6598
 6709TIP3    H244323   3.795   4.871  10.903  0.0800  1.1834  0.3392
 6710TIP3   OH244324   6.012   6.251  10.249 -0.0342 -0.2345  0.6492
 6710TIP3    H144325   6.053   6.201  10.320  0.2382  0.7408  1.1902
 6710TIP3    H244326   5.997   6.338  10.286  1.7213  0.8510 -1.0012
 6711TIP3   OH244327   5.146   3.281  11.547  0.2302  0.2354  0.2207
 6711TIP3    H144328   5.191   3.197  11.536 -0.0378  0.1460 -0.2298
 6711TIP3    H244329   5.062   3.269  11.502 -0.7745 -0.0055  2.0645
 6712TIP3   OH244330   2.982   5.208  10.729  0.1678 -0.5124 -0.0585
 6712TIP3    H144331   3.004   5.294  10.763 -2.1889  0.1822 -0.0710
 6712TIP3    H244332   3.066   5.168  10.705  1.4246  1.1595  1.3557
 6713TIP3   OH244333   0.165   5.614  10.743  0.0401 -0.3069 -0.3413
 6713TIP3    H144334   0.124   5.600  10.657  1.6365 -1.8701 -0.9065
 6713TIP3    H244335   0.225   5.687  10.729 -1.6516  1.2733  0.2144
 6714TIP3   OH244336   6.248   3.842   9.170 -0.1617  0.0222 -0.3881
 6714TIP3    H144337   6.296   3.907   9.222 -1.9644 -0.7489  2.4412
 6714TIP3    H244338   6.205   3.892   9.101  1.0011  1.3354 -0.1958
 6715TIP3   OH244339   4.912   5.382  10.409  0.1307 -0.6335  0.2401
 6715TIP3    H144340   4.936   5.322  10.481 -1.1876 -2.4792 -0.7687
 6715TIP3    H244341   4.816   5.375  10.404  0.0472  0.8573 -0.5592
 6716TIP3   OH244342   6.251   6.192   9.435  0.1420 -0.3372  0.1270
 6716TIP3    H144343   6.318   6.256   9.410 -1.1149  0.4177 -1.4916
 6716TIP3    H244344   6.172   6.244   9.450 -0.9297 -1.4657 -1.3117
 6717TIP3   OH244345   5.312   2.889  11.091  0.0036  0.2845 -0.6139
 6717TIP3    H144346   5.241   2.867  11.031 -1.0828  0.0260  0.7053
 6717TIP3    H244347   5.269   2.937  11.162  0.9259 -0.8811  0.7975
 6718TIP3   OH244348   6.282   6.458  10.797  0.1644  0.2340 -0.4628
 6718TIP3    H144349   6.287   6.553  10.792  3.1369  0.1800 -0.6784
 6718TIP3    H244350   6.372   6.429  10.783 -0.6921 -2.6387 -0.6653
 6719TIP3   OH244351   2.252   2.881  10.748  0.1055  0.0311 -0.4757
 6719TIP3    H144352   2.221   2.838  10.668  0.4257  1.1947 -1.2478
 6719TIP3    H244353   2.345   2.897  10.732  0.0434  0.7717 -0.0917
 6720TIP3   OH244354   2.768   2.851   8.680 -0.2589 -0.0201 -0.1983
 6720TIP3    H144355   2.834   2.789   8.712 -0.5883  0.9931  2.7511
 6720TIP3    H244356   2.817   2.915   8.629  0.4787 -1.1108 -0.9182
 6721TIP3   OH244357   2.853   1.584   8.942 -0.2774 -0.5161 -0.6359
 6721TIP3    H144358   2.925   1.641   8.967  1.0097 -1.5105 -1.9307
 6721TIP3    H244359   2.845   1.594   8.847 -1.4983 -0.8255 -0.5890
 6722TIP3   OH244360   2.255   6.168  10.237  0.3345 -0.5231  0.4569
 6722TIP3    H144361   2.200   6.228  10.287  0.6144 -0.4330  0.6615
 6722TIP3    H244362   2.302   6.117  10.303 -0.6395 -1.6773  0.2975
 6723TIP3   OH244363   3.482   0.707  11.628  0.5486  0.0332 -0.0186
 6723TIP3    H144364   3.514   0.644  11.691  2.2998 -0.7640 -1.6222
 6723TIP3    H244365   3.525   0.790  11.652 -1.8885  0.8022  2.1934
 6724TIP3   OH244366   1.367   1.928  11.060 -0.2318 -0.0015  0.2726
 6724TIP3    H144367   1.410   1.946  10.977  0.2074 -0.6481  0.3495
 6724TIP3    H244368   1.438   1.916  11.123 -0.5499  0.1494  0.6744
 6725TIP3   OH244369   3.582   3.857  10.476 -0.2063 -0.0662  0.4629
 6725TIP3    H144370   3.563   3.823  10.564 -0.2244 -0.4904  0.3002
 6725TIP3    H244371   3.634   3.787  10.435 -0.7234 -0.1380 -0.0753
 6726TIP3   OH244372   6.231   5.628  11.247 -0.0837 -0.1617  0.4700
 6726TIP3    H144373   6.252   5.595  11.334 -0.0167 -0.9507  0.1561
 6726TIP3    H244374   6.159   5.573  11.216  1.6753 -1.6916 -1.0669
 6727TIP3   OH244375   0.993   4.044   9.446 -0.5041  0.7157 -0.2977
 6727TIP3    H144376   1.026   4.104   9.379  1.7959 -0.2575 -0.1129
 6727TIP3    H244377   0.918   4.002   9.404 -0.6387  1.9176 -1.3238
 6728TIP3   OH244378   2.946   2.149  11.088 -0.3938 -0.3164 -0.1415
 6728TIP3    H144379   2.894   2.221  11.052 -0.8040  0.9337  2.6932
 6728TIP3    H244380   2.904   2.070  11.054 -0.5677  0.6870 -2.5000
 6729TIP3   OH244381   1.162   4.432   9.734 -0.2415 -0.1854 -0.0346
 6729TIP3    H144382   1.086   4.414   9.789 -1.3945 -0.7000 -1.7102
 6729TIP3    H244383   1.129   4.489   9.665  0.7427 -0.8380 -1.0925
 6730TIP3   OH244384   2.109   5.949  10.173  0.5286  0.4813  0.3485
 6730TIP3    H144385   2.144   5.888  10.237 -0.9477  0.0222  0.7459
 6730TIP3    H244386   2.155   6.031  10.190  2.2765 -0.3857  0.0458
 6731TIP3   OH244387   1.547   0.101   8.913  0.0952 -0.3177  0.3003
 6731TIP3    H144388   1.502   0.036   8.858  0.1741  0.0418 -0.1998
 6731TIP3    H244389   1.513   0.185   8.883  1.6960  0.0198 -0.6869
 6732TIP3   OH244390   5.142   1.856  12.044  0.3735 -0.0063 -1.0274
 6732TIP3    H144391   5.076   1.815  11.988 -2.2679  2.1705  0.2880
 6732TIP3    H244392   5.152   1.795  12.117 -0.7172 -0.0504 -0.9012
 6733TIP3   OH244393   4.612   5.619   9.818 -0.2139  0.0437  0.1517
 6733TIP3    H144394   4.689   5.676   9.820 -0.7522  0.7914 -0.2673
 6733TIP3    H244395   4.562   5.643   9.896 -1.2585  1.3159 -0.8724
 6734TIP3   OH244396   3.486   6.072  11.634 -0.1164 -0.1501  0.1655
 6734TIP3    H144397   3.506   5.996  11.688 -1.3302 -1.3311 -0.9593
 6734TIP3    H244398   3.391   6.084  11.643  0.0767  1.4054  0.5034
 6735TIP3   OH244399   5.246   0.252  10.179 -0.2339 -0.3819  0.3613
 6735TIP3    H144400   5.159   0.292  10.175  0.3171  0.7722 -1.3704
 6735TIP3    H244401   5.304   0.323  10.203  0.4017 -0.8048  0.1035
 6736TIP3   OH244402   5.698   1.660  10.012  0.0703 -0.8523  0.1132
 6736TIP3    H144403   5.693   1.593  10.080  1.6376 -0.4262  0.6898
 6736TIP3    H244404   5.751   1.620   9.942  2.3642  0.2331  1.1138
 6737TIP3   OH244405   1.266   6.636  12.169 -0.4168 -0.4225 -0.3879
 6737TIP3    H144406   1.253   6.580  12.093  3.0809  0.7339 -2.0650
 6737TIP3    H244407   1.340   6.598  12.215  0.2646  1.2339 -0.0305
 6738TIP3   OH244408   1.721   0.722   9.226  0.6664 -0.1098  0.2729
 6738TIP3    H144409   1.746   0.724   9.134  1.1892 -0.0966  0.4117
 6738TIP3    H244410   1.659   0.649   9.232  0.2202  0.2249 -0.1859
 6739TIP3   OH244411   6.344   6.485   8.918  0.2295  0.0774 -0.2925
 6739TIP3    H144412   6.425   6.532   8.901  0.5782 -0.1550  0.7155
 6739TIP3    H244413   6.278   6.532   8.866  0.9615  0.3562 -0.9959
 6740TIP3   OH244414   2.858   2.583  10.265  0.2107  0.5326  0.1804
 6740TIP3    H144415   2.893   2.626  10.343  0.6422  0.7456 -0.1271
 6740TIP3    H244416   2.763   2.588  10.276  0.2330 -1.0425  1.5677
 6741TIP3   OH244417   2.330   2.492  10.127  0.4130 -0.7660  0.4025
 6741TIP3    H144418   2.339   2.509  10.221  0.9339 -0.6638  0.3408
 6741TIP3    H244419   2.246   2.448  10.118 -0.6596  1.1202  0.6720
 6742TIP3   OH244420   2.236   5.773  10.332  0.1708 -0.3757  0.1773
 6742TIP3    H144421   2.185   5.697  10.302 -0.0818  0.0664 -0.5482
 6742TIP3    H244422   2.315   5.735  10.370 -0.9342 -1.1112  1.8600
 6743TIP3   OH244423   4.151   4.899  11.511 -0.2015  0.0764  0.0647
 6743TIP3    H144424   4.148   4.863  11.599  0.5399  2.1067  0.9768
 6743TIP3    H244425   4.067   4.875  11.471 -1.2804  0.5852  1.9300
 6744TIP3   OH244426   5.988   1.655  11.357  0.3515  0.1770 -0.3474
 6744TIP3    H144427   6.001   1.632  11.449  1.1060  0.2631 -0.4262
 6744TIP3    H244428   5.905   1.614  11.333  1.3225 -1.9719 -0.3090
 6745TIP3   OH244429   0.991   4.262  10.120  0.2569 -0.0781 -0.0041
 6745TIP3    H144430   0.898   4.282  10.129  0.2594 -0.1025  0.0790
 6745TIP3    H244431   0.993   4.171  10.090  0.2466  0.0295 -0.3344
 6746TIP3   OH244432   2.625   3.924   9.320 -0.4282  0.3867 -0.6241
 6746TIP3    H144433   2.651   3.998   9.266 -2.2122  1.5155 -0.0293
 6746TIP3    H244434   2.691   3.857   9.304  1.9220  2.5014 -0.3098
 6747TIP3   OH244435   0.397   4.937  11.221 -0.3535 -0.3267 -0.3051
 6747TIP3    H144436   0.478   4.896  11.191 -1.0632 -0.9105 -1.4792
 6747TIP3    H244437   0.338   4.864  11.239 -0.8357  0.1171 -0.0734
 6748TIP3   OH244438   0.370   6.035  11.060  0.4914  0.2607  0.5850
 6748TIP3    H144439   0.392   6.113  11.111  0.9192  0.5553 -0.0367
 6748TIP3    H244440   0.297   5.995  11.107  1.2175  0.2351  1.7179
 6749TIP3   OH244441   4.468   6.162  11.513  0.3363  0.1485  0.4022
 6749TIP3    H144442   4.449   6.085  11.461 -0.0991  0.2177  0.4542
 6749TIP3    H244443   4.465   6.235  11.451  0.6109  0.1411  0.3785
 6750TIP3   OH244444   2.654   5.819  12.069  0.2269 -0.6160 -0.3625
 6750TIP3    H144445   2.668   5.877  12.144 -1.6607 -1.0619  0.3967
 6750TIP3    H244446   2.652   5.731  12.107  1.7007 -1.1004 -1.3193
 6751TIP3   OH244447   2.214   5.134   9.382 -0.3459  0.3535 -0.0343
 6751TIP3    H144448   2.125   5.119   9.413 -0.2721 -0.7942 -0.3339
 6751TIP3    H244449   2.206   5.133   9.286 -0.3182  2.2901 -0.1120
 6752TIP3   OH244450   4.058   1.121   9.203  0.4759  0.1043  0.0280
 6752TIP3    H144451   3.993   1.171   9.252  0.6375  0.9813 -0.6476
 6752TIP3    H244452   4.116   1.186   9.165  0.1868 -0.5459 -1.5881
 6753TIP3   OH244453   3.850   6.155   9.559  0.0716  0.1100 -0.5170
 6753TIP3    H144454   3.844   6.209   9.637 -1.7139 -1.2382  0.3337
 6753TIP3    H244455   3.864   6.217   9.488 -1.9661  1.7254  0.4068
 6754TIP3   OH244456   2.716   1.614  11.651 -0.0737  0.0447  0.0793
 6754TIP3    H144457   2.782   1.575  11.708 -0.3040 -0.5487 -0.0484
 6754TIP3    H244458   2.633   1.601  11.697 -0.8820 -4.0112 -1.9710
 6755TIP3   OH244459   2.262   5.353  12.018 -0.0887 -0.8833  0.1857
 6755TIP3    H144460   2.178   5.370  11.975 -1.1014 -2.0614  1.5676
 6755TIP3    H244461   2.286   5.265  11.989  0.3834 -0.7768  0.2477
 6756TIP3   OH244462   5.776   3.345  10.380 -0.4733  0.4153 -0.3659
 6756TIP3    H144463   5.718   3.274  10.353  0.7672 -0.9779  0.5437
 6756TIP3    H244464   5.808   3.382  10.298 -0.1550 -0.9039 -0.8572
 6757TIP3   OH244465   0.565   0.412  12.937  0.9196 -0.1282  0.0470
 6757TIP3    H144466   0.579   0.330  12.890  3.1499  1.4599 -2.3528
 6757TIP3    H244467   0.521   0.469  12.874 -0.2947  0.6891  1.5549
 6758TIP3   OH244468   3.866   0.646  11.446 -0.5761 -0.0659 -0.2344
 6758TIP3    H144469   3.867   0.554  11.473 -0.6715 -1.1287 -3.4557
 6758TIP3    H244470   3.792   0.653  11.385 -1.4949  2.5656  0.9887
 6759TIP3   OH244471   4.668   6.548  11.198  0.0251  0.0888 -0.1396
 6759TIP3    H144472   4.748   6.511  11.160 -0.4733  1.3267 -2.6000
 6759TIP3    H244473   4.683   6.546  11.292  2.1959 -1.3527 -0.4455
 6760TIP3   OH244474   1.520   4.938  11.388 -0.1116  0.2087 -0.4991
 6760TIP3    H144475   1.472   4.989  11.453  0.9471  1.0393 -0.3264
 6760TIP3    H244476   1.480   4.852  11.390 -1.1470  0.6847  0.0981
 6761TIP3   OH244477   0.764   0.451   9.249  0.0976 -0.0154 -0.4601
 6761TIP3    H144478   0.823   0.385   9.212 -0.9341 -0.4396 -1.4152
 6761TIP3    H244479   0.743   0.417   9.337 -1.3662 -1.6681 -1.3656
 6762TIP3   OH244480   5.670   4.256  10.864 -0.2398 -0.2340  0.5078
 6762TIP3    H144481   5.628   4.204  10.933  0.9988 -1.2668  0.5297
 6762TIP3    H244482   5.725   4.193  10.817  0.2508  0.8006 -0.3468
 6763TIP3   OH244483   3.516   1.904  10.407  0.4730  0.1752 -0.5531
 6763TIP3    H144484   3.541   1.929  10.318  1.5889 -1.2029 -0.6723
 6763TIP3    H244485   3.597   1.871  10.446  0.0730  1.0332  1.0926
 6764TIP3   OH244486   4.904   3.766  10.108  0.2736  0.2412  1.4867
 6764TIP3    H144487   4.868   3.821  10.039 -0.7861 -1.1425  0.8798
 6764TIP3    H244488   4.997   3.787  10.109  0.8917 -1.4263 -2.1603
 6765TIP3   OH244489   3.116   0.219   9.490 -0.4368  0.7802 -0.3455
 6765TIP3    H144490   3.096   0.126   9.495 -1.1585  0.8286 -1.8148
 6765TIP3    H244491   3.064   0.259   9.560 -0.1538  0.0961  0.2604
 6766TIP3   OH244492   2.517   3.164  10.856  0.1989 -0.1253  0.5764
 6766TIP3    H144493   2.494   3.084  10.810 -0.5154  1.0408 -1.1997
 6766TIP3    H244494   2.602   3.189  10.821  0.1520  0.1919  0.6831
 6767TIP3   OH244495   2.431   2.946  11.646 -0.5551 -0.3466  0.0911
 6767TIP3    H144496   2.336   2.949  11.654 -0.6995 -0.2582 -1.4454
 6767TIP3    H244497   2.463   2.969  11.734 -1.9312 -0.9827  0.7938
 6768TIP3   OH244498   1.995   5.946  11.467  0.2571  0.2236  0.0345
 6768TIP3    H144499   1.907   5.926  11.501  1.3174  0.3840  3.1764
 6768TIP3    H244500   2.015   5.871  11.410 -1.5289 -0.3002  0.0101
 6769TIP3   OH244501   5.668   0.977  10.543  0.5118  0.5292 -0.4377
 6769TIP3    H144502   5.749   1.028  10.541  1.3098 -0.6799  0.4386
 6769TIP3    H244503   5.656   0.954  10.635  0.0397 -0.6769 -0.7867
 6770TIP3   OH244504   2.029   1.258  11.279 -0.0440  0.2020  0.0705
 6770TIP3    H144505   1.997   1.185  11.331  0.0394  1.9173  2.7467
 6770TIP3    H244506   2.106   1.290  11.326  2.7526 -0.6811 -3.4937
 6771TIP3   OH244507   5.622   6.243   8.875 -0.0157  0.0160  0.8707
 6771TIP3    H144508   5.558   6.310   8.853 -1.0308 -0.4577  2.1797
 6771TIP3    H244509   5.707   6.287   8.872 -0.4003  0.7004 -0.7388
 6772TIP3   OH244510   6.321   0.379   9.917  0.4727 -0.3805  0.0212
 6772TIP3    H144511   6.381   0.390   9.844  0.7302  1.7005  0.4625
 6772TIP3    H244512   6.362   0.426   9.989 -1.5449  0.9696  0.3815
 6773TIP3   OH244513   3.362   5.996   9.456  0.0720 -0.0819 -0.2856
 6773TIP3    H144514   3.412   6.039   9.525 -0.2924  1.0123 -0.6772
 6773TIP3    H244515   3.344   6.066   9.393  1.6515 -1.3070 -2.2302
 6774TIP3   OH244516   5.225   6.677  10.615 -0.3111  0.6002  0.7413
 6774TIP3    H144517   5.250   6.757  10.569 -0.1409 -0.4168 -1.0424
 6774TIP3    H244518   5.142   6.651  10.574 -0.3500 -0.1524  1.2793
 6775TIP3   OH244519   4.774   0.685  11.006 -0.6591 -0.2074  0.0942
 6775TIP3    H144520   4.751   0.599  11.042  2.3615 -1.1415  0.0282
 6775TIP3    H244521   4.799   0.736  11.083  1.6304 -0.8188 -0.1807
 6776TIP3   OH244522   3.269   5.743  10.144  0.0984  0.1533 -0.3225
 6776TIP3    H144523   3.318   5.725  10.224  1.3130  0.9768 -0.8464
 6776TIP3    H244524   3.337   5.757  10.078 -0.8719 -1.0780 -1.6383
 6777TIP3   OH244525   0.255   3.727   9.189  0.6988 -0.0922  0.7111
 6777TIP3    H144526   0.297   3.681   9.117  2.6593  0.0328  1.7175
 6777TIP3    H244527   0.323   3.783   9.226 -0.7678  1.2801  1.4946
 6778TIP3   OH244528   1.843   5.285  10.951  0.4249  0.4979 -0.3402
 6778TIP3    H144529   1.882   5.272  10.864  2.1786  2.1378  0.1464
 6778TIP3    H244530   1.879   5.214  11.004 -1.1981 -0.9325 -1.0645
 6779TIP3   OH244531   5.949   3.926  10.521  0.0940 -0.4650  0.2661
 6779TIP3    H144532   5.870   3.917  10.468  0.5676 -0.0896 -0.5142
 6779TIP3    H244533   5.984   3.837  10.526 -1.1845 -0.9244  1.9234
 6780TIP3   OH244534   5.743   1.172  11.701 -0.4092  0.6202 -0.6289
 6780TIP3    H144535   5.653   1.186  11.731  0.2873  1.8743  0.9600
 6780TIP3    H244536   5.776   1.101  11.756 -0.0808  0.9150 -0.4411
 6781TIP3   OH244537   0.166   5.014  10.686 -0.6301 -0.2895 -0.1704
 6781TIP3    H144538   0.193   5.033  10.596 -0.8908 -2.0392 -0.6413
 6781TIP3    H244539   0.078   4.977  10.677 -0.3707 -1.1552  0.7255
 6782TIP3   OH244540   6.051   2.386  11.431  0.2823  0.5227 -0.0982
 6782TIP3    H144541   6.124   2.445  11.410  0.5439  0.6440  1.0914
 6782TIP3    H244542   6.022   2.414  11.517 -0.5493 -0.1576 -0.1480
 6783TIP3   OH244543   5.064   5.162   9.821  0.2998  0.3715  0.2169
 6783TIP3    H144544   5.146   5.130   9.782 -0.5623  0.4748 -1.7893
 6783TIP3    H244545   5.055   5.111   9.901  0.5195 -2.3117 -1.3407
 6784TIP3   OH244546   5.901   4.886  10.728 -0.1106 -0.1026  0.3634
 6784TIP3    H144547   5.824   4.862  10.779 -1.0313  1.7293 -0.0986
 6784TIP3    H244548   5.883   4.974  10.697  1.0652 -0.5823 -1.8902
 6785TIP3   OH244549   1.537   4.373  10.147  0.1068  0.2234 -0.1981
 6785TIP3    H144550   1.519   4.359  10.054  0.9713  0.1546 -0.3580
 6785TIP3    H244551   1.507   4.293  10.189 -2.0050  0.9640 -0.1645
 6786TIP3   OH244552   6.637   6.346   8.729  0.2171  0.4393 -0.3371
 6786TIP3    H144553   6.585   6.386   8.798 -0.3431  2.1488 -1.6653
 6786TIP3    H244554   6.716   6.400   8.725  0.0273  0.6564 -1.3261
 6787TIP3   OH244555   5.292   0.453   8.852 -0.0534 -0.2201  0.3790
 6787TIP3    H144556   5.266   0.493   8.768  0.4448  0.3756  0.5057
 6787TIP3    H244557   5.345   0.378   8.827 -3.3607 -2.6536  0.0350
 6788TIP3   OH244558   0.879   5.878   9.841 -0.1514 -0.7269  0.3318
 6788TIP3    H144559   0.849   5.904   9.927 -0.7803 -1.8959  0.4808
 6788TIP3    H244560   0.971   5.854   9.854  0.3489  1.0248  0.2505
 6789TIP3   OH244561   1.078   0.678  11.818 -0.6220  0.4883 -0.4421
 6789TIP3    H144562   1.023   0.601  11.834  0.7824 -0.5331 -0.3162
 6789TIP3    H244563   1.079   0.724  11.902  0.0138 -0.3648  0.0305
 6790TIP3   OH244564   0.782   0.336  10.765 -0.5596  0.1902 -0.4490
 6790TIP3    H144565   0.701   0.322  10.814  0.0916 -0.1963  0.5350
 6790TIP3    H244566   0.788   0.259  10.707  0.3311 -1.0740  1.2287
 6791TIP3   OH244567   3.158   2.834  11.066  0.1473  0.1241 -0.2661
 6791TIP3    H144568   3.195   2.766  11.010  2.0702 -0.7023  1.8292
 6791TIP3    H244569   3.122   2.787  11.141 -0.8452  1.2879  0.0233
 6792TIP3   OH244570   1.105   6.125   9.384  0.6381 -0.2966  0.2244
 6792TIP3    H144571   1.073   6.078   9.461 -0.3280 -1.7539 -1.0029
 6792TIP3    H244572   1.077   6.215   9.397 -1.2596 -0.8997  0.7021
 6793TIP3   OH244573   1.319   0.423   9.511  0.0299 -0.0319  0.1027
 6793TIP3    H144574   1.377   0.347   9.515 -0.8626 -0.6988  1.1971
 6793TIP3    H244575   1.255   0.407   9.580 -0.1095  1.7951  0.4431
 6794TIP3   OH244576   0.925   1.131  11.111 -0.4694 -0.2666  0.4702
 6794TIP3    H144577   0.868   1.113  11.186 -0.3404 -0.7483  0.4540
 6794TIP3    H244578   0.917   1.225  11.097 -0.3069 -0.1293  1.2456
 6795TIP3   OH244579   3.011   6.078  11.927  0.6426 -0.2100 -0.0248
 6795TIP3    H144580   2.963   6.157  11.950  0.2091 -0.6244  0.5312
 6795TIP3    H244581   3.080   6.072  11.994  0.5605 -0.3967  0.0440
 6796TIP3   OH244582   5.135   3.629  10.906  0.0735  0.1011  0.2071
 6796TIP3    H144583   5.088   3.707  10.877  2.8795  2.0462  0.4965
 6796TIP3    H244584   5.138   3.636  11.001  0.0006 -0.5813  0.2643
 6797TIP3   OH244585   3.109   5.938  11.367  0.4345 -0.0909 -0.7511
 6797TIP3    H144586   3.078   5.994  11.295 -1.1805  1.9211  1.3257
 6797TIP3    H244587   3.126   5.999  11.439 -1.2730 -2.2039  1.6374
 6798TIP3   OH244588   2.683   4.181   9.203 -0.3564 -0.2270 -0.1151
 6798TIP3    H144589   2.650   4.206   9.289  0.9430  1.4796 -0.0694
 6798TIP3    H244590   2.676   4.260   9.150  1.2924 -0.5118 -0.8115
 6799TIP3   OH244591   0.243   4.971  10.198 -0.3073  0.1303  0.5853
 6799TIP3    H144592   0.204   5.027  10.131  0.5673  3.2474  2.4454
 6799TIP3    H244593   0.173   4.957  10.262  0.3981  2.4728  2.0003
 6800TIP3   OH244594   3.097   1.897  10.567  0.2364 -0.2626 -0.2913
 6800TIP3    H144595   3.091   1.802  10.566 -2.3100 -0.1733 -1.3702
 6800TIP3    H244596   3.141   1.920  10.486  0.8050 -0.4989 -0.0552
 6801TIP3   OH244597   4.623   5.662   9.505  0.1915 -0.5675  0.1725
 6801TIP3    H144598   4.643   5.699   9.592 -1.2569  0.3494  0.1575
 6801TIP3    H244599   4.691   5.597   9.490  0.5233 -0.6833  1.9674
 6802TIP3   OH244600   3.537   4.941  12.131 -0.2923 -0.1043  0.0030
 6802TIP3    H144601   3.445   4.961  12.115 -0.2270  0.8745  0.7572
 6802TIP3    H244602   3.546   4.943  12.227 -0.0421 -2.8580  0.1341
 6803TIP3   OH244603   4.052   3.373  10.233  0.4748 -0.2278  0.3772
 6803TIP3    H144604   3.969   3.410  10.204  0.2323 -0.3442  0.8988
 6803TIP3    H244605   4.027   3.296  10.285  0.8840 -0.0330  0.8748
 6804TIP3   OH244606   6.600   4.312   8.585 -0.2846 -0.0624 -0.1463
 6804TIP3    H144607   6.676   4.369   8.597 -0.4200  0.2789 -0.8442
 6804TIP3    H244608   6.525   4.367   8.603 -0.4628  0.2924 -1.7645
 6805TIP3   OH244609   5.704   3.520   9.903 -0.5397  0.2716 -0.3001
 6805TIP3    H144610   5.622   3.569   9.898 -1.1900 -0.5361  1.5323
 6805TIP3    H244611   5.728   3.503   9.812 -1.9976  1.1867 -0.8800
 6806TIP3   OH244612   0.688   1.007   9.688 -0.3591  0.1039 -0.4974
 6806TIP3    H144613   0.640   1.024   9.768 -0.4049 -2.8270  0.2197
 6806TIP3    H244614   0.758   0.947   9.714 -0.2180 -0.7368 -2.5644
 6807TIP3   OH244615   0.248   3.795   8.833 -0.3397  0.3291  0.5788
 6807TIP3    H144616   0.275   3.726   8.893 -0.3694  0.3426  0.6079
 6807TIP3    H244617   0.236   3.751   8.749  1.1462  0.5759  0.2194
 6808TIP3   OH244618   6.743   6.542   9.145 -0.6565  0.3109 -0.4125
 6808TIP3    H144619   6.743   6.556   9.239 -0.9917 -1.4560 -0.1129
 6808TIP3    H244620   6.830   6.570   9.116 -0.5454  0.8415  0.4242
 6809TIP3   OH244621   3.155   1.040  12.236 -0.0955 -0.2339 -1.0375
 6809TIP3    H144622   3.087   0.996  12.288 -0.2136 -0.6370 -1.5368
 6809TIP3    H244623   3.109   1.114  12.195  0.0920  0.3505 -0.2422
 6810TIP3   OH244624   1.843   5.829   9.497 -0.1170 -0.0860 -0.1213
 6810TIP3    H144625   1.904   5.885   9.449 -0.3616 -0.3792 -0.7855
 6810TIP3    H244626   1.761   5.878   9.498  0.2263  0.4897  1.1279
 6811TIP3   OH244627   5.377   1.015  11.392 -0.1527 -0.1627  0.0924
 6811TIP3    H144628   5.310   1.041  11.455  0.0457  0.2549  0.1283
 6811TIP3    H244629   5.379   1.085  11.328 -0.6054 -0.7545 -0.5854
 6812TIP3   OH244630   3.441   4.467   8.702 -0.0695 -0.3343  0.2245
 6812TIP3    H144631   3.536   4.458   8.694 -0.0847  0.1669 -0.7484
 6812TIP3    H244632   3.429   4.542   8.761  0.1751  0.3418 -0.5511
 6813TIP3   OH244633   3.729   4.351   9.205  0.1860 -0.0358 -0.0923
 6813TIP3    H144634   3.754   4.398   9.126 -1.6179  1.3554  0.0855
 6813TIP3    H244635   3.679   4.276   9.173 -0.2863  0.3605 -0.3092
 6814TIP3   OH244636   5.642   1.391  10.643  0.5105 -0.0702 -0.5456
 6814TIP3    H144637   5.717   1.353  10.688 -0.5043 -0.5308  0.8349
 6814TIP3    H244638   5.640   1.482  10.672  1.4694  0.4133 -1.8883
 6815TIP3   OH244639   2.643   6.183   8.465  0.4222 -0.5705 -0.3995
 6815TIP3    H144640   2.584   6.158   8.536  0.1864  1.1491  0.0606
 6815TIP3    H244641   2.594   6.247   8.414  1.7249  0.6049 -0.2331
 6816TIP3   OH244642   3.650   6.500  10.145  0.0833  0.3619  0.3465
 6816TIP3    H144643   3.730   6.504  10.197  1.5831  0.1204 -1.8074
 6816TIP3    H244644   3.586   6.549  10.196  2.0423  1.9854  1.4023
 6817TIP3   OH244645   3.315   3.245  10.108 -0.1248  0.0684  0.2506
 6817TIP3    H144646   3.309   3.221  10.200 -1.0430 -0.7990 -0.0080
 6817TIP3    H244647   3.364   3.327  10.107  0.4527 -0.2437  1.4498
 6818TIP3   OH244648   2.650   5.483  11.350  0.7479 -0.4078 -0.8720
 6818TIP3    H144649   2.603   5.484  11.267  1.2569 -2.5228 -1.2425
 6818TIP3    H244650   2.710   5.409  11.343  1.4856 -0.0562  1.0251
 6819TIP3   OH244651   0.364   6.124  10.527  0.0724 -0.1120 -0.8264
 6819TIP3    H144652   0.338   6.214  10.508  1.2886  0.1980 -1.0754
 6819TIP3    H244653   0.376   6.122  10.622  1.4119  0.3869 -0.9638
 6820TIP3   OH244654   3.869   3.567  11.451 -0.0798  0.2551  0.6922
 6820TIP3    H144655   3.850   3.477  11.426 -1.8971  0.7939  0.0039
 6820TIP3    H244656   3.950   3.589  11.404 -0.2362 -0.6425 -0.0117
 6821TIP3   OH244657   5.717   0.918  10.815 -0.5924  0.0552  0.0972
 6821TIP3    H144658   5.783   0.901  10.882  2.4868  1.7647 -2.2663
 6821TIP3    H244659   5.634   0.918  10.863  0.9439 -2.6730  3.1684
 6822TIP3   OH244660   3.286   1.541  10.276  0.3720 -0.3882  0.5127
 6822TIP3    H144661   3.243   1.554  10.360 -0.5406  0.8502 -0.1146
 6822TIP3    H244662   3.376   1.516  10.298 -0.2300 -1.4773  1.8400
 6823TIP3   OH244663   0.220   2.761   9.035  0.4653  0.4535  0.0483
 6823TIP3    H144664   0.263   2.677   9.050 -0.0188  0.3321  0.7948
 6823TIP3    H244665   0.197   2.792   9.123 -0.6495  0.6805 -0.3089
 6824TIP3   OH244666   6.259   0.425  17.761 -0.4112  0.6024 -0.1742
 6824TIP3    H144667   6.329   0.439  17.825 -0.2332  1.8084 -0.6146
 6824TIP3    H244668   6.305   0.405  17.680 -0.5025  2.4108 -0.7139
 6825TIP3   OH244669   5.540   3.043  10.989  0.0127  0.0449 -0.3256
 6825TIP3    H144670   5.495   3.123  10.962 -0.8473  0.1551  1.3103
 6825TIP3    H244671   5.470   2.985  11.017  0.6731 -1.0806 -0.9283
 6826TIP3   OH244672   6.227   1.677  11.830 -0.2751 -0.0357 -0.6628
 6826TIP3    H144673   6.313   1.695  11.869  0.1122 -0.6553 -1.2075
 6826TIP3    H244674   6.167   1.734  11.877  0.7302  1.8828 -1.6010
 6827TIP3   OH244675   4.777   1.630  11.032 -0.3696 -0.1000  0.2840
 6827TIP3    H144676   4.684   1.648  11.019 -0.7666 -0.9922  1.6172
 6827TIP3    H244677   4.787   1.538  11.009  0.5498  0.3817 -1.4160
 6828TIP3   OH244678   3.691   4.969   9.852  0.1326  0.0924 -0.1868
 6828TIP3    H144679   3.762   5.033   9.846 -0.0340  0.4468  1.1650
 6828TIP3    H244680   3.735   4.884   9.844  0.5780  0.3323 -0.3349
 6829TIP3   OH244681   0.386   1.366   9.463 -0.4174 -0.1757 -0.3259
 6829TIP3    H144682   0.345   1.437   9.414 -0.5333  0.0496  0.0991
 6829TIP3    H244683   0.321   1.342   9.530 -0.3266 -0.5891 -0.3784
 6830TIP3   OH244684   3.362   5.120  10.883 -0.0067  0.2200 -0.0046
 6830TIP3    H144685   3.362   5.106  10.789 -1.1108 -1.7698  0.2437
 6830TIP3    H244686   3.368   5.032  10.921 -1.1975  0.8399  1.7653
 6831TIP3   OH244687   5.119   5.644  11.259  0.5143  0.2607  0.2154
 6831TIP3    H144688   5.078   5.630  11.174  0.3203  0.3620  0.2929
 6831TIP3    H244689   5.047   5.664  11.319  0.7046  0.8213  0.2723
 6832TIP3   OH244690   4.415   6.479  10.031  0.7280 -0.0014 -0.1982
 6832TIP3    H144691   4.442   6.481  10.123  1.5925 -0.8182 -0.4172
 6832TIP3    H244692   4.344   6.416  10.029  0.3324  0.4304 -0.0049
 6833TIP3   OH244693   6.459   0.740   9.646  0.0811  0.1008 -0.3509
 6833TIP3    H144694   6.514   0.664   9.665  1.5199  1.0895 -0.4060
 6833TIP3    H244695   6.410   0.715   9.568 -0.7330 -1.3843  0.5872
 6834TIP3   OH244696   0.371   2.980  10.208  0.3944 -0.5233 -0.3074
 6834TIP3    H144697   0.367   3.072  10.237  2.0514 -1.0885  2.0711
 6834TIP3    H244698   0.308   2.935  10.263  1.7534 -1.2425  0.7069
 6835TIP3   OH244699   2.900   5.918  10.242  0.5829 -0.3937  0.4632
 6835TIP3    H144700   2.931   5.846  10.187  0.4338  0.0555 -0.2239
 6835TIP3    H244701   2.934   5.997  10.199  0.0989 -0.0137  0.7705
 6836TIP3   OH244702   1.032   2.474   9.439  0.0734 -0.1959 -0.5452
 6836TIP3    H144703   1.091   2.521   9.498  1.0684 -1.2414 -0.6544
 6836TIP3    H244704   0.974   2.426   9.497 -1.6978  1.9493 -0.4137
 6837TIP3   OH244705   6.328   1.873   9.084 -0.2567 -0.2478 -0.9353
 6837TIP3    H144706   6.295   1.943   9.027  0.4603  1.3215  0.4895
 6837TIP3    H244707   6.343   1.799   9.025 -1.3372  0.6903 -2.4517
 6838TIP3   OH244708   2.845   4.803   8.719 -0.0034  1.0164 -0.1665
 6838TIP3    H144709   2.933   4.840   8.728  0.3808 -0.0762  0.7556
 6838TIP3    H244710   2.786   4.877   8.733  0.7526  1.4893  0.6233
 6839TIP3   OH244711   2.787   2.064  10.384  0.0777  0.2037  0.2308
 6839TIP3    H144712   2.835   1.998  10.433  0.4065 -0.7463 -1.3132
 6839TIP3    H244713   2.846   2.089  10.313 -0.8287  0.6932 -0.3626
 6840TIP3   OH244714   4.791   4.393   9.258  0.3571 -0.3571 -0.1920
 6840TIP3    H144715   4.764   4.408   9.167 -0.7020  0.5040  0.2526
 6840TIP3    H244716   4.853   4.464   9.276 -0.9867  0.7069  0.3837
 6841TIP3   OH244717   3.651   0.684  11.877  0.1499  0.5272 -0.4018
 6841TIP3    H144718   3.695   0.765  11.852 -0.5791  0.7466 -0.9597
 6841TIP3    H244719   3.631   0.696  11.970 -0.7556  1.3578 -0.6920
 6842TIP3   OH244720   4.776   5.639  11.888  0.6716  0.4925 -0.2954
 6842TIP3    H144721   4.857   5.690  11.896  1.5185 -0.9077  0.4762
 6842TIP3    H244722   4.748   5.625  11.978 -0.1957  0.5603 -0.5428
 6843TIP3   OH244723   4.951   3.517   9.882  0.0151  0.3168  0.3704
 6843TIP3    H144724   5.018   3.454   9.856 -1.6414 -0.8496 -1.3479
 6843TIP3    H244725   4.971   3.595   9.830  0.2396  0.0969  0.1182
 6844TIP3   OH244726   2.385   2.267   9.118 -0.0445 -0.0529 -0.0076
 6844TIP3    H144727   2.411   2.190   9.067 -2.7154 -1.7021  0.9644
 6844TIP3    H244728   2.443   2.266   9.194 -1.2232 -2.2604  0.9404
 6845TIP3   OH244729   6.255   1.813  11.603  0.2050 -0.1859  0.4566
 6845TIP3    H144730   6.243   1.751  11.675  0.3010 -1.3005 -0.4614
 6845TIP3    H244731   6.171   1.858  11.595 -0.7439 -2.0198 -0.4918
 6846TIP3   OH244732   4.560   1.407  10.234 -0.4103  0.1792 -0.2223
 6846TIP3    H144733   4.584   1.494  10.203 -0.3431  0.2836  0.1165
 6846TIP3    H244734   4.550   1.417  10.329 -0.8927 -0.0690 -0.2443
 6847TIP3   OH244735   4.003   4.490  11.579 -0.5323  0.1021 -0.4546
 6847TIP3    H144736   3.966   4.489  11.491 -0.5827 -1.4406 -0.4465
 6847TIP3    H244737   4.090   4.530  11.568 -1.1329  1.3074 -0.9268
 6848TIP3   OH244738   6.499   0.119  11.439 -0.4076 -0.4873  0.6922
 6848TIP3    H144739   6.406   0.098  11.445 -0.5042  0.1900  1.7821
 6848TIP3    H244740   6.503   0.214  11.438  0.1812 -0.4927 -1.4145
 6849TIP3   OH244741   1.794   4.104   9.533 -0.5658 -0.3302  0.0655
 6849TIP3    H144742   1.819   4.159   9.607 -1.2279 -0.5181  0.4342
 6849TIP3    H244743   1.876   4.063   9.505  0.0887  1.4519 -0.7331
 6850TIP3   OH244744   2.731   1.749  10.073  0.3563  0.6273  0.3479
 6850TIP3    H144745   2.649   1.797  10.079  0.6676  1.7541 -2.6221
 6850TIP3    H244746   2.799   1.816  10.064  0.9208 -0.1653 -2.7712
 6851TIP3   OH244747   0.576   2.757   9.025 -0.0707 -0.3479  0.2176
 6851TIP3    H144748   0.521   2.693   9.070 -0.5803 -0.3161 -0.3564
 6851TIP3    H244749   0.627   2.706   8.963 -1.0764 -0.1121 -0.8274
 6852TIP3   OH244750   5.743   4.941  10.978 -0.1838  0.0219  0.0789
 6852TIP3    H144751   5.719   4.878  11.045  0.1812  0.8651  1.0282
 6852TIP3    H244752   5.669   5.001  10.973 -0.1595  0.0328 -0.1948
 6853TIP3   OH244753   3.288   2.690  11.460 -0.0018  0.3535  0.3000
 6853TIP3    H144754   3.210   2.693  11.405  2.7183  1.5755 -4.0358
 6853TIP3    H244755   3.295   2.778  11.497 -0.6941  0.1954  0.8251
 6854TIP3   OH244756   1.519   6.265   8.515  0.4674 -0.3218  0.2240
 6854TIP3    H144757   1.440   6.212   8.507 -0.7409  1.1247  1.7505
 6854TIP3    H244758   1.552   6.274   8.426 -2.2319  0.6341 -0.7854
 6855TIP3   OH244759   0.540   4.105  11.056 -0.3065 -0.3250 -0.2799
 6855TIP3    H144760   0.617   4.049  11.070 -0.2803  0.0483  1.2609
 6855TIP3    H244761   0.559   4.184  11.107 -1.6460 -0.1685  0.0016
 6856TIP3   OH244762   3.580   5.353   9.229 -0.4506  0.4331 -0.1619
 6856TIP3    H144763   3.566   5.267   9.189 -0.5384 -0.1322  1.0327
 6856TIP3    H244764   3.502   5.404   9.204 -2.0494 -0.8928  1.7713
 6857TIP3   OH244765   2.542   4.929  12.328 -0.0548  0.8276 -0.4128
 6857TIP3    H144766   2.617   4.973  12.368 -0.1934  0.6806  0.0140
 6857TIP3    H244767   2.479   5.000  12.312 -0.1077  0.8502 -0.1153
 6858TIP3   OH244768   4.190   1.217  12.005  0.4744 -0.2783  0.1334
 6858TIP3    H144769   4.123   1.227  12.073  2.2058 -1.3662  2.1280
 6858TIP3    H244770   4.250   1.290  12.020  0.4238 -0.0353 -0.8099
 6859TIP3   OH244771   0.543   1.856   9.911  0.1141 -0.2205 -0.2842
 6859TIP3    H144772   0.637   1.850   9.928 -0.4968 -1.8327  3.2566
 6859TIP3    H244773   0.533   1.935   9.857  3.4708 -0.1616 -0.9932
 6860TIP3   OH244774   3.609   3.037  10.088  0.0027  0.0230  0.1813
 6860TIP3    H144775   3.573   2.948  10.083 -1.2733  0.4469  1.1798
 6860TIP3    H244776   3.551   3.082  10.149 -0.3734  2.0135 -1.5151
 6861TIP3   OH244777   4.914   3.993   9.922  0.3330 -0.2450 -0.8607
 6861TIP3    H144778   4.821   4.009   9.939  0.3378  0.2400 -1.2625
 6861TIP3    H244779   4.931   4.034   9.837  0.8634 -0.5307 -0.9012
 6862TIP3   OH244780   2.177   6.000  10.907  0.0858 -0.2138  0.8547
 6862TIP3    H144781   2.185   5.973  10.998  0.1551  1.2655  1.3174
 6862TIP3    H244782   2.214   5.928  10.857  0.6856 -0.7538  2.0421
 6863TIP3   OH244783   3.399   0.549  11.845 -0.0383  0.2656  0.4749
 6863TIP3    H144784   3.449   0.621  11.883  0.2356  1.0380 -1.2309
 6863TIP3    H244785   3.310   0.583  11.838  0.0434  0.3782 -0.1152
 6864TIP3   OH244786   1.600   0.240   9.512 -0.3433  0.0681 -0.3573
 6864TIP3    H144787   1.655   0.297   9.565  0.3531  0.1205 -1.1128
 6864TIP3    H244788   1.652   0.160   9.501 -1.5299 -0.9739  1.1577
 6865TIP3   OH244789   0.345   1.750  11.591  0.4479  0.7878 -0.3439
 6865TIP3    H144790   0.282   1.816  11.563  0.6835  1.0827 -0.1925
 6865TIP3    H244791   0.409   1.799  11.644  0.5970  0.4307 -0.1895
 6866TIP3   OH244792   3.327   4.902   9.160 -0.1153 -0.0627 -0.7843
 6866TIP3    H144793   3.386   4.873   9.229 -0.4094 -1.3521 -1.0449
 6866TIP3    H244794   3.384   4.916   9.084 -0.1189 -1.2526 -1.0202
 6867TIP3   OH244795   1.288   2.723  10.831  0.3602 -0.1132  0.1370
 6867TIP3    H144796   1.276   2.633  10.859 -1.9239  0.5696  1.6229
 6867TIP3    H244797   1.286   2.774  10.911 -0.3027  1.4146 -0.8002
 6868TIP3   OH244798   0.004   3.697  10.048 -0.2335 -0.1933 -0.3857
 6868TIP3    H144799   0.075   3.755  10.074 -0.8778  0.1138  0.7781
 6868TIP3    H244800   0.044   3.610  10.046  0.3425  0.0654 -0.4819
 6869TIP3   OH244801   2.155   3.471  11.075 -0.4291 -0.6957  0.1604
 6869TIP3    H144802   2.085   3.447  11.014 -0.5821 -1.1675  0.5121
 6869TIP3    H244803   2.120   3.449  11.161 -0.2865  0.1265  0.4441
 6870TIP3   OH244804   3.296   3.384   9.119 -0.3945 -0.6697  0.1530
 6870TIP3    H144805   3.253   3.452   9.066 -0.7532  0.2320  1.5285
 6870TIP3    H244806   3.284   3.304   9.069 -1.3551  0.0156 -0.7837
 6871TIP3   OH244807   3.705   0.301   9.826  0.0323  0.5342 -0.1525
 6871TIP3    H144808   3.765   0.312   9.899 -1.6411 -0.8778  1.5736
 6871TIP3    H244809   3.641   0.371   9.836  0.4826  1.0876 -1.0360
 6872TIP3   OH244810   2.358   5.118   8.521 -0.3122 -0.1285 -0.5792
 6872TIP3    H144811   2.330   5.080   8.604  0.8376 -1.4077 -0.7370
 6872TIP3    H244812   2.298   5.191   8.506 -0.7084 -0.0388  1.2346
 6873TIP3   OH244813   1.391   3.203   9.233 -0.1695  0.1880 -0.2795
 6873TIP3    H144814   1.350   3.176   9.151  1.7732 -0.9369 -0.9237
 6873TIP3    H244815   1.477   3.162   9.232 -0.4013 -0.5482  2.7348
 6874TIP3   OH244816   6.054   5.332  10.870  0.0315 -0.4748 -0.0752
 6874TIP3    H144817   6.142   5.298  10.850 -0.1968 -1.1237  0.0150
 6874TIP3    H244818   6.018   5.270  10.933 -0.3790 -0.0365  0.1314
 6875TIP3   OH244819   0.397   0.417  12.700  0.2167  0.0858  0.3741
 6875TIP3    H144820   0.415   0.325  12.684 -0.2154 -0.2640  1.8242
 6875TIP3    H244821   0.423   0.461  12.618  2.5340 -1.0136  0.4349
 6876TIP3   OH244822   4.040   0.106   9.700  0.1491  0.0181 -0.5859
 6876TIP3    H144823   4.012   0.196   9.718 -0.4129 -0.3236  0.3312
 6876TIP3    H244824   4.045   0.101   9.605 -0.4639  0.8293 -0.6717
 6877TIP3   OH244825   5.679   1.427  11.051  0.4747  0.1159  0.3474
 6877TIP3    H144826   5.590   1.392  11.047  0.4113  0.1782  1.1387
 6877TIP3    H244827   5.730   1.370  10.993 -0.1832  0.4098 -0.5330
 6878TIP3   OH244828   2.821   3.109   9.455 -0.1771 -0.2489 -0.4805
 6878TIP3    H144829   2.747   3.051   9.439 -1.1671  1.0421 -0.7460
 6878TIP3    H244830   2.802   3.150   9.539  0.8569 -0.7974  0.0448
 6879TIP3   OH244831   1.447   0.253   9.940 -0.8075  0.4003 -0.1223
 6879TIP3    H144832   1.393   0.301   9.877  2.2535  2.1468 -1.6543
 6879TIP3    H244833   1.446   0.163   9.908 -2.2176  0.5272 -0.4905
 6880TIP3   OH244834   5.140   4.802   9.896 -0.2835  0.1230  0.5583
 6880TIP3    H144835   5.145   4.708   9.913 -1.5215  0.2778  2.0737
 6880TIP3    H244836   5.157   4.843   9.981 -0.0363  1.2541 -0.0169
 6881TIP3   OH244837   1.009   5.255  10.439 -0.0624 -0.3010 -0.0444
 6881TIP3    H144838   0.950   5.204  10.383  1.3342 -1.5600 -0.4563
 6881TIP3    H244839   1.066   5.301  10.377  0.3941 -0.3630  0.3226
 6882TIP3   OH244840   6.599   0.971  11.183  0.0588 -0.0713  0.3673
 6882TIP3    H144841   6.545   0.972  11.104 -1.7336  0.0512  1.5449
 6882TIP3    H244842   6.574   0.890  11.228  0.4871  0.2379  1.1729
 6883TIP3   OH244843   6.504   5.550  10.450 -0.1884  0.0789 -0.1015
 6883TIP3    H144844   6.431   5.601  10.485  0.5571  1.5372 -0.5411
 6883TIP3    H244845   6.514   5.476  10.510 -1.5074  0.2903  0.4040
 6884TIP3   OH244846   3.037   1.783  10.199  0.1624  0.1179  0.1517
 6884TIP3    H144847   3.023   1.694  10.232 -0.5312  0.1978  0.0875
 6884TIP3    H244848   3.113   1.815  10.248  1.6005 -1.1610 -1.1340
 6885TIP3   OH244849   1.181   4.777  11.447  0.3521 -0.0790  0.2836
 6885TIP3    H144850   1.218   4.803  11.531  1.0543  0.9256 -0.3068
 6885TIP3    H244851   1.252   4.729  11.404  0.2900  0.1284 -0.0544
 6886TIP3   OH244852   4.056   4.726   9.590  0.3345  0.0929 -0.2196
 6886TIP3    H144853   4.112   4.658   9.551  1.2190 -0.5400  2.0013
 6886TIP3    H244854   3.983   4.677   9.629 -0.2641  0.6636 -0.6035
 6887TIP3   OH244855   1.229   3.857  10.244  0.2517 -0.1550  0.1823
 6887TIP3    H144856   1.322   3.842  10.225  0.4540  0.2125  0.8798
 6887TIP3    H244857   1.184   3.827  10.164  1.0367  0.6508 -0.5924
 6888TIP3   OH244858   3.844   2.109   8.709  0.4147 -0.1113 -0.3612
 6888TIP3    H144859   3.934   2.076   8.704  0.8198  1.0172 -0.9811
 6888TIP3    H244860   3.850   2.185   8.766 -0.6807 -1.5811  1.8473
 6889TIP3   OH244861   4.441   0.355  12.215  0.0755  0.3578 -0.5380
 6889TIP3    H144862   4.467   0.367  12.306 -0.8503  1.2125 -0.3685
 6889TIP3    H244863   4.472   0.267  12.192 -0.5181 -0.2437  0.8914
 6890TIP3   OH244864   6.112   4.530   9.419 -0.2567 -0.3465  0.0084
 6890TIP3    H144865   6.162   4.597   9.465  1.4543 -1.0404 -0.7408
 6890TIP3    H244866   6.067   4.578   9.349  1.5222 -0.0068 -0.9786
 6891TIP3   OH244867   5.019   6.507  11.946 -0.2488 -0.4951 -0.1680
 6891TIP3    H144868   5.058   6.431  11.902  2.0965  1.2960 -1.4352
 6891TIP3    H244869   5.019   6.483  12.039 -1.5180 -2.7863 -0.6736
 6892TIP3   OH244870   1.349   3.869  11.945 -0.0413 -0.1286  0.3914
 6892TIP3    H144871   1.406   3.827  11.881  1.3113 -0.1339  1.5224
 6892TIP3    H244872   1.270   3.891  11.897  0.9893  0.0435 -1.3198
 6893TIP3   OH244873   5.559   5.311  10.305  0.0544 -0.1805 -0.1377
 6893TIP3    H144874   5.592   5.400  10.295  0.1625 -0.2262 -0.1875
 6893TIP3    H244875   5.536   5.283  10.217  2.0252 -0.9757 -0.4444
 6894TIP3   OH244876   2.055   5.978   8.660  0.5490 -0.0287 -0.4681
 6894TIP3    H144877   1.960   5.981   8.666  0.6655  0.2714  3.0955
 6894TIP3    H244878   2.078   5.890   8.690  1.4239  1.0761  2.4613
 6895TIP3   OH244879   5.279   5.464   9.359 -0.6490  0.2718  0.1235
 6895TIP3    H144880   5.340   5.522   9.403 -0.9608  1.2779 -0.7391
 6895TIP3    H244881   5.274   5.497   9.269 -0.8208 -1.0946 -0.3928
 6896TIP3   OH244882   1.081   5.381   9.320  0.5720 -0.1900  0.4657
 6896TIP3    H144883   1.141   5.375   9.245  1.7652 -2.6724  1.5135
 6896TIP3    H244884   1.138   5.392   9.396 -0.5494  0.9367  1.1786
 6897TIP3   OH244885   5.720   6.721   9.889 -0.2162  1.0997 -0.0383
 6897TIP3    H144886   5.770   6.801   9.904 -0.6623  1.4953 -0.6288
 6897TIP3    H244887   5.710   6.716   9.794  0.6104 -0.1580 -0.0752
 6898TIP3   OH244888   1.235   3.698   8.686 -0.0637 -0.1787 -0.0746
 6898TIP3    H144889   1.322   3.695   8.725  0.4651  1.8667 -0.9722
 6898TIP3    H244890   1.212   3.606   8.672  1.9323 -0.7707  0.2105
 6899TIP3   OH244891   6.328   0.441  10.536  0.1141  0.1479 -0.0243
 6899TIP3    H144892   6.252   0.496  10.514 -0.1422 -0.8923 -2.0065
 6899TIP3    H244893   6.289   0.358  10.565  0.4831 -0.0409 -0.0678
 6900TIP3   OH244894   2.272   3.247   9.899  0.0736  0.2197 -0.1085
 6900TIP3    H144895   2.216   3.232   9.822  3.0699 -1.1901 -2.2301
 6900TIP3    H244896   2.323   3.325   9.876 -1.4867  2.0897  2.2155
 6901TIP3   OH244897   5.971   0.048  10.261 -0.1113 -1.0208  0.2112
 6901TIP3    H144898   6.034   0.048  10.189 -1.5675 -2.5488 -1.1705
 6901TIP3    H244899   6.003  -0.020  10.321  0.3213 -0.7896  0.2413
 6902TIP3   OH244900   2.909   0.320  11.630  0.1208  0.2249  0.1386
 6902TIP3    H144901   2.914   0.245  11.569  0.2090  0.8116 -0.5936
 6902TIP3    H244902   2.999   0.352  11.636  0.3180 -0.5080  1.4805
 6903TIP3   OH244903   0.278   1.233  11.735  0.3537  0.1131 -0.6260
 6903TIP3    H144904   0.291   1.149  11.781  0.7844  0.0427 -0.8683
 6903TIP3    H244905   0.326   1.296  11.788 -1.0151  0.4515  0.2579
 6904TIP3   OH244906   4.626   5.390  10.696  0.1745  0.5790 -0.1568
 6904TIP3    H144907   4.623   5.485  10.707 -0.5026  0.6027 -0.5125
 6904TIP3    H244908   4.534   5.362  10.696  0.3473 -0.0196 -0.5436
 6905TIP3   OH244909   2.220   2.468   9.817  0.0623  0.4916 -0.0561
 6905TIP3    H144910   2.307   2.506   9.828  1.0334 -1.3373 -0.9569
 6905TIP3    H244911   2.209   2.411   9.894 -1.2597  2.2605  1.1449
 6906TIP3   OH244912   1.274   0.522  11.159 -0.2922 -0.4246 -0.5575
 6906TIP3    H144913   1.193   0.573  11.170 -1.0872 -1.9726  1.4810
 6906TIP3    H244914   1.281   0.510  11.064 -1.3351  1.4303 -0.9315
 6907TIP3   OH244915   3.697   1.954  11.686  0.3186  0.1565  0.4363
 6907TIP3    H144916   3.768   1.947  11.750  3.2035  1.0576 -2.4203
 6907TIP3    H244917   3.690   2.048  11.669 -0.2818 -0.0766 -0.6766
 6908TIP3   OH244918   2.358   5.410  11.339  0.2556  0.2723 -0.2291
 6908TIP3    H144919   2.301   5.479  11.371 -0.5853  0.1446 -1.3711
 6908TIP3    H244920   2.442   5.424  11.384  0.9800  3.6290 -2.3192
 6909TIP3   OH244921   1.756   0.510  10.140 -0.1687 -0.2704 -0.2013
 6909TIP3    H144922   1.723   0.594  10.173  0.4589 -0.0264 -0.1666
 6909TIP3    H244923   1.813   0.478  10.210  1.3983  0.3847 -1.1132
 6910TIP3   OH244924   5.868   5.930   9.165 -0.2929 -0.1657 -0.0257
 6910TIP3    H144925   5.950   5.913   9.118  0.8296  0.0117  1.7838
 6910TIP3    H244926   5.863   5.860   9.230 -1.0540  0.4187  0.5588
 6911TIP3   OH244927   1.352   5.304   9.913 -0.0258 -0.1683 -0.6876
 6911TIP3    H144928   1.360   5.271  10.002  1.3315 -1.6568 -1.3283
 6911TIP3    H244929   1.407   5.383   9.912  1.3025 -1.0668 -0.6230
 6912TIP3   OH244930   6.629   3.929   9.375  0.4058  0.2736  0.0947
 6912TIP3    H144931   6.721   3.954   9.376  0.4681  0.0756  1.4478
 6912TIP3    H244932   6.630   3.834   9.373  0.2060  0.2907 -1.3057
 6913TIP3   OH244933   0.065   0.484  11.928 -0.0477 -0.3579 -0.5324
 6913TIP3    H144934   0.025   0.508  12.011 -1.9893 -0.8637 -1.2620
 6913TIP3    H244935   0.019   0.404  11.901  0.9578 -0.5477 -1.7992
 6914TIP3   OH244936   1.870   2.477  11.235  0.0606  0.5215  0.2846
 6914TIP3    H144937   1.963   2.498  11.227 -0.1987  1.8723  0.5163
 6914TIP3    H244938   1.853   2.482  11.329  0.5845 -3.7242  0.7798
 6915TIP3   OH244939   6.649   1.445  11.310 -0.5334 -0.0536  0.3514
 6915TIP3    H144940   6.650   1.358  11.350  0.1598 -0.3646 -0.3096
 6915TIP3    H244941   6.562   1.453  11.272  0.1870 -1.5169 -1.7744
 6916TIP3   OH244942   6.149   2.347  10.749  0.4793  0.6517 -0.0146
 6916TIP3    H144943   6.132   2.372  10.840  2.5937  0.8428  0.3717
 6916TIP3    H244944   6.126   2.254  10.746  0.9537  0.4895  0.8863
 6917TIP3   OH244945   2.233   2.471  11.179  0.3461 -0.2353 -0.0823
 6917TIP3    H144946   2.188   2.403  11.229 -0.9386  1.5633  1.3024
 6917TIP3    H244947   2.301   2.504  11.238 -0.5922  1.2772  0.2123
 6918TIP3   OH244948   0.815   1.141   9.481 -0.1173 -0.3845 -0.6011
 6918TIP3    H144949   0.835   1.052   9.451 -0.3310 -0.1914 -1.3298
 6918TIP3    H244950   0.763   1.128   9.560 -0.8568 -0.9160 -1.1631
 6919TIP3   OH244951   4.887   0.759  11.277 -0.2333 -0.6782  0.9352
 6919TIP3    H144952   4.968   0.794  11.315  0.6518 -2.9560  1.3344
 6919TIP3    H244953   4.828   0.749  11.351 -0.6576  0.3444  0.7487
 6920TIP3   OH244954   2.645   1.709  11.023 -0.1263 -0.5078 -0.6344
 6920TIP3    H144955   2.699   1.777  11.063  3.7782 -1.6831 -3.3088
 6920TIP3    H244956   2.564   1.754  10.997  1.2208  2.4724 -0.0942
 6921TIP3   OH244957   4.597   6.749  11.001  0.2036  0.3181 -0.5894
 6921TIP3    H144958   4.651   6.673  11.026  1.0214  1.1061  0.1424
 6921TIP3    H244959   4.637   6.780  10.920  0.0372  0.1298 -0.7447
 6922TIP3   OH244960   5.801   6.162  10.577  0.2627  0.1328  0.3204
 6922TIP3    H144961   5.745   6.231  10.542  0.9709  0.9411  0.7534
 6922TIP3    H244962   5.755   6.132  10.656 -2.4789 -3.1995 -2.2161
 6923TIP3   OH244963   4.053   3.656  10.145 -0.0483  0.3909  0.0527
 6923TIP3    H144964   4.023   3.681  10.232 -1.6923 -1.2764  0.0378
 6923TIP3    H244965   4.142   3.691  10.139  1.3844 -1.9689  3.6417
 6924TIP3   OH244966   4.215   4.435  12.666  0.2551  0.2282  0.2417
 6924TIP3    H144967   4.275   4.509  12.661 -0.1884  0.6029  0.4189
 6924TIP3    H244968   4.259   4.365  12.618  0.9324  0.4308  0.5599
 6925TIP3   OH244969   6.032   2.693  11.589  0.2191 -0.1261 -0.6804
 6925TIP3    H144970   6.057   2.776  11.548  0.2096 -0.0771 -0.5867
 6925TIP3    H244971   6.091   2.685  11.664  1.5378 -1.1433 -1.7968
 6926TIP3   OH244972   1.777   4.890   9.585  0.1190 -0.1186 -0.0144
 6926TIP3    H144973   1.706   4.828   9.565 -1.4673  1.7117 -0.3950
 6926TIP3    H244974   1.736   4.955   9.642  2.0945 -0.0915  1.4632
 6927TIP3   OH244975   4.881   3.604   9.144 -0.9514  0.0100  0.3414
 6927TIP3    H144976   4.835   3.633   9.065  2.6410  0.2337 -1.8696
 6927TIP3    H244977   4.902   3.512   9.127  0.8796  0.3784  0.4382
 6928TIP3   OH244978   6.484   5.727  11.274  0.0327 -0.1261  0.3837
 6928TIP3    H144979   6.494   5.643  11.319  0.0773 -0.3919 -0.1168
 6928TIP3    H244980   6.399   5.719  11.229  0.2185 -0.0610  0.0158
 6929TIP3   OH244981   0.716   0.766  10.865 -0.1834  0.6352 -0.6935
 6929TIP3    H144982   0.778   0.835  10.890 -0.3515  0.8464 -0.8650
 6929TIP3    H244983   0.769   0.686  10.866  0.0268  0.7733 -0.5579
 6930TIP3   OH244984   3.251   4.732  11.173 -0.3337 -0.5110  0.0724
 6930TIP3    H144985   3.236   4.776  11.257 -0.7652  0.1605 -0.3502
 6930TIP3    H244986   3.163   4.716  11.139 -0.1554 -0.7108 -0.2938
 6931TIP3   OH244987   4.371   3.404  10.945  0.4948 -0.2138  0.2486
 6931TIP3    H144988   4.341   3.313  10.947  0.8952 -0.3508  0.1290
 6931TIP3    H244989   4.451   3.402  10.893  1.2048 -0.0045  1.2867
 6932TIP3   OH244990   6.736   5.330   9.966  0.2527  0.2334  0.0606
 6932TIP3    H144991   6.739   5.398  10.033  2.1510  0.8774 -0.6002
 6932TIP3    H244992   6.652   5.342   9.922  0.0056  1.3111  0.8086
 6933TIP3   OH244993   6.212   0.783  11.856  0.3833 -0.1903  0.0653
 6933TIP3    H144994   6.279   0.828  11.806  2.2566 -0.4723  2.1347
 6933TIP3    H244995   6.243   0.692  11.862 -0.1277 -0.3165  1.1317
 6934TIP3   OH244996   3.404   1.289  10.103  0.1431  0.6095  0.2409
 6934TIP3    H144997   3.407   1.367  10.049 -1.7070  1.2564  0.9718
 6934TIP3    H244998   3.324   1.299  10.156 -0.7396 -2.2304 -0.3457
 6935TIP3   OH244999   0.195   6.584  10.700  0.2186  0.3889 -0.4310
 6935TIP3    H145000   0.164   6.515  10.641  0.2724 -0.5236  0.5730
 6935TIP3    H245001   0.266   6.543  10.750  1.8075  1.8747 -1.3780
 6936TIP3   OH245002   1.499   0.208  10.710 -0.2028 -0.0763  0.1221
 6936TIP3    H145003   1.510   0.281  10.771  0.4433  0.3025 -0.4376
 6936TIP3    H245004   1.420   0.230  10.660 -1.5576 -1.0595  1.7217
 6937TIP3   OH245005   5.196   5.946  10.398 -0.7909  0.0131  0.0853
 6937TIP3    H145006   5.147   6.012  10.447  0.3977 -0.0274  1.3863
 6937TIP3    H245007   5.268   5.993  10.358  0.1113 -0.4754  1.0855
 6938TIP3   OH245008   1.089   6.469  10.518  0.1857 -0.5033 -0.1182
 6938TIP3    H145009   1.025   6.519  10.569  1.7682  1.8407 -0.2921
 6938TIP3    H245010   1.152   6.534  10.489  2.6766 -2.6956  0.0388
 6939TIP3   OH245011   3.664   1.495   9.461 -0.2776 -0.1251  0.0913
 6939TIP3    H145012   3.597   1.562   9.448 -1.4411 -1.2529  0.1018
 6939TIP3    H245013   3.724   1.506   9.387 -1.0764  0.2200 -0.5203
 6940TIP3   OH245014   3.239   4.283   8.715 -0.0311  0.3056 -0.0865
 6940TIP3    H145015   3.177   4.353   8.696  1.8800  1.2991 -3.3678
 6940TIP3    H245016   3.319   4.328   8.740  0.5402 -0.8105  0.1485
 6941TIP3   OH245017   2.701   2.944  11.584  0.0266 -0.0712  0.3861
 6941TIP3    H145018   2.731   2.865  11.627 -1.8910 -1.0814 -0.0209
 6941TIP3    H245019   2.611   2.924  11.556  0.0688  1.6607 -1.1974
 6942TIP3   OH245020   0.992   5.633   8.942 -0.1723 -0.4947 -0.0328
 6942TIP3    H145021   1.039   5.557   8.908 -0.0109 -0.0465 -0.8373
 6942TIP3    H245022   0.978   5.613   9.035 -0.1777 -1.5233 -0.2404
 6943TIP3   OH245023   1.134   5.958  11.902  0.0076 -0.3222  0.4952
 6943TIP3    H145024   1.070   6.009  11.852  1.2860  0.7500 -0.1169
 6943TIP3    H245025   1.110   5.973  11.994 -0.4515  0.2983  0.2810
 6944TIP3   OH245026   3.628   2.949  11.425  0.1139  0.9770  0.5173
 6944TIP3    H145027   3.556   2.988  11.375 -1.7013 -0.2573  1.9808
 6944TIP3    H245028   3.621   2.989  11.512  1.2147  0.8395  0.6810
 6945TIP3   OH245029   1.159   2.209  10.504 -0.0234  0.3147 -0.6736
 6945TIP3    H145030   1.109   2.291  10.502  0.2611  0.5534  0.8450
 6945TIP3    H245031   1.194   2.205  10.593 -1.3531 -2.2421 -0.1739
 6946TIP3   OH245032   0.658   5.760  11.545  0.2838 -0.0620  0.0478
 6946TIP3    H145033   0.655   5.678  11.496 -2.5350  0.5539 -1.0333
 6946TIP3    H245034   0.691   5.736  11.631  1.0870 -2.0092 -0.7446
 6947TIP3   OH245035   4.555   0.420   9.570  0.0237 -0.5934  0.2640
 6947TIP3    H145036   4.546   0.504   9.524 -0.2382 -0.4210  0.6247
 6947TIP3    H245037   4.612   0.368   9.514 -0.0102 -0.2597 -0.0838
 6948TIP3   OH245038   5.117   3.980  10.115  0.0125  0.0392  0.3746
 6948TIP3    H145039   5.081   4.000  10.201 -0.4553 -1.0489  0.4446
 6948TIP3    H245040   5.043   3.990  10.055  0.2035  0.2419  0.1719
 6949TIP3   OH245041   6.656   0.261  11.831  0.0095  0.4242  0.2377
 6949TIP3    H145042   6.674   0.236  11.740  2.7797 -0.8402  1.0433
 6949TIP3    H245043   6.561   0.258  11.838 -0.2167 -0.6078 -2.3112
 6950TIP3   OH245044   3.244   5.930  11.769  0.3242  0.0969  0.1909
 6950TIP3    H145045   3.268   5.882  11.848 -0.7700 -0.7325  0.0362
 6950TIP3    H245046   3.232   5.862  11.702 -2.4027  0.4086  0.2495
 6951TIP3   OH245047   1.419   3.243  11.523 -0.2388  0.1146  0.3450
 6951TIP3    H145048   1.460   3.209  11.444  1.3171  1.3663  0.5605
 6951TIP3    H245049   1.423   3.338  11.514 -0.3743  0.2815  1.7581
 6952TIP3   OH245050   5.894   5.030   8.879 -0.4427  0.1508  0.3628
 6952TIP3    H145051   5.885   5.115   8.835  0.8692  0.1360  0.0250
 6952TIP3    H245052   5.979   4.997   8.850 -0.9941 -1.3558  0.3815
 6953TIP3   OH245053   3.357   6.107  11.353  0.2796  0.4965 -0.0897
 6953TIP3    H145054   3.315   6.113  11.439 -1.2979 -0.8499 -0.7051
 6953TIP3    H245055   3.377   6.014  11.343 -0.5873  0.4543 -1.6286
 6954TIP3   OH245056   3.131   5.575  12.461  0.4407  0.1728  0.6350
 6954TIP3    H145057   3.200   5.509  12.471  1.6137  1.5069  1.8282
 6954TIP3    H245058   3.099   5.590  12.550  0.1365  1.1599  0.3665
 6955TIP3   OH245059   1.997   3.020   8.832  0.5939 -0.1496 -0.1054
 6955TIP3    H145060   2.085   3.045   8.806  1.0306 -0.2187  1.2775
 6955TIP3    H245061   1.946   3.101   8.827  1.0873  0.2057  0.5338
 6956TIP3   OH245062   1.243   3.211   9.451 -0.5036  0.4274 -0.1254
 6956TIP3    H145063   1.303   3.140   9.476 -0.0499  0.4690 -1.0656
 6956TIP3    H245064   1.265   3.230   9.360 -0.7578  1.6488  0.0530
 6957TIP3   OH245065   1.991   3.666  10.693  0.1109 -0.6346 -0.1635
 6957TIP3    H145066   2.080   3.682  10.722  0.2121 -0.1324 -0.7346
 6957TIP3    H245067   1.999   3.599  10.625 -0.0007 -0.9110  0.0885
 6958TIP3   OH245068   4.754   4.036  10.993 -0.3370  0.1747 -0.0006
 6958TIP3    H145069   4.666   4.064  11.020 -0.8600 -0.1502 -1.2687
 6958TIP3    H245070   4.812   4.103  11.029 -1.0616  0.2230  1.1343
 6959TIP3   OH245071   0.855   6.196  10.014 -0.4643  0.2623 -0.4194
 6959TIP3    H145072   0.814   6.187   9.928 -0.1463 -3.2118 -0.3327
 6959TIP3    H245073   0.826   6.119  10.063  2.3517  0.1219  1.2689
 6960TIP3   OH245074   3.077   5.659   9.387  0.0383 -0.1511  0.0067
 6960TIP3    H145075   3.053   5.611   9.467 -0.2582  0.2863  0.1861
 6960TIP3    H245076   3.090   5.749   9.416  0.4797 -0.0972 -0.3475
 6961TIP3   OH245077   6.734   0.439  10.020 -0.3150  0.0923  0.5942
 6961TIP3    H145078   6.761   0.530  10.035 -0.6241  0.1702  0.6894
 6961TIP3    H245079   6.724   0.402  10.108  1.9181 -0.6785  0.5729
 6962TIP3   OH245080   5.086   0.529  11.199 -0.2073 -0.6978 -0.2979
 6962TIP3    H145081   5.074   0.616  11.238  0.2292 -0.7545 -0.0350
 6962TIP3    H245082   5.177   0.529  11.169 -0.9026 -0.1364 -2.5920
 6963TIP3   OH245083   3.853   3.018   9.621 -0.1596  0.0024 -0.4254
 6963TIP3    H145084   3.801   3.047   9.696 -0.3669  0.7493 -0.8479
 6963TIP3    H245085   3.944   3.038   9.647 -0.2762  0.8145 -0.5964
 6964TIP3   OH245086   3.681   4.288  11.942  0.5184 -0.4177  0.5445
 6964TIP3    H145087   3.701   4.258  11.853  0.7353  2.0152 -0.3190
 6964TIP3    H245088   3.751   4.350  11.962  0.4554 -0.9019  2.4416
 6965TIP3   OH245089   2.488   3.050   9.830  0.2782 -0.4431 -0.6602
 6965TIP3    H145090   2.431   3.122   9.860  0.4167 -0.9908  1.0534
 6965TIP3    H245091   2.576   3.079   9.851  0.3065 -1.2513  0.4223
 6966TIP3   OH245092   0.543   6.303  10.215 -0.0077  0.1260  0.1350
 6966TIP3    H145093   0.488   6.232  10.181  3.2341 -1.1835 -2.9997
 6966TIP3    H245094   0.573   6.271  10.300  0.2656 -1.6447 -0.5957
 6967TIP3   OH245095   5.173   4.488   8.512 -0.0866  0.4979 -0.2094
 6967TIP3    H145096   5.231   4.486   8.588 -1.9103 -1.0937  1.2563
 6967TIP3    H245097   5.205   4.416   8.456  0.9525  1.3566 -0.7649
 6968TIP3   OH245098   2.830   1.311   9.892 -0.0300  0.1120 -0.9504
 6968TIP3    H145099   2.867   1.399   9.904  1.2174 -0.3056 -1.5069
 6968TIP3    H245100   2.843   1.268   9.977  1.3994 -0.2281 -1.3075
 6969TIP3   OH245101   5.699   0.518  11.664  0.5335 -0.4459 -0.1169
 6969TIP3    H145102   5.729   0.580  11.598 -0.3057 -1.7324 -1.7904
 6969TIP3    H245103   5.604   0.518  11.655  0.3560 -0.3073  1.4612
 6970TIP3   OH245104   5.008   4.362   8.672  0.1654 -0.5396  0.2204
 6970TIP3    H145105   5.070   4.289   8.672  0.2220 -0.5199 -1.4847
 6970TIP3    H245106   5.052   4.432   8.623 -0.2731  0.3186  1.0097
 6971TIP3   OH245107   3.158   3.956  10.181 -0.3199  0.0151 -0.0822
 6971TIP3    H145108   3.244   3.914  10.172 -0.7650 -1.1323  0.7615
 6971TIP3    H245109   3.177   4.049  10.181  1.0357 -0.2258  0.9304
 6972TIP3   OH245110   4.841   2.750  11.265  0.0989 -0.1807 -0.2659
 6972TIP3    H145111   4.770   2.791  11.216  0.9951  1.9921  0.0974
 6972TIP3    H245112   4.841   2.795  11.349  2.0853  0.1492 -0.3868
 6973TIP3   OH245113   0.756   1.932  10.958  0.2972  0.0353 -0.3258
 6973TIP3    H145114   0.782   1.846  10.990 -1.7576 -0.2860  0.6683
 6973TIP3    H245115   0.715   1.915  10.873 -0.0398  0.0420 -0.1653
 6974TIP3   OH245116   2.722   0.361  10.758 -0.0311  0.1424  0.4950
 6974TIP3    H145117   2.725   0.272  10.722  1.7473 -0.0515  1.0609
 6974TIP3    H245118   2.647   0.401  10.713  0.0820 -1.1337 -0.9461
 6975TIP3   OH245119   1.459   4.119   8.713 -0.5226  0.1478  0.1275
 6975TIP3    H145120   1.440   4.193   8.657 -1.1503 -0.2580 -0.2006
 6975TIP3    H245121   1.543   4.141   8.754 -0.7264  1.0549  0.0768
 6976TIP3   OH245122   4.610   0.438  11.419 -0.4384 -0.2683  0.0069
 6976TIP3    H145123   4.682   0.382  11.448 -1.2598 -1.5250 -0.2788
 6976TIP3    H245124   4.638   0.470  11.334  0.2452  0.1375  0.3790
 6977TIP3   OH245125   0.470   1.373  10.501  0.4007  0.1906 -0.0146
 6977TIP3    H145126   0.477   1.394  10.408  0.4814 -0.6022 -0.1986
 6977TIP3    H245127   0.513   1.288  10.509 -1.9028 -1.0325  0.2506
 6978TIP3   OH245128   5.257   0.215   9.587 -0.3430 -0.2331  0.0209
 6978TIP3    H145129   5.309   0.195   9.665 -0.4014 -1.1367 -0.1665
 6978TIP3    H245130   5.311   0.187   9.513 -1.8933 -3.2562 -0.1304
 6979TIP3   OH245131   2.528   6.363  12.027  0.0800 -0.4166 -0.5201
 6979TIP3    H145132   2.544   6.272  12.053 -1.1940 -0.6251 -0.3814
 6979TIP3    H245133   2.614   6.404  12.030  0.6137 -1.5051 -0.1481
 6980TIP3   OH245134   3.286   1.540   9.416 -0.4076  0.1052 -0.0024
 6980TIP3    H145135   3.348   1.604   9.451 -0.9676  0.2095  0.8208
 6980TIP3    H245136   3.283   1.471   9.482 -1.5602  0.3557  0.2147
 6981TIP3   OH245137   1.540   3.101  10.879 -0.1942  0.5273 -0.1724
 6981TIP3    H145138   1.619   3.099  10.825 -1.3848  0.1889 -1.9831
 6981TIP3    H245139   1.531   3.012  10.913  0.6830  0.7971  0.8583
 6982TIP3   OH245140   4.958   3.731  10.622  0.0876 -0.5076 -0.3920
 6982TIP3    H145141   4.908   3.778  10.556  0.5054 -0.0479 -0.3881
 6982TIP3    H245142   4.903   3.733  10.700  0.0036 -0.2129 -0.4564
 6983TIP3   OH245143   1.576   3.344  10.247 -0.6081 -0.0274 -0.1066
 6983TIP3    H145144   1.634   3.419  10.244 -1.2192  0.5851  1.8975
 6983TIP3    H245145   1.621   3.276  10.197 -0.3478  1.8208 -2.5527
 6984TIP3   OH245146   2.373   1.679  11.634  0.1283 -0.0616 -0.4165
 6984TIP3    H145147   2.440   1.667  11.701  0.9662  0.3482 -1.1606
 6984TIP3    H245148   2.291   1.690  11.683  0.7661  0.5067  0.5411
 6985TIP3   OH245149   1.136   5.993  11.396  0.7420 -0.1729  0.1618
 6985TIP3    H145150   1.069   5.954  11.452  0.5384 -0.7856 -0.4940
 6985TIP3    H245151   1.123   6.088  11.406  0.2948 -0.2809  0.6569
 6986TIP3   OH245152   3.653   6.146  11.120  0.1333 -0.0074  0.3632
 6986TIP3    H145153   3.585   6.101  11.171  0.2345 -0.4188  0.1400
 6986TIP3    H245154   3.644   6.238  11.145 -0.3606 -0.0877  0.5073
 6987TIP3   OH245155   3.518   5.805  10.743 -0.6764 -0.3826 -0.2156
 6987TIP3    H145156   3.445   5.784  10.685  0.3137  0.0763 -1.6753
 6987TIP3    H245157   3.504   5.896  10.768 -2.0377 -1.0484  1.7521
 6988TIP3   OH245158   0.259   6.596   9.110 -0.4797 -0.4146 -0.0652
 6988TIP3    H145159   0.300   6.527   9.057  1.4596 -0.0333  0.8745
 6988TIP3    H245160   0.246   6.668   9.048 -2.5519 -1.5313 -1.0686
 6989TIP3   OH245161   1.610   2.644  10.060  0.6612  0.1304  0.2780
 6989TIP3    H145162   1.534   2.680  10.105 -0.6108 -0.4485 -1.3078
 6989TIP3    H245163   1.667   2.719  10.045 -0.1666  0.7969  0.3823
 6990TIP3   OH245164   5.219   4.934  10.664  0.6907 -0.0257 -0.1348
 6990TIP3    H145165   5.278   5.008  10.653  1.6046 -0.7421 -0.1424
 6990TIP3    H245166   5.174   4.926  10.580  1.4380 -0.2060 -0.5174
 6991TIP3   OH245167   2.654   2.989   9.022 -0.1347 -0.2082  0.1150
 6991TIP3    H145168   2.626   2.953   8.938  1.1382  0.3461 -0.5757
 6991TIP3    H245169   2.647   2.915   9.083 -0.9611 -0.6456 -0.4809
 6992TIP3   OH245170   2.780   5.208   9.702 -0.2305 -0.4413  0.2022
 6992TIP3    H145171   2.842   5.141   9.732  0.0856  0.0069  0.5607
 6992TIP3    H245172   2.732   5.232   9.781  1.7390  1.9639  0.8133
 6993TIP3   OH245173   1.231   0.153  12.162  0.3083  0.2084  0.3669
 6993TIP3    H145174   1.304   0.183  12.216  0.6532  0.8688 -0.4397
 6993TIP3    H245175   1.236   0.058  12.166  1.7524  0.2222 -0.3427
 6994TIP3   OH245176   4.810   1.880  10.279  0.1546  0.1956  0.5781
 6994TIP3    H145177   4.897   1.861  10.243  0.1308 -0.7211  0.9800
 6994TIP3    H245178   4.789   1.967  10.245  0.3157 -0.4252 -1.2498
 6995TIP3   OH245179   2.473   5.335   9.282 -0.9190 -0.1884  0.6742
 6995TIP3    H145180   2.554   5.299   9.245  0.8844  1.0719  3.0500
 6995TIP3    H245181   2.470   5.301   9.371 -1.5684  1.8403  1.4935
 6996TIP3   OH245182   2.977   5.929   8.946  0.0159 -0.5269  0.3966
 6996TIP3    H145183   2.900   5.960   8.899 -0.1927 -0.5243  0.7397
 6996TIP3    H245184   2.949   5.847   8.988 -0.3928  0.4508  2.1192
 6997TIP3   OH245185   1.572   4.211  12.161 -0.7452 -0.2797 -0.4862
 6997TIP3    H145186   1.512   4.279  12.130  0.3416  0.8479 -0.1995
 6997TIP3    H245187   1.642   4.259  12.205 -1.0879 -1.7115  1.7714
 6998TIP3   OH245188   3.568   5.059   9.328  0.2648  0.4147  0.1472
 6998TIP3    H145189   3.537   4.974   9.360 -1.0631  0.3298 -1.2743
 6998TIP3    H245190   3.539   5.122   9.395 -1.7308  0.1478 -0.4140
 6999TIP3   OH245191   0.564   5.781  10.215 -0.5131  0.2120 -0.4147
 6999TIP3    H145192   0.555   5.687  10.200 -2.5616  0.4790 -1.1902
 6999TIP3    H245193   0.560   5.791  10.310 -1.2925 -0.4007 -0.3764
 7000TIP3   OH245194   5.555   3.874   9.272  0.7655  0.1120 -0.3057
 7000TIP3    H145195   5.559   3.930   9.194 -0.2649 -0.9628 -1.1724
 7000TIP3    H245196   5.640   3.829   9.274  1.6500  1.7376  0.4648
 7001TIP3   OH245197   4.837   5.228   9.714 -0.5042 -0.6737 -0.1590
 7001TIP3    H145198   4.930   5.234   9.736 -0.0163 -1.4665 -1.7759
 7001TIP3    H245199   4.806   5.151   9.762 -0.2582 -0.5449  0.2084
 7002TIP3   OH245200   1.680   4.190  10.443  0.2059  0.1813  0.2989
 7002TIP3    H145201   1.599   4.208  10.395  0.4024  0.3825  0.0434
 7002TIP3    H245202   1.745   4.174  10.375 -0.0566 -1.9814  0.5043
 7003TIP3   OH245203   1.225   0.273   8.679 -0.4372 -0.2307 -0.3345
 7003TIP3    H145204   1.241   0.182   8.651  1.3378  0.2858 -1.1560
 7003TIP3    H245205   1.299   0.293   8.736 -0.9005  0.6535 -0.0395
 7004TIP3   OH245206   5.105   4.267   9.118 -0.1386  0.5767  0.3374
 7004TIP3    H145207   5.147   4.200   9.172  0.2931  1.1641  0.7271
 7004TIP3    H245208   5.033   4.220   9.074  0.4677 -0.2594  0.2167
 7005TIP3   OH245209   2.185   4.911  11.239 -0.1335 -0.2766  0.2923
 7005TIP3    H145210   2.255   4.875  11.185 -1.4476  0.0061 -1.7183
 7005TIP3    H245211   2.210   5.003  11.252 -0.0370 -0.2119 -0.2994
 7006TIP3   OH245212   4.701   6.284  10.303  0.3627  0.0877  0.2654
 7006TIP3    H145213   4.735   6.368  10.272  1.9995 -0.8281 -0.5357
 7006TIP3    H245214   4.650   6.250  10.230  0.6783 -0.1368  0.1472
 7007TIP3   OH245215   1.501   0.452  10.842  0.3824  0.2656  0.4022
 7007TIP3    H145216   1.552   0.527  10.873 -0.5112  0.3754  1.7333
 7007TIP3    H245217   1.414   0.466  10.880  0.2240 -1.4899  0.7613
 7008TIP3   OH245218   1.481   5.172  12.126  0.2347 -0.4932 -0.2950
 7008TIP3    H145219   1.504   5.191  12.217  0.1441  0.1033 -0.3930
 7008TIP3    H245220   1.532   5.234  12.075 -1.9469  1.2822 -0.4817
 7009TIP3   OH245221   3.105   5.908   9.511  0.4317  0.4600  0.0838
 7009TIP3    H145222   3.196   5.934   9.502  0.3456  0.2184 -1.7533
 7009TIP3    H245223   3.055   5.988   9.493  0.2561  0.1521 -0.8352
 7010TIP3   OH245224   5.170   0.704  11.560  0.4897  0.4899 -0.1697
 7010TIP3    H145225   5.113   0.721  11.636  0.1946  0.3612 -0.3591
 7010TIP3    H245226   5.185   0.610  11.563 -0.2994  0.3317 -0.8051
 7011TIP3   OH245227   4.911   1.627   9.273  0.1377  0.0262 -0.0845
 7011TIP3    H145228   4.915   1.582   9.358 -1.4911  0.5521  0.3072
 7011TIP3    H245229   4.905   1.556   9.209  1.1444 -0.3719  0.2402
 7012TIP3   OH245230   4.184   1.729   9.484 -0.2105  0.4469 -0.1419
 7012TIP3    H145231   4.252   1.792   9.509  1.3149 -0.5296 -1.6644
 7012TIP3    H245232   4.152   1.695   9.568  2.0605  0.0576  0.6499
 7013TIP3   OH245233   6.206   0.086  11.477 -0.8360 -0.1945  0.1794
 7013TIP3    H145234   6.217  -0.007  11.499 -1.5407 -0.3616 -0.1457
 7013TIP3    H245235   6.134   0.087  11.415 -1.3854  0.6599  0.8130
 7014TIP3   OH245236   3.857   4.547   9.681 -0.2060 -0.0937 -0.1248
 7014TIP3    H145237   3.874   4.473   9.740  0.9433  0.5198  0.3410
 7014TIP3    H245238   3.762   4.555   9.680 -0.2684 -0.0308  1.8082
 7015TIP3   OH245239   2.756   4.695  11.701 -0.2061  0.1296 -0.3833
 7015TIP3    H145240   2.849   4.675  11.703  0.1552  1.6793 -0.3931
 7015TIP3    H245241   2.721   4.642  11.629  0.8553  0.2302 -0.9920
 7016TIP3   OH245242   6.740   3.330  10.956  0.7855  0.3209 -0.5549
 7016TIP3    H145243   6.672   3.263  10.948  0.1392  0.9091 -0.1098
 7016TIP3    H245244   6.820   3.281  10.973 -0.2458 -0.2793  3.5642
 7017TIP3   OH245245   1.363   5.831  11.525 -0.4809  0.0726 -0.5827
 7017TIP3    H145246   1.427   5.837  11.454 -0.8764  0.7720 -0.8865
 7017TIP3    H245247   1.285   5.876  11.492 -1.1226 -0.7283 -0.2013
 7018TIP3   OH245248   6.237   1.489   9.741 -0.0930 -0.4997 -0.3118
 7018TIP3    H145249   6.172   1.467   9.673 -0.2434 -0.0100 -0.3273
 7018TIP3    H245250   6.191   1.474   9.823  0.1094 -1.1563 -0.3067
 7019TIP3   OH245251   4.900   3.925   9.176  0.0097 -0.0395  0.1448
 7019TIP3    H145252   4.823   3.873   9.153 -2.4050  3.0994  0.4055
 7019TIP3    H245253   4.964   3.905   9.107 -0.9203 -2.8068 -0.0462
 7020TIP3   OH245254   4.039   1.723  11.119  0.0864  0.0700 -0.3706
 7020TIP3    H145255   4.002   1.648  11.166 -0.9178  0.9054  0.2056
 7020TIP3    H245256   4.085   1.684  11.044  2.1477 -1.3447  1.4925
 7021TIP3   OH245257   0.889   1.028  10.444 -0.4099 -0.5310 -0.1002
 7021TIP3    H145258   0.881   0.952  10.501 -0.1945 -0.3805  0.1361
 7021TIP3    H245259   0.956   1.002  10.380 -0.8677 -0.8108 -0.4716
 7022TIP3   OH245260   2.817   6.644   9.915 -0.2864 -0.0840 -0.3485
 7022TIP3    H145261   2.739   6.589   9.928  0.6720 -1.2613  0.7556
 7022TIP3    H245262   2.843   6.627   9.824 -1.1896  0.1621 -0.6634
 7023TIP3   OH245263   4.291   4.481   9.988  0.2071 -0.9008 -0.1418
 7023TIP3    H145264   4.386   4.488  10.003  0.1011  2.1636 -0.1068
 7023TIP3    H245265   4.276   4.535   9.910 -1.6708  0.0656  0.8275
 7024TIP3   OH245266   5.341   2.564   9.148  0.2943  0.3565 -0.2104
 7024TIP3    H145267   5.425   2.589   9.186 -0.2543  0.7853  0.7689
 7024TIP3    H245268   5.276   2.613   9.198 -0.4023  2.7677 -3.1917
 7025TIP3   OH245269   6.103   0.118   9.505 -0.8038 -0.3142  0.1720
 7025TIP3    H145270   6.049   0.189   9.540 -0.2029  0.2118  0.0370
 7025TIP3    H245271   6.170   0.104   9.572  0.4074  0.7570 -0.7703
 7026TIP3   OH245272   5.588   1.476   9.401 -0.3819 -0.7383  0.3316
 7026TIP3    H145273   5.533   1.404   9.373 -0.9558  0.3111 -1.3782
 7026TIP3    H245274   5.579   1.542   9.332  1.6647  0.1680  0.8492
 7027TIP3   OH245275   6.158   2.847   8.927  0.1991 -0.0371 -0.1870
 7027TIP3    H145276   6.239   2.796   8.921  0.3221  0.1859 -0.4921
 7027TIP3    H245277   6.098   2.791   8.976  0.5561 -0.1800  0.0928
 7028TIP3   OH245278   2.990   3.416  10.346  0.2031  0.2047  0.2836
 7028TIP3    H145279   3.022   3.385  10.261 -2.0647 -0.0002 -0.5850
 7028TIP3    H245280   3.060   3.472  10.380  1.1895  0.2509 -1.6918
 7029TIP3   OH245281   6.058   2.174  11.239 -0.0340  0.5039 -0.0533
 7029TIP3    H145282   6.106   2.107  11.288 -0.5560  0.5183  0.4874
 7029TIP3    H245283   6.059   2.250  11.297 -0.7464  0.4912 -0.0220
 7030TIP3   OH245284   2.441   5.857   8.735 -0.4640  0.0333 -0.0118
 7030TIP3    H145285   2.433   5.809   8.817 -0.3586  1.0160  0.5847
 7030TIP3    H245286   2.436   5.789   8.667 -1.8477 -0.6505  0.7408
 7031TIP3   OH245287   4.353   4.455   9.089  0.1388  0.0316  0.1887
 7031TIP3    H145288   4.399   4.437   9.007  1.4638 -0.3542  0.9856
 7031TIP3    H245289   4.358   4.551   9.098 -0.4622  0.1279 -0.4190
 7032TIP3   OH245290   2.308   6.211  12.611 -0.1189  0.3415 -0.0928
 7032TIP3    H145291   2.217   6.183  12.603 -0.0460  0.0331  0.1493
 7032TIP3    H245292   2.353   6.136  12.651  0.6724 -0.3940 -2.1916
 7033TIP3   OH245293   6.406   1.469   9.420 -0.2716  0.5811  0.6470
 7033TIP3    H145294   6.354   1.424   9.487 -1.4520  1.5973  0.4656
 7033TIP3    H245295   6.461   1.401   9.383 -1.1733 -0.4682  1.1556
 7034TIP3   OH245296   6.615   0.744   9.103 -0.5880 -0.0041 -0.5055
 7034TIP3    H145297   6.589   0.793   9.025  0.8188 -0.4606 -1.3134
 7034TIP3    H245298   6.543   0.683   9.119 -1.2198  0.5956 -1.0132
 7035TIP3   OH245299   2.981   3.397  11.471  0.2211  0.2971 -0.6631
 7035TIP3    H145300   2.913   3.340  11.507  0.2565  0.1344 -0.8524
 7035TIP3    H245301   3.041   3.412  11.544 -0.4335  1.0852 -0.2695
 7036TIP3   OH245302   1.262   2.042   9.032  0.5117  0.1074  0.1822
 7036TIP3    H145303   1.203   1.997   8.971 -0.2925 -0.4838  1.3405
 7036TIP3    H245304   1.210   2.051   9.112  1.5573  0.7857  0.8056
 7037TIP3   OH245305   0.902   4.024   8.568  0.1563  0.0133  0.3722
 7037TIP3    H145306   0.929   3.935   8.590  1.0412  0.1557 -0.1115
 7037TIP3    H245307   0.813   4.015   8.535  0.0462 -0.6231  0.8374
 7038TIP3   OH245308   1.878   2.747  17.382 -0.2879 -0.8156  0.3463
 7038TIP3    H145309   1.973   2.745  17.375 -0.0412  4.0361 -1.7110
 7038TIP3    H245310   1.860   2.792  17.464 -0.9263 -2.1076  0.9540
 7039TIP3   OH245311   2.503   1.065   9.966  0.3170 -0.2423  0.2248
 7039TIP3    H145312   2.421   1.054  10.013  0.4731  0.2927  0.6255
 7039TIP3    H245313   2.478   1.060   9.873  0.0449 -1.5176  0.3428
 7040TIP3   OH245314   2.782   4.595   8.570  0.9743 -0.0815 -0.5764
 7040TIP3    H145315   2.803   4.677   8.613 -1.8143 -0.0198  0.9085
 7040TIP3    H245316   2.708   4.615   8.513  0.0330 -1.5736  0.0454
 7041TIP3   OH245317   0.733   6.610   8.753 -0.1839 -0.1924 -0.2240
 7041TIP3    H145318   0.677   6.554   8.700 -1.1942 -0.2823  0.8994
 7041TIP3    H245319   0.700   6.699   8.737 -0.1109 -0.1631 -0.2118
 7042TIP3   OH245320   2.923   4.539  11.403  0.4567 -0.2795 -0.2147
 7042TIP3    H145321   2.830   4.545  11.425  0.1452 -1.7574 -1.0113
 7042TIP3    H245322   2.964   4.610  11.452 -0.8008 -0.8534  1.7571
 7043TIP3   OH245323   2.763   4.958  10.614  0.2689  0.2056 -0.1756
 7043TIP3    H145324   2.737   4.911  10.535 -1.3925  0.5634  0.1313
 7043TIP3    H245325   2.716   5.042  10.609  0.5261  0.4314  0.9443
 7044TIP3   OH245326   0.280   0.239  11.008 -0.1506 -0.4097  0.4780
 7044TIP3    H145327   0.204   0.283  11.046 -0.0237 -0.5073  0.8497
 7044TIP3    H245328   0.302   0.170  11.071  0.2648 -0.3580  0.3945
 7045TIP3   OH245329   3.738   5.902   9.495 -0.3296  0.1527  0.0767
 7045TIP3    H145330   3.774   5.977   9.543  1.1282 -1.0487  0.9202
 7045TIP3    H245331   3.670   5.941   9.439 -0.5010  1.9192  1.4091
 7046TIP3   OH245332   5.672   0.847   8.945  0.7150 -0.3866  0.5165
 7046TIP3    H145333   5.672   0.918   9.010 -0.1954  1.8348 -1.7543
 7046TIP3    H245334   5.584   0.849   8.907  1.0143 -2.0469 -0.3644
 7047TIP3   OH245335   4.633   3.329   9.545 -0.1253  0.2443 -0.9147
 7047TIP3    H145336   4.553   3.317   9.595 -1.4904 -1.2458 -3.2845
 7047TIP3    H245337   4.629   3.420   9.515 -0.9776  0.1602 -1.0781
 7048TIP3   OH245338   2.506   6.103  11.743  0.1640  0.2848  0.2949
 7048TIP3    H145339   2.475   6.012  11.753  0.2417  0.0989 -0.9256
 7048TIP3    H245340   2.545   6.125  11.828 -1.4009 -0.2159  1.1798
 7049TIP3   OH245341   4.928   3.284  11.813  0.2013 -0.5063 -0.4163
 7049TIP3    H145342   4.939   3.196  11.847  1.5152  0.0584  0.7225
 7049TIP3    H245343   5.009   3.301  11.764 -0.3145 -0.1476 -1.1719
 7050TIP3   OH245344   0.780   5.251   9.611  0.1658 -0.2167 -0.4283
 7050TIP3    H145345   0.828   5.330   9.636  1.8722 -1.1833 -0.5089
 7050TIP3    H245346   0.803   5.187   9.678  0.7315 -1.3489 -1.6671
 7051TIP3   OH245347   3.806   5.462  12.086  0.0742  0.6473  0.2315
 7051TIP3    H145348   3.756   5.380  12.086  0.2678  0.5051  1.6268
 7051TIP3    H245349   3.840   5.469  11.997 -1.5747  0.2364 -0.4763
 7052TIP3   OH245350   0.213   5.038   9.763 -0.2516 -0.2120 -0.5775
 7052TIP3    H145351   0.215   5.098   9.689 -0.0332  2.6273  1.5632
 7052TIP3    H245352   0.302   5.003   9.769 -0.1236 -0.0111 -1.2810
 7053TIP3   OH245353   4.746   3.989  11.411 -0.2705  0.4879  0.7809
 7053TIP3    H145354   4.758   3.999  11.506 -0.5133 -1.7972  1.1135
 7053TIP3    H245355   4.804   3.917  11.387 -1.4007 -0.0486 -0.4772
 7054TIP3   OH245356   2.638   1.808   9.747 -0.1789  0.3854 -0.2247
 7054TIP3    H145357   2.632   1.755   9.826 -0.7997 -1.5729 -1.4946
 7054TIP3    H245358   2.610   1.895   9.774  1.1015  0.1823  2.0099
 7055TIP3   OH245359   5.415   3.387  10.530  0.6276  0.0120  0.3837
 7055TIP3    H145360   5.379   3.360  10.446  0.5495 -2.0205  1.0323
 7055TIP3    H245361   5.462   3.310  10.563 -0.3454  0.3328  2.7368
 7056TIP3   OH245362   2.103   0.942  12.101 -0.1668 -0.1469  0.2820
 7056TIP3    H145363   2.024   0.980  12.138 -1.0534 -2.5859  1.0897
 7056TIP3    H245364   2.175   0.995  12.136 -1.3607  1.7545 -0.0151
 7057TIP3   OH245365   1.987   4.597   9.677  0.5403 -0.0999  0.1953
 7057TIP3    H145366   1.952   4.628   9.761 -1.3458 -0.5542 -0.3624
 7057TIP3    H245367   2.057   4.537   9.700 -1.1608 -1.6859  1.5780
 7058TIP3   OH245368   1.254   5.307  11.105  0.2225  0.0886  0.7677
 7058TIP3    H145369   1.234   5.233  11.046  0.9224 -0.3880  1.1144
 7058TIP3    H245370   1.336   5.342  11.071  0.1692  0.3717  0.9355
 7059TIP3   OH245371   5.925   4.886  10.070  0.2367  0.0640  0.0851
 7059TIP3    H145372   5.892   4.838  10.147  0.0516 -2.7176 -1.5831
 7059TIP3    H245373   6.019   4.871  10.071  0.7414  2.7318  1.4089
 7060TIP3   OH245374   6.129   5.873   9.045 -0.2345  0.0186  0.2078
 7060TIP3    H145375   6.180   5.909   8.972 -0.5794  1.8043  0.7950
 7060TIP3    H245376   6.187   5.879   9.121 -1.4085  2.6923  1.0222
 7061TIP3   OH245377   3.690   0.153  11.599 -0.2280 -0.5241 -0.0798
 7061TIP3    H145378   3.711   0.213  11.527 -2.1842  1.1174  0.6457
 7061TIP3    H245379   3.613   0.105  11.569 -0.0841 -0.9911  0.2898
 7062TIP3   OH245380   4.359   1.442  12.097  0.3260 -0.0908  0.0474
 7062TIP3    H145381   4.452   1.464  12.106  0.2571 -0.3527  1.5368
 7062TIP3    H245382   4.327   1.502  12.029  1.0313  1.7131  1.2470
 7063TIP3   OH245383   4.616   1.832   9.749 -0.4429  0.6118  0.1709
 7063TIP3    H145384   4.683   1.781   9.704 -1.3892  0.3907 -1.0314
 7063TIP3    H245385   4.662   1.872   9.823  1.5805  2.4272 -1.9449
 7064TIP3   OH245386   3.903   1.526  11.295 -0.2220 -0.6294 -0.4315
 7064TIP3    H145387   3.841   1.468  11.252  0.4979 -1.0958 -0.8574
 7064TIP3    H245388   3.978   1.470  11.315 -0.1741 -0.2154  0.6250
 7065TIP3   OH245389   1.019   4.330  10.411  0.6427  0.8664  0.1540
 7065TIP3    H145390   1.114   4.334  10.417  0.5690  1.3434  1.2045
 7065TIP3    H245391   1.001   4.337  10.318  1.6125  1.3697 -0.0101
 7066TIP3   OH245392   3.055   2.547   9.129  0.4019 -0.1140 -0.0209
 7066TIP3    H145393   2.978   2.535   9.073  1.4041  1.0371 -1.7329
 7066TIP3    H245394   3.120   2.488   9.093  0.0331 -1.9894  2.1638
 7067TIP3   OH245395   4.311   3.182  11.094 -0.6571 -0.0913 -0.2708
 7067TIP3    H145396   4.379   3.120  11.068 -0.4972 -0.2069  0.4098
 7067TIP3    H245397   4.232   3.128  11.102 -0.5665 -0.1723  0.1013
 7068TIP3   OH245398   4.141   3.959   8.898 -0.2527 -0.1659 -0.1524
 7068TIP3    H145399   4.220   3.913   8.871 -0.5803 -0.2316 -1.0107
 7068TIP3    H245400   4.115   4.011   8.822 -1.0398 -0.1516  0.1136
 7069TIP3   OH245401   1.825   2.496   9.424  0.2686  0.1054  0.1142
 7069TIP3    H145402   1.872   2.416   9.448  0.7987  0.7026  1.1417
 7069TIP3    H245403   1.853   2.514   9.334  1.1759 -0.1484  0.3321
 7070TIP3   OH245404   0.541   3.403  11.268  0.0716  0.1004  0.1204
 7070TIP3    H145405   0.604   3.355  11.215 -0.2355 -0.4258  0.2239
 7070TIP3    H245406   0.506   3.470  11.210  0.6271  0.3100  0.0238
 7071TIP3   OH245407   1.923   0.874   9.345  0.2168 -0.1030  0.4601
 7071TIP3    H145408   1.887   0.900   9.429  0.2786  0.3473  0.3527
 7071TIP3    H245409   1.865   0.806   9.313  0.2813 -0.3835  0.9361
 7072TIP3   OH245410   1.749   6.605   9.819 -0.9567  0.0507  0.2383
 7072TIP3    H145411   1.824   6.651   9.781  0.0252  0.3893  2.4334
 7072TIP3    H245412   1.728   6.537   9.755  0.3895  0.7776 -1.0283
 7073TIP3   OH245413   2.377   5.281  10.817  0.0057  0.6347  0.0567
 7073TIP3    H145414   2.288   5.315  10.817  0.3873  1.6699  0.0077
 7073TIP3    H245415   2.404   5.283  10.909 -0.3523 -0.6183  0.2088
 7074TIP3   OH245416   5.147   4.417   9.602 -0.4437  0.2224  0.2139
 7074TIP3    H145417   5.073   4.453   9.553 -0.9367  2.1709  2.1831
 7074TIP3    H245418   5.116   4.413   9.692  1.0170 -1.4763  0.6984
 7075TIP3   OH245419   0.628   0.678   9.928 -0.2709 -0.0185  0.1917
 7075TIP3    H145420   0.661   0.714  10.011 -0.0451  1.7555 -0.6251
 7075TIP3    H245421   0.698   0.695   9.865 -1.5310  1.1849 -0.9437
 7076TIP3   OH245422   0.043   1.257  10.496  0.4125 -0.0045 -0.0131
 7076TIP3    H145423   0.013   1.340  10.532  2.2386  0.2399  1.0609
 7076TIP3    H245424   0.105   1.281  10.426  1.5688 -0.4183  0.8389
 7077TIP3   OH245425   4.171   3.206   9.517  0.0533 -0.0301  0.0193
 7077TIP3    H145426   4.242   3.230   9.576  0.3386 -1.5205  0.3122
 7077TIP3    H245427   4.197   3.122   9.479 -0.2275  0.7619 -2.0809
 7078TIP3   OH245428   6.078   1.465  10.926 -0.4690  0.3579  0.1287
 7078TIP3    H145429   6.172   1.458  10.941 -0.5897 -0.1154  0.7055
 7078TIP3    H245430   6.038   1.421  11.001 -1.1461  0.2093 -0.3091
 7079TIP3   OH245431   0.502   4.992   8.828  0.1143 -0.0681 -0.6934
 7079TIP3    H145432   0.581   5.033   8.792  0.1028  1.2868  0.7479
 7079TIP3    H245433   0.527   4.900   8.840  1.8815  0.5434  0.7602
 7080TIP3   OH245434   5.656   6.353  11.888 -0.3105 -0.6300 -0.2089
 7080TIP3    H145435   5.746   6.336  11.916 -0.7358 -1.4231  0.6965
 7080TIP3    H245436   5.637   6.285  11.824 -0.1166 -0.1797 -0.7549
 7081TIP3   OH245437   0.543   5.939   9.864 -0.1343  0.6990  0.2876
 7081TIP3    H145438   0.544   6.029   9.832 -0.7621  0.9702  0.9793
 7081TIP3    H245439   0.616   5.935   9.927  0.7950  0.3027 -0.7883
 7082TIP3   OH245440   2.558   1.943  10.190 -0.2917 -0.0264 -0.3997
 7082TIP3    H145441   2.512   2.020  10.155  1.1757  0.3802 -1.5331
 7082TIP3    H245442   2.608   1.976  10.264 -0.6429 -0.1594 -0.1009
 7083TIP3   OH245443   6.334   6.077   7.825 -0.3456  0.0618  0.4062
 7083TIP3    H145444   6.283   6.136   7.881 -1.4249 -0.2577 -0.2129
 7083TIP3    H245445   6.314   6.105   7.736  0.1679 -0.3956  0.1423
 7084TIP3   OH245446   0.470   6.256   9.194 -0.3128  0.2799  0.6084
 7084TIP3    H145447   0.446   6.337   9.148  2.2263  1.7126  1.5387
 7084TIP3    H245448   0.447   6.273   9.285  0.1088 -0.0705  0.7848
 7085TIP3   OH245449   3.713   3.951   9.379  0.2920 -0.5534  0.1264
 7085TIP3    H145450   3.745   4.034   9.413  0.0951 -0.7464  0.7903
 7085TIP3    H245451   3.637   3.931   9.433  1.1191 -1.8330  0.8600
 7086TIP3   OH245452   4.208   0.333   9.403  0.0909  0.2099 -0.2380
 7086TIP3    H145453   4.155   0.361   9.328  0.0112  1.4877  0.2624
 7086TIP3    H245454   4.200   0.405   9.465  0.1820 -0.8212  0.9957
 7087TIP3   OH245455   2.670   5.516  10.315  0.0568 -0.4129 -0.2715
 7087TIP3    H145456   2.753   5.510  10.267  0.3741  2.4826 -0.2557
 7087TIP3    H245457   2.694   5.553  10.400 -1.2341  0.4393 -0.2556
 7088TIP3   OH245458   4.437   0.415  12.852  0.6822 -0.2866  0.5473
 7088TIP3    H145459   4.411   0.472  12.780  1.4010  1.3889  1.5320
 7088TIP3    H245460   4.526   0.388  12.831  0.4146 -0.9122  0.1812
 7089TIP3   OH245461   5.709   2.182  10.813  0.2462 -0.4931  0.0942
 7089TIP3    H145462   5.742   2.092  10.812 -0.8803 -0.9118 -0.1713
 7089TIP3    H245463   5.748   2.222  10.735  0.3448 -0.8895 -0.0631
 7090TIP3   OH245464   5.345   5.598   9.128 -0.3091 -0.2877  0.2850
 7090TIP3    H145465   5.309   5.686   9.121  0.8085  0.2954  1.3852
 7090TIP3    H245466   5.438   5.609   9.109 -0.1135 -1.1842  0.6621
 7091TIP3   OH245467   1.945   4.780  10.484 -1.0775  0.1895  0.1426
 7091TIP3    H145468   1.869   4.721  10.485  0.1943 -1.5823 -1.6696
 7091TIP3    H245469   1.992   4.757  10.404  1.2507  1.4298  1.0797
 7092TIP3   OH245470   5.013   5.986   9.513 -0.3842 -0.2824  0.0642
 7092TIP3    H145471   5.023   5.976   9.608 -1.3373  0.6488  0.2891
 7092TIP3    H245472   5.057   5.910   9.476  2.2094  0.5592  1.1264
 7093TIP3   OH245473   1.736   5.216   9.313 -0.1703 -0.1481  0.3414
 7093TIP3    H145474   1.732   5.277   9.387  1.7262  0.3206  0.1082
 7093TIP3    H245475   1.811   5.245   9.262 -0.4350 -1.4886 -0.8747
 7094TIP3   OH245476   0.060   3.508   8.726  0.5872  0.3526 -0.5030
 7094TIP3    H145477   0.149   3.480   8.747  0.2989 -1.2291 -1.2430
 7094TIP3    H245478   0.044   3.474   8.638 -0.4921  1.2470 -0.6731
 7095TIP3   OH245479   5.794   3.440   9.461 -0.0555 -0.0642  0.0044
 7095TIP3    H145480   5.857   3.369   9.479 -2.0671 -1.6834  1.0700
 7095TIP3    H245481   5.782   3.483   9.546  0.0144  0.6178 -0.3230
 7096TIP3   OH245482   2.429   6.213  10.719 -0.3150  0.3117  0.5908
 7096TIP3    H145483   2.509   6.259  10.692 -0.8928  0.5536 -0.7944
 7096TIP3    H245484   2.408   6.156  10.645 -1.3020  0.0799  1.0344
 7097TIP3   OH245485   6.181   1.280  10.726 -0.0342  0.1987 -0.4781
 7097TIP3    H145486   6.099   1.235  10.746 -0.8949  1.3583 -1.2921
 7097TIP3    H245487   6.189   1.347  10.794 -0.3778  0.8468 -1.0629
 7098TIP3   OH245488   5.520   1.589  10.382 -0.1070  0.3129 -0.1042
 7098TIP3    H145489   5.457   1.661  10.386 -0.9938 -0.4867  2.1670
 7098TIP3    H245490   5.589   1.613  10.443  0.5155  0.0161 -0.6753
 7099TIP3   OH245491   5.450   1.674   9.214 -0.1195  0.1665  0.5133
 7099TIP3    H145492   5.454   1.766   9.190 -0.1901  0.3724  1.2620
 7099TIP3    H245493   5.369   1.666   9.265 -0.5320 -0.4754 -0.2190
 7100TIP3   OH245494   2.814   4.992   9.485 -1.1279  0.4508 -0.1755
 7100TIP3    H145495   2.891   4.971   9.538  0.5834  1.5923 -2.1021
 7100TIP3    H245496   2.772   5.065   9.531 -2.5726 -1.6930  2.2039
 7101TIP3   OH245497   0.108   5.344   8.906 -0.1253 -0.3088  0.1122
 7101TIP3    H145498   0.147   5.319   8.822 -0.9101  0.5637 -0.5342
 7101TIP3    H245499   0.069   5.430   8.890  0.2343  0.1542  1.5444
 7102TIP3   OH245500   1.782   3.792   9.143 -0.3479  0.4952  0.4673
 7102TIP3    H145501   1.846   3.812   9.075 -0.7178 -0.3253 -0.1332
 7102TIP3    H245502   1.832   3.745   9.210  0.0689  1.5216  0.8920
 7103TIP3   OH245503   6.685   2.999   9.006 -0.5330 -0.1714 -0.2927
 7103TIP3    H145504   6.714   3.089   9.021 -1.3566  0.2410 -1.0863
 7103TIP3    H245505   6.745   2.966   8.938 -1.5467  0.5191 -1.5770
 7104TIP3   OH245506   5.493   6.515   9.969 -0.1413 -0.0540  0.0216
 7104TIP3    H145507   5.470   6.532   9.877  1.2163 -1.2539 -0.5774
 7104TIP3    H245508   5.561   6.579   9.989 -1.5606  1.2989  0.7530
 7105TIP3   OH245509   2.283   1.088  10.912 -0.4705 -0.4197  0.4989
 7105TIP3    H145510   2.374   1.103  10.938 -1.0403  1.4916  1.5444
 7105TIP3    H245511   2.236   1.166  10.942 -1.7250  0.7443 -3.7816
 7106TIP3   OH245512   2.853   6.591   8.846 -0.2515 -0.0911  0.3993
 7106TIP3    H145513   2.789   6.560   8.781  0.7253  0.9661 -1.1509
 7106TIP3    H245514   2.872   6.681   8.819  1.7558 -0.3341  0.8975
 7107TIP3   OH245515   1.569   0.827   9.992 -0.1890 -0.6696  0.4357
 7107TIP3    H145516   1.560   0.793   9.903  1.4207  0.7298 -0.3185
 7107TIP3    H245517   1.660   0.810  10.015 -0.3727 -0.2862  1.5180
 7108TIP3   OH245518   1.045   5.181   8.692  0.2610 -0.3502 -0.0102
 7108TIP3    H145519   1.069   5.133   8.772  0.3441  2.0095  1.4588
 7108TIP3    H245520   0.952   5.163   8.681  0.2401 -0.6773  0.6381
 7109TIP3   OH245521   3.224   0.653  11.544  0.0340 -0.2692 -0.6521
 7109TIP3    H145522   3.199   0.716  11.477  0.3436 -1.0243 -1.4988
 7109TIP3    H245523   3.310   0.684  11.574  0.0256 -0.0872 -0.8092
 7110TIP3   OH245524   1.531   6.699  12.678 -0.1235 -0.1858 -0.3859
 7110TIP3    H145525   1.582   6.777  12.697 -0.8208 -0.0768  1.1758
 7110TIP3    H245526   1.441   6.731  12.669 -0.3867 -0.7856  0.0987
 7111TIP3   OH245527   5.839   4.757  10.472 -0.0346  0.1606 -0.0666
 7111TIP3    H145528   5.773   4.700  10.512 -0.8188  0.3158 -1.1272
 7111TIP3    H245529   5.879   4.802  10.547  0.8825 -2.0129  0.8729
 7112TIP3   OH245530   1.762   6.415   9.061 -0.0695  0.3209  0.6827
 7112TIP3    H145531   1.794   6.448   9.144  0.2278  1.0758  0.2741
 7112TIP3    H245532   1.672   6.447   9.054  0.1788  0.9565  0.3413
 7113TIP3   OH245533   5.383   3.722   9.631  0.9310  0.0362 -0.4832
 7113TIP3    H145534   5.304   3.729   9.684  1.1277 -1.1544 -0.0057
 7113TIP3    H245535   5.377   3.795   9.569 -0.4993  0.0124 -0.4028
 7114TIP3   OH245536   2.646   3.858  11.097 -0.1070 -0.0614 -0.1094
 7114TIP3    H145537   2.711   3.827  11.033  0.9226 -0.2221  0.9750
 7114TIP3    H245538   2.684   3.835  11.182 -1.4128  0.2123  0.5716
 7115TIP3   OH245539   3.052   5.049  10.046 -0.4240  0.5256 -0.2588
 7115TIP3    H145540   3.121   5.056  10.112 -0.1964  0.1665 -0.4520
 7115TIP3    H245541   2.971   5.067  10.094 -0.2285  0.6085  0.0433
 7116TIP3   OH245542   2.327   2.250  11.955 -0.4500 -0.0227  0.2404
 7116TIP3    H145543   2.354   2.337  11.984 -0.6209  0.4497 -0.9609
 7116TIP3    H245544   2.235   2.244  11.977 -0.5591  0.3034 -0.1098
 7117TIP3   OH245545   0.496   2.098  10.470 -0.4939  0.6014  0.2826
 7117TIP3    H145546   0.535   2.145  10.543 -0.9410  1.2640  0.1019
 7117TIP3    H245547   0.439   2.162  10.428 -0.5946  0.0930 -0.3709
 7118TIP3   OH245548   3.515   4.691  12.309 -0.4100 -0.8415  0.2786
 7118TIP3    H145549   3.505   4.621  12.244  0.9727 -1.1041  0.3033
 7118TIP3    H245550   3.445   4.675  12.372  0.7216 -3.1530  1.0898
 7119TIP3   OH245551   4.059   2.385  11.067 -0.3633  0.3159  0.3501
 7119TIP3    H145552   4.129   2.416  11.010 -1.2410  1.0078 -0.3788
 7119TIP3    H245553   4.103   2.328  11.130  0.5232 -1.2146 -1.5442
 7120TIP3   OH245554   5.901   6.180   9.226 -0.3059 -0.0024  0.7607
 7120TIP3    H145555   5.896   6.087   9.206 -0.1887 -0.1630  1.4359
 7120TIP3    H245556   5.967   6.186   9.296  0.2958  0.6793  0.1618
 7121TIP3   OH245557   6.735   1.519  10.130 -0.5700 -0.1138 -0.1158
 7121TIP3    H145558   6.812   1.493  10.179  0.9278  2.4149 -0.9357
 7121TIP3    H245559   6.769   1.562  10.052 -2.8559 -0.7732 -1.6063
 7122TIP3   OH245560   4.890   6.232  11.301 -0.0894 -0.4184  0.1907
 7122TIP3    H145561   4.931   6.239  11.215 -1.1096 -1.6257 -0.4239
 7122TIP3    H245562   4.807   6.188  11.285 -0.4740 -0.3257  1.7484
 7123TIP3   OH245563   3.345   2.002  11.911  0.4029  0.5297 -0.7781
 7123TIP3    H145564   3.360   2.071  11.846 -0.6417  0.0561 -1.5527
 7123TIP3    H245565   3.251   2.009  11.931  0.6871  0.5854  0.6072
 7124TIP3   OH245566   1.718   5.260   8.985 -0.1390 -0.6993  0.4710
 7124TIP3    H145567   1.740   5.353   8.987 -0.9617 -0.4661 -0.6150
 7124TIP3    H245568   1.706   5.236   9.077  1.1487 -0.0144  0.8548
 7125TIP3   OH245569   0.720   0.007  11.898 -0.1615  0.3180 -0.4225
 7125TIP3    H145570   0.674  -0.047  11.962 -1.0213 -1.1388 -2.1493
 7125TIP3    H245571   0.804   0.027  11.939 -0.1710 -1.6170  0.6723
 7126TIP3   OH245572   3.509   6.571  10.554 -0.1257  0.5299  1.0492
 7126TIP3    H145573   3.560   6.631  10.608  2.6818 -0.4848 -0.2659
 7126TIP3    H245574   3.500   6.617  10.470 -0.0587  0.0955  0.8036
 7127TIP3   OH245575   5.694   4.806  11.240  0.4437  0.4839 -0.0042
 7127TIP3    H145576   5.640   4.885  11.245 -2.3928 -1.1856 -1.2681
 7127TIP3    H245577   5.665   4.753  11.314  1.4143  0.1012  0.1181
 7128TIP3   OH245578   3.362   4.549  10.581  0.1598 -0.0125 -0.5749
 7128TIP3    H145579   3.366   4.454  10.578 -0.6403 -0.0783 -0.0312
 7128TIP3    H245580   3.337   4.569  10.671  4.1024  0.9144  0.4619
 7129TIP3   OH245581   3.511   5.222   9.619  0.3439  0.2349  0.1749
 7129TIP3    H145582   3.605   5.237   9.608  0.3070  0.1670 -0.2409
 7129TIP3    H245583   3.504   5.162   9.693  0.6529 -0.1313 -0.0919
 7130TIP3   OH245584   1.778   6.739  11.010  0.2214 -0.1733  0.2232
 7130TIP3    H145585   1.801   6.810  10.951 -1.0904 -0.2439 -0.4076
 7130TIP3    H245586   1.683   6.730  11.002  0.1973 -1.1367  1.2673
 7131TIP3   OH245587   2.422   4.538  10.414 -0.1423 -0.3187  0.4086
 7131TIP3    H145588   2.483   4.487  10.468  0.2171 -1.8750 -1.3586
 7131TIP3    H245589   2.423   4.626  10.453  1.0660 -1.0214  2.1111
 7132TIP3   OH245590   5.426   1.349   9.241 -0.4857  0.6227  0.4643
 7132TIP3    H145591   5.359   1.396   9.193  0.4928  0.9809 -0.5936
 7132TIP3    H245592   5.415   1.257   9.215 -0.0078  0.8059 -0.4082
 7133TIP3   OH245593   4.281   1.356  10.622 -0.6282 -0.3224  0.2049
 7133TIP3    H145594   4.242   1.384  10.705 -0.6381  0.7177 -0.1438
 7133TIP3    H245595   4.242   1.270  10.605 -1.3991 -0.0873  0.7595
 7134TIP3   OH245596   2.985   1.369  10.528 -0.2183 -0.6306 -0.5002
 7134TIP3    H145597   2.958   1.286  10.489 -0.5135 -1.6719  1.7647
 7134TIP3    H245598   2.904   1.409  10.559 -0.1635  0.8725 -2.1203
 7135TIP3   OH245599   0.622   5.388   9.198  0.4865 -0.6680  0.8711
 7135TIP3    H145600   0.634   5.333   9.120  1.4699 -0.0305  0.5569
 7135TIP3    H245601   0.707   5.432   9.210 -0.9771  2.9052 -0.5291
 7136TIP3   OH245602   5.067   2.028  10.981  0.3386 -0.0852  0.0045
 7136TIP3    H145603   5.145   2.013  10.927 -0.1192  0.7284 -0.9142
 7136TIP3    H245604   5.055   1.945  11.028  1.3976 -0.4317 -0.2909
 7137TIP3   OH245605   2.441   5.348  12.254 -0.0190 -0.2096 -0.0948
 7137TIP3    H145606   2.524   5.313  12.221 -0.1473  0.9959 -1.8599
 7137TIP3    H245607   2.385   5.352  12.176 -0.0905  3.5668  0.0006
 7138TIP3   OH245608   0.079   2.635   9.722 -0.0670 -0.1532  0.5711
 7138TIP3    H145609   0.012   2.569   9.740 -0.5085 -0.0828 -0.7748
 7138TIP3    H245610   0.043   2.688   9.652  1.2472  0.1203  0.0765
 7139TIP3   OH245611   3.462   3.718  10.761  0.3020 -0.2708 -0.3809
 7139TIP3    H145612   3.519   3.760  10.825  0.5429  0.7323 -1.2281
 7139TIP3    H245613   3.376   3.715  10.803  0.1679  1.5266 -0.4560
 7140TIP3   OH245614   4.149   6.622  12.359 -0.2374 -0.1488 -0.1106
 7140TIP3    H145615   4.142   6.715  12.379 -1.4841  0.5110 -3.0672
 7140TIP3    H245616   4.241   6.601  12.377 -0.0258  1.5304  1.0221
 7141TIP3   OH245617   4.009   1.196  11.595 -0.0765 -1.1311 -0.3566
 7141TIP3    H145618   4.074   1.138  11.633  0.8749  0.6873  0.9648
 7141TIP3    H245619   3.925   1.163  11.629  0.6452 -0.2248  2.6438
 7142TIP3   OH245620   0.591   4.150   9.236  0.3205 -0.2065 -0.2187
 7142TIP3    H145621   0.601   4.165   9.330  0.3436  3.0458 -0.6380
 7142TIP3    H245622   0.662   4.090   9.214  1.4357  0.3874  1.5627
 7143TIP3   OH245623   5.139   6.434   8.963 -0.2769  0.4496  0.2744
 7143TIP3    H145624   5.225   6.397   8.943 -0.2840 -0.0677  1.1436
 7143TIP3    H245625   5.077   6.363   8.945 -0.4547  0.5955  0.3021
 7144TIP3   OH245626   3.141   1.918  11.169  0.0357  0.0306  0.4407
 7144TIP3    H145627   3.234   1.925  11.190  0.2155  1.0618 -0.6042
 7144TIP3    H245628   3.099   1.980  11.229  0.1335  0.2333  0.3035
 7145TIP3   OH245629   1.304   4.139  10.494 -0.0261 -0.5875  0.4126
 7145TIP3    H145630   1.230   4.079  10.500 -0.5349 -0.1157 -0.8221
 7145TIP3    H245631   1.363   4.098  10.430 -0.4043  0.2233 -0.4803
 7146TIP3   OH245632   6.499   1.759  11.518 -0.2634 -0.2054 -0.0212
 7146TIP3    H145633   6.412   1.796  11.537  0.3172  0.8651  0.7018
 7146TIP3    H245634   6.546   1.765  11.602  0.8988  0.3761 -0.6866
 7147TIP3   OH245635   0.888   6.235   9.174  0.0761 -0.0141  0.7987
 7147TIP3    H145636   0.799   6.221   9.140  0.0411  2.0852 -0.1487
 7147TIP3    H245637   0.877   6.299   9.243  1.1006  3.0443 -1.6364
 7148TIP3   OH245638   0.826   1.929   9.367  0.2656  0.3157  0.5750
 7148TIP3    H145639   0.775   1.861   9.322  1.9832 -0.4809 -0.2699
 7148TIP3    H245640   0.862   1.885   9.443 -1.1574  1.1857  1.8155
 7149TIP3   OH245641   3.900   4.087  10.512  0.4236  0.1233  0.0401
 7149TIP3    H145642   3.935   4.159  10.460  1.2089 -1.2943 -1.4864
 7149TIP3    H245643   3.806   4.105  10.518  1.0411  3.5773  3.5401
 7150TIP3   OH245644   6.532   1.862  10.305  0.2210 -0.1178 -0.1475
 7150TIP3    H145645   6.622   1.895  10.300  0.3378 -0.5917 -1.6635
 7150TIP3    H245646   6.524   1.802  10.231 -1.3803 -0.0014 -0.1104
 7151TIP3   OH245647   6.654   1.365  11.629 -0.6901  0.0675 -0.1379
 7151TIP3    H145648   6.745   1.336  11.619 -0.9540 -1.3741  1.1698
 7151TIP3    H245649   6.602   1.285  11.621 -1.6807  0.5638  0.9483
 7152TIP3   OH245650   6.075   2.021  11.494  0.5533  0.4281 -0.0553
 7152TIP3    H145651   6.112   2.092  11.547 -1.3719  1.0958  0.4700
 7152TIP3    H245652   5.981   2.024  11.512  0.1472 -0.8655 -1.7117
 7153TIP3   OH245653   5.122   6.307  11.801 -0.3313  0.3498 -0.0840
 7153TIP3    H145654   5.067   6.277  11.729  1.1789 -1.3468 -0.5839
 7153TIP3    H245655   5.181   6.371  11.761 -0.4216  0.4732 -0.0242
 7154TIP3   OH245656   1.780   2.376   8.974  0.4696  0.0116  0.1071
 7154TIP3    H145657   1.809   2.383   9.065 -0.4981  3.1342  0.2826
 7154TIP3    H245658   1.701   2.321   8.978  0.4115  0.1501  1.1672
 7155TIP3   OH245659   1.687   6.159   9.258  0.7889  0.2530 -0.0362
 7155TIP3    H145660   1.642   6.116   9.184 -1.9472 -1.0238  2.1787
 7155TIP3    H245661   1.668   6.252   9.246  0.2508  0.0521 -0.8785
 7156TIP3   OH245662   1.641   4.706  11.015 -0.0022  0.2843  0.1366
 7156TIP3    H145663   1.717   4.763  11.029 -0.0312 -0.1158  2.2473
 7156TIP3    H245664   1.566   4.764  11.027 -0.0264  0.0847  0.9902
 7157TIP3   OH245665   3.828   2.593   9.421  0.1807  0.4149 -0.3880
 7157TIP3    H145666   3.739   2.626   9.435  0.4588  1.1250 -0.2631
 7157TIP3    H245667   3.884   2.670   9.430  0.6867  0.2657 -1.9198
 7158TIP3   OH245668   5.692   3.239   9.974 -0.6403  0.1337 -0.0175
 7158TIP3    H145669   5.716   3.329   9.953 -1.1589  0.7371  1.7446
 7158TIP3    H245670   5.596   3.239   9.972 -0.6217 -0.7562 -1.3868
 7159TIP3   OH245671   4.013   2.127  12.059  0.2219  0.1524  0.8656
 7159TIP3    H145672   4.007   2.116  12.154  0.1122  0.3492  0.8814
 7159TIP3    H245673   4.067   2.204  12.047  0.4351 -0.0122  0.7636
 7160TIP3   OH245674   6.660   2.674  10.667  0.1213 -0.2399  0.2483
 7160TIP3    H145675   6.724   2.742  10.647 -0.7262  1.2332  2.2240
 7160TIP3    H245676   6.578   2.708  10.632 -0.2066 -0.5065  0.7496
 7161TIP3   OH245677   1.606   2.834  10.610 -0.0834 -0.1792 -0.2347
 7161TIP3    H145678   1.579   2.758  10.661 -0.1775  0.4643  0.6967
 7161TIP3    H245679   1.697   2.816  10.586 -0.6366 -1.3668 -1.5280
 7162TIP3   OH245680   3.002   4.567  10.858  0.4747 -0.3841 -0.0145
 7162TIP3    H145681   2.974   4.611  10.778  1.6409 -0.7024 -0.6208
 7162TIP3    H245682   3.093   4.542  10.841  0.4674 -1.2217  1.0850
 7163TIP3   OH245683   2.717   5.842  10.441 -0.0394 -0.3768  0.2802
 7163TIP3    H145684   2.796   5.880  10.403  1.1053 -1.7106  1.2163
 7163TIP3    H245685   2.664   5.816  10.365  0.7428 -0.1191 -0.3684
 7164TIP3   OH245686   2.839   0.167  11.278 -0.3267  0.0821 -0.4280
 7164TIP3    H145687   2.892   0.237  11.239 -1.2196  1.9189  1.4431
 7164TIP3    H245688   2.893   0.133  11.349 -1.8463  2.6451  2.1410
 7165TIP3   OH245689   2.403   0.331  10.084 -0.0472  0.3547 -0.2588
 7165TIP3    H145690   2.408   0.411  10.138 -1.6015  0.3072 -0.0129
 7165TIP3    H245691   2.442   0.357  10.001 -2.7151  2.1944 -1.0811
 7166TIP3   OH245692   6.594   1.480  11.001 -0.2970 -0.3497  0.4999
 7166TIP3    H145693   6.574   1.508  10.912  0.4496 -2.3837 -0.3663
 7166TIP3    H245694   6.685   1.506  11.015  0.2353 -1.7710 -0.1202
 7167TIP3   OH245695   5.549   3.948  10.112 -0.4482 -0.1886 -0.1834
 7167TIP3    H145696   5.599   3.902  10.044 -0.8882 -1.1211  0.1021
 7167TIP3    H245697   5.470   3.896  10.123  0.4710 -1.2400  2.4265
 7168TIP3   OH245698   0.651   0.674  11.729 -0.0542  1.1494 -0.0633
 7168TIP3    H145699   0.574   0.653  11.782  0.4066  0.5134  0.3670
 7168TIP3    H245700   0.616   0.688  11.641 -1.0121  3.4137  0.5921
 7169TIP3   OH245701   4.962   1.723  11.890  0.0043  0.5752  0.5491
 7169TIP3    H145702   4.892   1.692  11.948 -0.3900 -2.0329 -1.1570
 7169TIP3    H245703   4.997   1.644  11.850 -0.8700  2.1387 -3.9813
 7170TIP3   OH245704   4.020   0.701  10.335  0.5483 -0.0432 -0.6674
 7170TIP3    H145705   3.985   0.753  10.406 -1.8702 -0.9623 -1.0918
 7170TIP3    H245706   4.019   0.611  10.368  3.7081 -0.0657 -0.3063
 7171TIP3   OH245707   6.077   2.315  10.477 -0.0988  0.0149  0.3944
 7171TIP3    H145708   6.126   2.337  10.556 -0.4911 -0.6134  0.8297
 7171TIP3    H245709   6.140   2.325  10.406  0.8996 -1.5159  1.0130
 7172TIP3   OH245710   4.413   4.762   9.060 -0.3847  0.1434  0.1779
 7172TIP3    H145711   4.423   4.753   8.965 -0.7120 -1.0948  0.2409
 7172TIP3    H245712   4.494   4.805   9.088  1.3120 -2.5288 -0.2884
 7173TIP3   OH245713   1.339   0.867   9.636  0.0838 -0.6200 -0.3328
 7173TIP3    H145714   1.245   0.880   9.644 -0.0765 -0.7813 -1.6871
 7173TIP3    H245715   1.377   0.951   9.662 -0.3365 -0.9572  1.4912
 7174TIP3   OH245716   5.971   1.316   9.722  0.0296  0.7219 -0.1561
 7174TIP3    H145717   5.991   1.346   9.633 -0.3201 -0.2088 -0.5616
 7174TIP3    H245718   5.877   1.299   9.721  0.3989 -1.6334 -0.3570
 7175TIP3   OH245719   2.971   2.095   8.996 -0.1946  0.7418 -0.5265
 7175TIP3    H145720   2.914   2.167   8.971  0.0174  0.9802 -0.3252
 7175TIP3    H245721   3.056   2.116   8.957  0.0324  0.9177  0.0590
 7176TIP3   OH245722   3.766   3.944  11.272 -0.0571 -0.4520  0.3812
 7176TIP3    H145723   3.798   3.873  11.215  0.6056 -0.1112  0.3280
 7176TIP3    H245724   3.844   3.994  11.295 -0.6543  0.9367 -0.4878
 7177TIP3   OH245725   5.390   1.544  11.448  0.0462 -0.2148  0.1042
 7177TIP3    H145726   5.357   1.558  11.536  0.7511  0.7368  0.2367
 7177TIP3    H245727   5.474   1.500  11.460  1.0507  1.5551  0.0562
 7178TIP3   OH245728   0.697   0.968  11.497 -0.1289  0.1599 -0.1521
 7178TIP3    H145729   0.712   0.998  11.407  0.3772 -2.3984 -1.0030
 7178TIP3    H245730   0.783   0.938  11.528 -0.6303 -0.6912  0.4755
 7179TIP3   OH245731   3.558   3.446   9.396 -0.1563  0.6165 -0.6553
 7179TIP3    H145732   3.594   3.423   9.310 -1.1325 -0.0310 -0.9077
 7179TIP3    H245733   3.580   3.371   9.452  1.2663  1.4228 -0.0766
 7180TIP3   OH245734   1.522   2.598  10.378  0.0819 -1.2947 -0.6615
 7180TIP3    H145735   1.550   2.512  10.346  1.3627 -1.7103  1.3664
 7180TIP3    H245736   1.603   2.643  10.401 -0.5043  0.8580 -2.4449
 7181TIP3   OH245737   6.653   4.674  10.993 -0.1844  0.2446 -0.1513
 7181TIP3    H145738   6.726   4.623  11.030 -0.2848  0.8047  0.8571
 7181TIP3    H245739   6.696   4.745  10.944 -0.0029  1.4799  1.7071
 7182TIP3   OH245740   2.792   0.930  12.306  0.1335 -0.1582  0.0512
 7182TIP3    H145741   2.746   0.925  12.390  0.1664 -0.3965  0.0559
 7182TIP3    H245742   2.881   0.903  12.326  0.1782 -0.0692 -0.0311
 7183TIP3   OH245743   1.732   1.179  10.438  0.2576  0.5037 -0.0411
 7183TIP3    H145744   1.805   1.191  10.377  2.6074  1.1476  2.6901
 7183TIP3    H245745   1.669   1.126  10.389  2.3804  0.1938 -2.6864
 7184TIP3   OH245746   5.783   4.596   9.495  0.2579  0.3330  0.5961
 7184TIP3    H145747   5.821   4.603   9.582 -2.2440  0.1161  1.7862
 7184TIP3    H245748   5.787   4.685   9.460 -0.8327  0.9414  1.9221
 7185TIP3   OH245749   0.046   0.364  11.083  0.6121  0.3568 -0.1530
 7185TIP3    H145750  -0.027   0.302  11.086  1.5213 -0.7455 -0.1849
 7185TIP3    H245751   0.034   0.411  11.001  0.9644 -1.1250 -1.0864
 7186TIP3   OH245752   5.216   0.253  12.646 -0.3586 -0.1128 -0.3475
 7186TIP3    H145753   5.183   0.167  12.619  1.7361 -0.8848 -0.6420
 7186TIP3    H245754   5.198   0.257  12.740 -0.2279 -1.0034 -0.2798
 7187TIP3   OH245755   2.521   1.985  10.474  0.0640  0.1705 -0.2709
 7187TIP3    H145756   2.432   2.002  10.442 -0.4754 -0.6455  0.7038
 7187TIP3    H245757   2.533   1.891  10.461  1.4436  0.5319 -1.9016
 7188TIP3   OH245758   1.421   2.195  11.189  0.4631 -0.3290  0.1869
 7188TIP3    H145759   1.457   2.112  11.221  0.7936 -0.5437 -0.7105
 7188TIP3    H245760   1.411   2.249  11.268  1.8326 -0.6129  0.5861
 7189TIP3   OH245761   6.618   2.278   9.573  0.0736  0.3036  0.2444
 7189TIP3    H145762   6.595   2.370   9.589  0.9843  0.4926  0.5414
 7189TIP3    H245763   6.652   2.247   9.657 -0.4256 -0.3768  0.2065
 7190TIP3   OH245764   3.345   5.802  11.082  0.1911  0.4825 -0.7040
 7190TIP3    H145765   3.280   5.732  11.081  0.0780  0.5854 -0.7038
 7190TIP3    H245766   3.426   5.762  11.051  0.8149 -0.3202  1.7090
 7191TIP3   OH245767   4.566   4.532   9.363 -0.2196 -0.4051  0.6482
 7191TIP3    H145768   4.510   4.455   9.373 -0.8903 -0.0295 -0.0683
 7191TIP3    H245769   4.615   4.516   9.283 -0.8750  0.2006  0.1070
 7192TIP3   OH245770   4.735   1.179  10.500 -0.1288  0.8194  0.2538
 7192TIP3    H145771   4.644   1.208  10.486 -0.1352  0.1333 -1.3881
 7192TIP3    H245772   4.754   1.124  10.424  0.2856 -2.5305  2.5556
 7193TIP3   OH245773   6.662   3.364   8.908 -0.1869  0.0070 -0.0153
 7193TIP3    H145774   6.569   3.380   8.892 -0.0690 -0.8299 -1.7658
 7193TIP3    H245775   6.705   3.390   8.827  0.9318 -1.0920  0.1938
 7194TIP3   OH245776   6.708   3.492  10.477 -0.3700  0.1246 -0.1480
 7194TIP3    H145777   6.726   3.475  10.385 -1.0199 -2.4369  0.1093
 7194TIP3    H245778   6.613   3.491  10.483 -0.4141  2.3624  0.2713
 7195TIP3   OH245779   2.542   3.041  11.126 -0.3899 -0.1219  0.2422
 7195TIP3    H145780   2.516   3.074  11.040  0.2117 -1.1315 -0.3532
 7195TIP3    H245781   2.503   2.953  11.131  1.7234 -1.1586 -0.1479
 7196TIP3   OH245782   4.386   3.581   9.706  0.2893  0.5886 -0.0164
 7196TIP3    H145783   4.465   3.573   9.653  1.5747  3.0521  1.3632
 7196TIP3    H245784   4.315   3.590   9.642  0.9485 -2.1684 -1.2900
 7197TIP3   OH245785   3.627   4.907  10.766 -0.3000  0.4902  0.0902
 7197TIP3    H145786   3.701   4.905  10.705 -0.5993  0.9111 -0.2911
 7197TIP3    H245787   3.556   4.947  10.717 -0.7979  0.0624  0.4445
 7198TIP3   OH245788   4.011   4.960   9.901  0.3584 -0.6523  0.2888
 7198TIP3    H145789   4.027   4.985   9.992  0.2316  0.2949  0.0583
 7198TIP3    H245790   4.020   5.041   9.851 -2.2081 -0.6057 -0.2177
 7199TIP3   OH245791   6.380   2.891   9.754  0.1962 -0.4498  0.0094
 7199TIP3    H145792   6.388   2.973   9.801  0.9745 -1.0543  0.9794
 7199TIP3    H245793   6.346   2.916   9.668  0.5541  0.8927  0.2311
 7200TIP3   OH245794   1.097   1.473   9.003 -0.0626  0.3236 -0.1310
 7200TIP3    H145795   1.114   1.405   9.068 -0.4681 -0.3906 -0.7472
 7200TIP3    H245796   1.180   1.481   8.955 -0.5318 -1.0790 -1.2502
 7201TIP3   OH245797   5.506   4.521   9.405  0.1492 -0.1441  0.0358
 7201TIP3    H145798   5.593   4.548   9.434  0.2367  0.0617 -0.3974
 7201TIP3    H245799   5.446   4.554   9.472  0.2296  1.3864 -0.5909
 7202TIP3   OH245800   5.206   2.436  11.176  0.1204  0.3055 -0.5035
 7202TIP3    H145801   5.134   2.476  11.225  1.2055  0.1797  1.2917
 7202TIP3    H245802   5.237   2.506  11.118 -1.8254  0.1599 -1.7934
 7203TIP3   OH245803   6.745   2.876  11.149  0.2956  0.3866 -0.4686
 7203TIP3    H145804   6.701   2.873  11.234  2.8003 -0.1571  0.9075
 7203TIP3    H245805   6.773   2.967  11.140  0.2637  0.3844 -0.5942
 7204TIP3   OH245806   0.712   0.389  11.113  0.4547 -0.0299  0.3998
 7204TIP3    H145807   0.671   0.343  11.186  1.0461  0.7090  1.2219
 7204TIP3    H245808   0.656   0.370  11.038  0.0460 -1.1113  0.9599
 7205TIP3   OH245809   0.019   6.520   9.495 -0.2109  0.1897 -0.3794
 7205TIP3    H145810   0.025   6.435   9.451  0.0676  1.3049 -2.6994
 7205TIP3    H245811  -0.025   6.502   9.577  1.6344 -2.5020  0.1599
 7206TIP3   OH245812   4.889   0.236  10.134  0.0266 -0.2759 -0.0758
 7206TIP3    H145813   4.900   0.307  10.071  0.2659 -0.5427 -0.3386
 7206TIP3    H245814   4.847   0.277  10.209 -1.0069 -0.1075 -0.7164
 7207TIP3   OH245815   2.569   5.511  11.077 -0.6969  0.2302  0.7838
 7207TIP3    H145816   2.630   5.551  11.016 -1.6145  0.2964 -0.1221
 7207TIP3    H245817   2.575   5.417  11.060 -0.9150  0.2443  0.6253
 7208TIP3   OH245818   5.816   4.059  10.743  1.1786  0.1705 -0.0721
 7208TIP3    H145819   5.862   4.035  10.662 -0.3951  0.0986 -0.9813
 7208TIP3    H245820   5.875   4.030  10.813  1.5757 -1.8828 -1.1603
 7209TIP3   OH245821   2.323   0.170  11.089 -0.2292  0.1060 -0.1493
 7209TIP3    H145822   2.342   0.169  10.995 -1.1204  0.8367 -0.3573
 7209TIP3    H245823   2.330   0.263  11.113 -0.1401 -0.0588  0.4787
 7210TIP3   OH245824   5.222   3.007  10.825 -0.5939 -0.0603 -0.6410
 7210TIP3    H145825   5.292   2.948  10.799 -0.2826  0.2867 -0.5999
 7210TIP3    H245826   5.196   3.051  10.744 -0.3388  0.2620 -0.5484
 7211TIP3   OH245827   4.745   6.193  10.943 -0.1266 -0.2856 -0.3996
 7211TIP3    H145828   4.715   6.272  10.898 -2.3611  0.1334  1.5928
 7211TIP3    H245829   4.714   6.121  10.889 -2.8827  0.1923  0.4200
 7212TIP3   OH245830   4.433   1.771  10.504  0.8855  0.1155 -0.3383
 7212TIP3    H145831   4.388   1.746  10.423  0.0769 -0.5151  0.2882
 7212TIP3    H245832   4.364   1.769  10.571  2.1150 -2.6498  1.0021
 7213TIP3   OH245833   0.652   0.049   9.215 -0.0366  0.1476 -0.5439
 7213TIP3    H145834   0.680   0.074   9.127 -0.0806  1.8274 -0.1121
 7213TIP3    H245835   0.576   0.104   9.232  0.0444 -0.0749  0.5838
 7214TIP3   OH245836   6.145   3.466  10.295  0.9191  0.5633  0.4151
 7214TIP3    H145837   6.154   3.388  10.350 -0.4803  0.4283  0.4994
 7214TIP3    H245838   6.059   3.456  10.254  0.3504  2.4715  1.0752
 7215TIP3   OH245839   4.093   3.702  10.698 -0.3364  0.0429 -0.0876
 7215TIP3    H145840   4.130   3.753  10.627  1.1652  0.3450  0.8554
 7215TIP3    H245841   4.110   3.611  10.674  1.6175  0.1926  0.5888
 7216TIP3   OH245842   3.995   5.050   9.305 -0.4659 -0.0493  0.4063
 7216TIP3    H145843   4.055   5.023   9.375 -1.2073  1.1774  1.5713
 7216TIP3    H245844   3.953   4.969   9.277  0.0203 -0.5962  1.2104
 7217TIP3   OH245845   1.203   5.543  11.638 -0.5676  0.7654  0.0165
 7217TIP3    H145846   1.186   5.451  11.661  1.4720 -0.1259 -1.6544
 7217TIP3    H245847   1.173   5.551  11.548 -0.4091  1.6495  0.0413
 7218TIP3   OH245848   3.177   0.831  10.852  0.5969 -0.2712  0.3153
 7218TIP3    H145849   3.235   0.823  10.777  1.4425 -0.0226  0.9240
 7218TIP3    H245850   3.119   0.904  10.829  0.2953 -0.7382 -0.4375
 7219TIP3   OH245851   5.854   0.313   9.049  0.1170  0.1097 -0.4965
 7219TIP3    H145852   5.867   0.407   9.053  1.0325  0.0417 -1.4470
 7219TIP3    H245853   5.792   0.300   8.977  1.3020 -0.1010 -1.5133
 7220TIP3   OH245854   5.348   2.877  12.192 -0.2284  0.1747 -0.7037
 7220TIP3    H145855   5.417   2.931  12.154  2.3738 -1.0578  1.9043
 7220TIP3    H245856   5.349   2.797  12.139 -0.5855  0.6704 -1.4733
 7221TIP3   OH245857   3.873   5.436  10.997  0.1881 -0.3680 -0.1134
 7221TIP3    H145858   3.886   5.496  10.924  1.9969  2.0491  2.0248
 7221TIP3    H245859   3.889   5.349  10.961  2.5553  0.8618 -2.2768
 7222TIP3   OH245860   1.486   1.647   9.883 -0.4349  0.2953  0.5406
 7222TIP3    H145861   1.485   1.620   9.791  0.0318  0.8984  0.3547
 7222TIP3    H245862   1.410   1.602   9.921 -1.0578  0.5952 -0.2942
 7223TIP3   OH245863   2.581   0.310  10.366 -0.1617  0.3021  0.0725
 7223TIP3    H145864   2.513   0.367  10.330  1.2546  2.3102  0.4392
 7223TIP3    H245865   2.576   0.231  10.312 -2.0553  0.8142 -0.5930
 7224TIP3   OH245866   0.366   3.874  10.233  0.2453 -0.0042 -0.5021
 7224TIP3    H145867   0.276   3.903  10.219  0.1224  0.3258  0.8323
 7224TIP3    H245868   0.400   3.857  10.145 -0.4440  1.8949 -1.1946
 7225TIP3   OH245869   4.207   3.259  12.170  0.2981  0.3466  0.2217
 7225TIP3    H145870   4.263   3.283  12.244  1.3909 -1.2882 -0.0254
 7225TIP3    H245871   4.268   3.237  12.100 -0.7028  0.5155 -0.7215
 7226TIP3   OH245872   5.688   6.380  11.248 -0.2077  0.2584 -0.4967
 7226TIP3    H145873   5.758   6.316  11.238  0.5213  0.7931  0.9606
 7226TIP3    H245874   5.718   6.457  11.200 -0.4741 -0.0144 -1.1090
 7227TIP3   OH245875   5.589   4.532   8.880 -0.8211  0.4086  0.6380
 7227TIP3    H145876   5.681   4.536   8.905 -0.6577 -0.6064  0.2513
 7227TIP3    H245877   5.547   4.599   8.934  0.0356  0.4459  1.2881
 7228TIP3   OH245878   3.624   4.330   9.874 -0.0627 -0.1123  0.3788
 7228TIP3    H145879   3.621   4.327   9.778 -1.2755  2.7301  0.2403
 7228TIP3    H245880   3.532   4.334   9.901  0.2965  0.5204  1.5658
 7229TIP3   OH245881   2.058   2.679  11.073 -0.1770 -0.1811  0.3253
 7229TIP3    H145882   2.058   2.709  10.982 -0.8412  0.1974  0.4455
 7229TIP3    H245883   2.114   2.602  11.072 -1.5081 -1.2088 -0.7599
 7230TIP3   OH245884   5.916   3.580  10.625 -0.1192  0.1087 -0.3892
 7230TIP3    H145885   5.949   3.623  10.546  0.0653 -0.8029 -0.8242
 7230TIP3    H245886   5.825   3.560  10.606  0.2351 -1.1792 -0.8632
 7231TIP3   OH245887   1.550   6.440  10.507  0.6833 -0.5404 -0.0858
 7231TIP3    H145888   1.572   6.351  10.534 -0.7426 -1.0168 -0.4091
 7231TIP3    H245889   1.473   6.430  10.452  1.2908  0.7838 -1.2253
 7232TIP3   OH245890   6.141   3.951  11.235 -0.2991 -0.2458  0.5259
 7232TIP3    H145891   6.140   3.873  11.291  1.3577  1.0735  2.5374
 7232TIP3    H245892   6.069   4.005  11.268  0.7252  0.5660  1.5494
 7233TIP3   OH245893   3.689   5.683  11.541  0.0023  0.1354  0.0051
 7233TIP3    H145894   3.739   5.603  11.554  1.2590  0.7746 -0.7044
 7233TIP3    H245895   3.598   5.657  11.553  0.4816 -1.0944  1.1561
 7234TIP3   OH245896   4.628   2.636  10.299 -0.1814 -0.0863  0.3629
 7234TIP3    H145897   4.569   2.659  10.370 -0.7884 -1.1430  0.2082
 7234TIP3    H245898   4.698   2.702  10.304 -0.3894  0.0490  1.7122
 7235TIP3   OH245899   6.513   5.846   9.164  0.1346 -0.1016 -0.2602
 7235TIP3    H145900   6.508   5.863   9.070 -0.0001  0.5394 -0.1434
 7235TIP3    H245901   6.552   5.926   9.200 -1.5047  0.4181  0.4479
 7236TIP3   OH245902   1.897   1.370  10.293 -0.1961  0.0818  0.2211
 7236TIP3    H145903   1.963   1.381  10.361  0.3023  0.1254 -0.2576
 7236TIP3    H245904   1.947   1.344  10.215 -0.5505  1.7567 -0.6083
 7237TIP3   OH245905   0.248   4.340  11.376 -0.3560 -0.2456 -0.2846
 7237TIP3    H145906   0.320   4.363  11.434  1.0493  1.0171 -2.4211
 7237TIP3    H245907   0.285   4.275  11.316 -1.5561 -0.9619 -0.2984
 7238TIP3   OH245908   1.528   1.973  11.304 -0.2498 -0.9527  0.3691
 7238TIP3    H145909   1.522   1.911  11.377 -0.8715 -1.4493 -0.0897
 7238TIP3    H245910   1.619   1.968  11.276  0.6019  0.8879  2.4927
 7239TIP3   OH245911   5.399   2.800  11.664 -0.1285 -0.3819  0.5815
 7239TIP3    H145912   5.452   2.834  11.592 -1.6552 -0.0222 -0.4212
 7239TIP3    H245913   5.385   2.876  11.721  0.5341 -0.5113  0.9241
 7240TIP3   OH245914   2.824   3.263  10.942  0.2467  0.2897 -0.1406
 7240TIP3    H145915   2.913   3.276  10.907  0.9456 -0.6120  1.2174
 7240TIP3    H245916   2.837   3.208  11.019 -1.5945 -0.4852 -0.3538
 7241TIP3   OH245917   4.736   3.477   8.929 -0.2326 -0.1581 -0.1064
 7241TIP3    H145918   4.682   3.419   8.875 -0.7563 -0.0899  0.3428
 7241TIP3    H245919   4.801   3.419   8.969 -0.5469 -0.3810  0.0812
 7242TIP3   OH245920   1.419   5.895  10.919 -0.2587  0.7514 -0.5142
 7242TIP3    H145921   1.404   5.810  10.960  1.0908 -0.0300 -1.5339
 7242TIP3    H245922   1.499   5.882  10.867  1.1902  3.1881  0.9039
 7243TIP3   OH245923   2.117   2.552   8.955 -0.4355 -0.6972 -0.4511
 7243TIP3    H145924   2.166   2.548   9.037  2.0291 -0.0634 -1.7826
 7243TIP3    H245925   2.185   2.554   8.887 -2.2781  1.5081 -2.4108
 7244TIP3   OH245926   5.470   1.216  11.777  0.3362  0.0244  0.2426
 7244TIP3    H145927   5.492   1.242  11.866  1.1941 -0.3458  0.1529
 7244TIP3    H245928   5.382   1.250  11.763  1.2307  2.5637  0.2534
 7245TIP3   OH245929   2.257   6.747  11.782  0.5947  0.4152 -0.2917
 7245TIP3    H145930   2.276   6.697  11.862 -1.8086  1.4305  0.9989
 7245TIP3    H245931   2.277   6.685  11.711 -2.2398 -2.5732  1.2043
 7246TIP3   OH245932   3.258   4.511  11.592  0.3681  0.3489  0.1997
 7246TIP3    H145933   3.288   4.501  11.501 -2.9595 -0.8917 -0.9131
 7246TIP3    H245934   3.324   4.466  11.644  1.6810 -0.0929 -1.7499
 7247TIP3   OH245935   6.353   4.654  10.822 -0.1287  0.0889 -0.0727
 7247TIP3    H145936   6.382   4.671  10.732 -0.3451  0.2532 -0.1139
 7247TIP3    H245937   6.353   4.559  10.830  2.0678  0.0624  0.4666
 7248TIP3   OH245938   0.883   0.823  10.624 -0.5933  0.1697 -0.0444
 7248TIP3    H145939   0.887   0.873  10.705  1.9628  1.1517 -0.6812
 7248TIP3    H245940   0.917   0.736  10.646 -2.6876 -0.5579  0.5163
 7249TIP3   OH245941   1.802   1.317   9.153  0.2875 -0.0854 -0.3910
 7249TIP3    H145942   1.761   1.240   9.112 -0.1236 -0.5373  0.8327
 7249TIP3    H245943   1.728   1.372   9.179  0.5823  0.8159 -1.3794
 7250TIP3   OH245944   0.292   0.675   9.434  0.2027 -0.2823 -0.3046
 7250TIP3    H145945   0.338   0.755   9.460 -0.9271  0.5753 -0.8175
 7250TIP3    H245946   0.216   0.707   9.385  0.6756 -1.7410 -2.0746
 7251TIP3   OH245947   1.704   1.149  11.867 -0.4173  0.0793 -0.3146
 7251TIP3    H145948   1.682   1.065  11.827 -0.6010 -0.2314  0.4194
 7251TIP3    H245949   1.620   1.192  11.881 -0.4947 -0.5184  1.2244
 7252TIP3   OH245950   4.477   3.645  10.774  0.3971 -0.0675  0.0470
 7252TIP3    H145951   4.451   3.621  10.685  4.0818 -2.2378 -0.6820
 7252TIP3    H245952   4.433   3.581  10.830 -0.0278 -0.2665 -0.5032
 7253TIP3   OH245953   1.469   3.665  10.030 -0.1992 -0.2082 -0.5298
 7253TIP3    H145954   1.550   3.615  10.030 -0.2984 -0.3716 -0.1159
 7253TIP3    H245955   1.405   3.608  10.072 -0.5956 -0.1827 -1.0857
 7254TIP3   OH245956   1.349   4.151   8.246 -0.2709  0.0997 -0.3912
 7254TIP3    H145957   1.306   4.143   8.161 -0.0205  1.0704 -0.6211
 7254TIP3    H245958   1.277   4.145   8.309 -0.6164  0.5496 -0.7286
 7255TIP3   OH245959   4.543   3.218   9.046  0.3890 -0.0379 -0.0802
 7255TIP3    H145960   4.583   3.236   9.131  0.7839  2.2717 -0.6854
 7255TIP3    H245961   4.567   3.127   9.027 -1.1433 -1.2251  2.9933
 7256TIP3   OH245962   5.017   0.178   8.922  0.5596  0.1329 -0.3483
 7256TIP3    H145963   5.075   0.190   8.847  1.7878  1.0072  0.7211
 7256TIP3    H245964   5.056   0.230   8.992 -1.5431  0.8016  0.3970
 7257TIP3   OH245965   4.128   4.891  10.933  0.2510  0.1113 -0.3808
 7257TIP3    H145966   4.176   4.814  10.965 -0.5578 -0.4245 -0.4393
 7257TIP3    H245967   4.151   4.895  10.840 -2.0095 -1.8744 -1.1338
 7258TIP3   OH245968   1.142   3.255  11.147  0.2540 -0.0404 -0.5207
 7258TIP3    H145969   1.153   3.304  11.228 -1.3900 -0.8068  0.2019
 7258TIP3    H245970   1.197   3.177  11.158 -1.7293 -1.3184  0.9033
 7259TIP3   OH245971   2.098   3.741   9.479  0.0805  0.5884  0.0738
 7259TIP3    H145972   2.162   3.676   9.509  1.2796  1.9347  0.5710
 7259TIP3    H245973   2.028   3.689   9.440  0.6488 -1.0273  1.0888
 7260TIP3   OH245974   1.645   1.437  10.187 -0.3244  0.5048 -0.5373
 7260TIP3    H145975   1.730   1.419  10.227 -0.6678  0.0280  0.0025
 7260TIP3    H245976   1.596   1.483  10.256 -1.1597 -0.9352 -0.1257
 7261TIP3   OH245977   6.241   0.184  10.617 -0.0701  0.1831  0.4003
 7261TIP3    H145978   6.179   0.202  10.546 -0.9930  0.3300  1.2222
 7261TIP3    H245979   6.222   0.094  10.643  0.6561 -0.0674  0.1018
 7262TIP3   OH245980   0.599   1.911   9.619 -0.1333 -0.3346 -0.1681
 7262TIP3    H145981   0.643   1.856   9.683  0.6311  0.7878  0.2917
 7262TIP3    H245982   0.583   1.994   9.664 -0.1980  0.2396 -1.2043
 7263TIP3   OH245983   1.002   4.640  10.753  0.1267  0.1337 -0.6310
 7263TIP3    H145984   0.925   4.583  10.753 -0.8270  1.3703 -0.9353
 7263TIP3    H245985   0.982   4.708  10.689  1.7727  0.1308 -1.2091
 7264TIP3   OH245986   4.453   0.646  11.915  0.6039  0.5450 -0.3225
 7264TIP3    H145987   4.504   0.566  11.926 -1.2573 -0.7440 -0.6924
 7264TIP3    H245988   4.400   0.652  11.995  1.2970  1.8721  0.0708
 7265TIP3   OH245989   6.629   4.233  19.953  0.2794 -0.7171 -0.2550
 7265TIP3    H145990   6.606   4.223  20.046  1.2188  0.2904  0.1186
 7265TIP3    H245991   6.719   4.201  19.947  0.5634  0.1110 -0.6007
 7266TIP3   OH245992   6.634   1.800  11.292  0.0665 -0.3446 -0.2235
 7266TIP3    H145993   6.602   1.764  11.374  2.5211 -0.8484  0.5915
 7266TIP3    H245994   6.707   1.857  11.317 -0.3885  1.0833 -1.9240
 7267TIP3   OH245995   3.028   1.013   9.534  0.3312 -0.3605  0.4722
 7267TIP3    H145996   3.090   0.996   9.605  0.3594  1.6629  1.0093
 7267TIP3    H245997   3.079   0.999   9.454  0.8631 -0.7989  0.8769
 7268TIP3   OH245998   1.469   0.642  12.070 -0.0322 -0.1944 -0.3864
 7268TIP3    H145999   1.504   0.659  12.158  2.0637  1.2220 -1.4210
 7268TIP3    H246000   1.469   0.547  12.063 -1.0154 -0.3718  1.4183
 7269TIP3   OH246001   5.991   0.831  10.443  0.2534  0.6300 -0.1280
 7269TIP3    H146002   6.076   0.820  10.401  1.4629  0.4614  2.1738
 7269TIP3    H246003   5.980   0.926  10.449 -0.0255  0.6554 -0.9767
 7270TIP3   OH246004   5.399   2.505   9.790 -0.3854 -0.6701  0.4900
 7270TIP3    H146005   5.458   2.473   9.722 -1.8066 -1.0501 -0.6232
 7270TIP3    H246006   5.448   2.493   9.872  1.7020  0.5855 -0.4768
 7271TIP3   OH246007   4.857   2.452   9.953  0.1503 -0.3916 -0.8598
 7271TIP3    H146008   4.814   2.472  10.036  1.0964 -1.2025 -0.1477
 7271TIP3    H246009   4.945   2.489   9.961  0.2866 -0.5754 -1.4476
 7272TIP3   OH246010   0.950   1.387  10.893 -0.3197 -0.3799 -0.4541
 7272TIP3    H146011   0.916   1.468  10.931 -0.2160 -0.9425  0.8987
 7272TIP3    H246012   0.896   1.372  10.816 -1.0635  0.3991 -0.1051
 7273TIP3   OH246013   4.380   1.690  10.221 -0.4396 -0.3299  0.1391
 7273TIP3    H146014   4.476   1.684  10.220 -0.3707  0.3762  1.0247
 7273TIP3    H246015   4.351   1.605  10.254 -0.1205 -0.5792 -0.2175
 7274TIP3   OH246016   1.129   5.301   9.745 -0.2279  0.2014 -0.0732
 7274TIP3    H146017   1.091   5.388   9.738  1.9440  1.1858 -0.5232
 7274TIP3    H246018   1.208   5.313   9.798 -0.9748 -1.9054  1.6597
 7275TIP3   OH246019   0.394   2.827   9.495 -0.0191 -0.1336 -0.5392
 7275TIP3    H146020   0.395   2.756   9.431  1.1367 -0.1707 -0.5068
 7275TIP3    H246021   0.470   2.881   9.472 -0.8957  1.1107 -0.5741
 7276TIP3   OH246022   6.003   0.225  10.485  0.1490  0.8279 -0.6429
 7276TIP3    H146023   5.949   0.209  10.407 -2.2757 -0.7680  1.2189
 7276TIP3    H246024   5.951   0.285  10.538 -0.5859 -1.7814  1.8137
 7277TIP3   OH246025   0.877   6.125  11.206  0.0918  0.1196  0.5361
 7277TIP3    H146026   0.824   6.094  11.133  0.2185  1.2362 -0.0457
 7277TIP3    H246027   0.962   6.083  11.195  0.7664  1.7853 -1.1238
 7278TIP3   OH246028   3.837   1.475  10.190 -0.2572  0.0306  0.1907
 7278TIP3    H146029   3.857   1.496  10.099 -0.3890 -0.2032  0.1052
 7278TIP3    H246030   3.899   1.527  10.242 -0.6542  0.7057 -0.0096
 7279TIP3   OH246031   6.451   0.242  12.057  0.1770 -0.0595 -0.3845
 7279TIP3    H146032   6.390   0.180  12.099 -1.8109  2.1170  0.1590
 7279TIP3    H246033   6.500   0.280  12.130 -0.3853  0.7711 -0.4243
 7280TIP3   OH246034   0.748   0.024  11.627  0.0325  0.0037  0.0283
 7280TIP3    H146035   0.722   0.032  11.719  0.0957  0.5761 -0.0022
 7280TIP3    H246036   0.834   0.065  11.623 -0.9844  2.2169 -0.7556
 7281TIP3   OH246037   0.768   3.176   9.544  0.0893  0.0266  0.2034
 7281TIP3    H146038   0.690   3.227   9.564 -0.1130 -0.1074 -0.2293
 7281TIP3    H246039   0.838   3.241   9.537 -0.3866  0.3996 -1.5414
 7282TIP3   OH246040   6.543   6.642  11.961 -0.7809 -0.2485 -0.0244
 7282TIP3    H146041   6.463   6.627  12.013  0.0975 -0.9263  1.1864
 7282TIP3    H246042   6.614   6.638  12.025  0.3554 -1.0328 -1.2838
 7283TIP3   OH246043   4.740   3.252  11.057 -0.3606  0.3494  0.2778
 7283TIP3    H146044   4.814   3.192  11.066  0.2230  0.8735 -0.7735
 7283TIP3    H246045   4.746   3.308  11.135 -0.1999 -0.1860  0.6568
 7284TIP3   OH246046   1.549   2.907  11.370  0.3298  0.2089 -0.0200
 7284TIP3    H146047   1.528   2.991  11.331  0.3272 -1.1334 -3.2244
 7284TIP3    H246048   1.535   2.920  11.464 -0.6845  3.4290 -0.4951
 7285TIP3   OH246049   2.392   5.791  11.807 -0.2358  0.1427  0.5241
 7285TIP3    H146050   2.309   5.836  11.826 -1.0002 -1.1007  0.2490
 7285TIP3    H246051   2.410   5.741  11.887  1.7143  2.4659  1.6652
 7286TIP3   OH246052   0.490   3.954  10.633  0.3324 -0.1057 -0.2559
 7286TIP3    H146053   0.583   3.947  10.654  0.5142  0.5051 -0.8493
 7286TIP3    H246054   0.446   3.947  10.718  0.8122 -1.9953 -0.1037
 7287TIP3   OH246055   6.584   0.457  10.613  0.1700 -0.1424 -0.1633
 7287TIP3    H146056   6.588   0.364  10.636 -0.4363  0.0491  0.7497
 7287TIP3    H246057   6.493   0.471  10.586 -0.0565  0.4362  0.8497
 7288TIP3   OH246058   1.466   4.474  10.389 -0.4832  0.1683 -0.4352
 7288TIP3    H146059   1.491   4.442  10.302  0.7505  2.4478 -0.9912
 7288TIP3    H246060   1.376   4.504  10.380 -0.2114  0.8081 -1.0613
 7289TIP3   OH246061   1.141   2.446   9.981 -0.1409  0.2651 -0.3047
 7289TIP3    H146062   1.092   2.369  10.009 -0.6082  0.5243 -0.3957
 7289TIP3    H246063   1.191   2.472  10.059  0.8595 -0.7495 -0.5731
 7290TIP3   OH246064   6.486   2.119  11.162 -0.0539 -0.1143  0.1002
 7290TIP3    H146065   6.447   2.068  11.232 -0.5814  1.0045  0.6510
 7290TIP3    H246066   6.413   2.143  11.106  0.4264 -1.3808 -1.1113
 7291TIP3   OH246067   4.179   2.078  10.502 -0.4800  0.0579 -0.2915
 7291TIP3    H146068   4.155   2.145  10.437 -0.1730  0.7172  0.2620
 7291TIP3    H246069   4.191   1.998  10.450 -0.5705  0.4911 -1.0032
 7292TIP3   OH246070   2.568   4.126  10.839  0.7365  0.1405 -0.0607
 7292TIP3    H146071   2.535   4.216  10.832  0.9232  0.2874  0.8228
 7292TIP3    H246072   2.660   4.137  10.864  1.3004 -0.2708 -1.8170
 7293TIP3   OH246073   6.422   0.349  10.231 -0.3180 -0.1912 -0.4689
 7293TIP3    H146074   6.408   0.436  10.195 -1.5674  0.2586  1.0036
 7293TIP3    H246075   6.344   0.331  10.282  0.1510 -1.9688 -0.3061
 7294TIP3   OH246076   1.205   1.711  10.043  0.2744  0.0299 -0.8183
 7294TIP3    H146077   1.209   1.665  10.127 -0.7942  0.8460 -0.2860
 7294TIP3    H246078   1.242   1.650   9.980  1.2415 -0.5492  0.2632
 7295TIP3   OH246079   3.357   0.142  10.514  0.2397 -0.0454 -0.6519
 7295TIP3    H146080   3.343   0.198  10.590  1.6666 -0.9279  0.3031
 7295TIP3    H246081   3.346   0.053  10.547  1.2024 -0.4521 -1.3964
 7296TIP3   OH246082   1.156   1.358  11.333 -0.3064  0.1300 -0.2583
 7296TIP3    H146083   1.118   1.271  11.326 -0.1951 -0.0221  0.8379
 7296TIP3    H246084   1.089   1.410  11.377 -0.1472  0.4462 -0.3898
 7297TIP3   OH246085   4.269   1.242   9.083 -0.0959  0.2611  0.4842
 7297TIP3    H146086   4.323   1.258   9.160  0.2689  0.5941  0.1597
 7297TIP3    H246087   4.310   1.293   9.013  0.5771 -1.3523 -0.3613
 7298TIP3   OH246088   3.948   4.322  12.702 -0.0752  0.3037 -0.3067
 7298TIP3    H146089   3.974   4.269  12.626 -1.7352  0.1981 -0.8328
 7298TIP3    H246090   4.029   4.366  12.729  0.7112 -0.2416 -1.6673
 7299TIP3   OH246091   4.489   3.615  10.244  0.2795  0.0124 -0.0140
 7299TIP3    H146092   4.581   3.640  10.247  0.4642 -0.1442 -2.4202
 7299TIP3    H246093   4.481   3.564  10.164 -2.2354  1.4678 -0.7986
 7300TIP3   OH246094   0.940   2.721  10.991 -0.0900  0.9703 -0.1504
 7300TIP3    H146095   0.937   2.674  11.075  1.1714  2.4230  0.7651
 7300TIP3    H246096   0.949   2.813  11.016  0.4999  1.4193 -1.9086
 7301TIP3   OH246097   3.529   3.213   9.543 -0.5368  0.2921 -0.0101
 7301TIP3    H146098   3.475   3.152   9.593 -0.3000  0.2040  0.1452
 7301TIP3    H246099   3.601   3.159   9.509  0.2902  0.6707  1.0581
 7302TIP3   OH246100   5.032   4.397  11.686  0.8904  0.3703 -0.0384
 7302TIP3    H146101   5.096   4.338  11.725  0.3167  0.1153  0.5446
 7302TIP3    H246102   4.948   4.369  11.723  0.0730 -0.8961 -2.6114
 7303TIP3   OH246103   1.153   3.434   8.695  0.3276  0.5118 -0.6559
 7303TIP3    H146104   1.092   3.378   8.648  0.6342  1.0467 -1.7094
 7303TIP3    H246105   1.132   3.420   8.788 -0.7343 -0.0394 -0.9699
 7304TIP3   OH246106   4.483   6.521  11.557 -0.0299  0.1212 -0.0338
 7304TIP3    H146107   4.577   6.519  11.538 -0.1560 -0.1955 -0.6601
 7304TIP3    H246108   4.442   6.496  11.474 -0.6305 -0.7885  0.5271
 7305TIP3   OH246109   5.862   2.276   9.287 -0.0403 -0.2418 -0.9665
 7305TIP3    H146110   5.830   2.186   9.284  0.2035 -0.5907  2.3526
 7305TIP3    H246111   5.957   2.268   9.294  0.0707  0.3392 -1.6776
 7306TIP3   OH246112   5.438   3.644   9.946 -0.4167 -0.0952 -0.1765
 7306TIP3    H146113   5.406   3.703   9.877  1.2811  0.1518 -0.7945
 7306TIP3    H246114   5.433   3.697  10.026  0.3444  0.6367 -0.5950
 7307TIP3   OH246115   1.166   1.946  11.271  0.5531  0.3423  0.2336
 7307TIP3    H146116   1.105   1.875  11.253  1.5566 -1.3435  2.7590
 7307TIP3    H246117   1.235   1.936  11.205  0.6640 -1.1017  0.5217
 7308TIP3   OH246118   1.062   3.458  10.042 -0.2381  0.2538 -0.2247
 7308TIP3    H146119   1.007   3.380  10.049 -1.8744  1.4344  0.7068
 7308TIP3    H246120   1.137   3.430   9.990 -1.0408 -1.7897 -0.3564
 7309TIP3   OH246121   3.434   6.660  10.293  0.5060 -1.0226  0.5829
 7309TIP3    H146122   3.419   6.754  10.283 -0.5340 -1.1864  0.4912
 7309TIP3    H246123   3.361   6.619  10.247  0.2173 -1.8623  1.7364
 7310TIP3   OH246124   5.856   0.414  10.610  0.0639  0.0805  0.2912
 7310TIP3    H146125   5.789   0.445  10.550  1.2848  1.0433 -0.6022
 7310TIP3    H246126   5.830   0.450  10.695 -0.0618  1.2303 -0.2176
 7311TIP3   OH246127   1.044   2.965  11.062 -0.5289  0.0674  0.4234
 7311TIP3    H146128   1.138   2.984  11.052 -0.3698 -1.4409 -2.0337
 7311TIP3    H246129   1.019   3.008  11.144  2.3119  0.4503  1.2100
 7312TIP3   OH246130   3.334   1.094  11.021  0.3641  0.1906  0.4750
 7312TIP3    H146131   3.410   1.083  11.077  1.4977  0.6581 -0.9219
 7312TIP3    H246132   3.355   1.048  10.940 -0.9331  0.1246  0.1412
 7313TIP3   OH246133   0.355   0.054  10.802  0.2379 -0.6285  0.1536
 7313TIP3    H146134   0.301   0.090  10.873  1.0117 -1.5906  1.2878
 7313TIP3    H246135   0.293   0.006  10.747 -0.4016  0.2569  0.0929
 7314TIP3   OH246136   2.100   4.619  10.312  0.0635 -0.3289 -0.3715
 7314TIP3    H146137   2.164   4.593  10.245 -0.2754 -0.9064 -0.4748
 7314TIP3    H246138   2.124   4.567  10.389  0.6270  0.5389  0.0565
 7315TIP3   OH246139   4.608   0.927   9.162  0.5681  0.0620 -0.3385
 7315TIP3    H146140   4.605   0.983   9.240  2.4831  0.8352 -0.7511
 7315TIP3    H246141   4.575   0.842   9.192  1.0764  0.3907  1.2613
 7316TIP3   OH246142   1.853   0.588  10.636  0.0793  0.0919 -0.6228
 7316TIP3    H146143   1.890   0.556  10.718 -1.0667  0.2923 -0.0193
 7316TIP3    H246144   1.808   0.669  10.659  0.7583  0.8074 -1.6714
 7317TIP3   OH246145   4.395   0.536  12.627  0.2529 -0.1641 -0.8995
 7317TIP3    H146146   4.451   0.508  12.554 -1.0133  1.2150 -2.4715
 7317TIP3    H246147   4.354   0.617  12.596 -2.1483 -0.7964  0.3969
 7318TIP3   OH246148   0.686   2.952  11.400 -0.3749 -0.1950  0.5895
 7318TIP3    H146149   0.707   2.859  11.405 -1.1069 -0.3118  2.1321
 7318TIP3    H246150   0.608   2.962  11.455  0.6661  1.5727  1.8525
 7319TIP3   OH246151   4.394   1.889   9.588 -0.1603 -0.4152  0.2493
 7319TIP3    H146152   4.468   1.886   9.648 -0.6841 -0.4901  0.9105
 7319TIP3    H246153   4.430   1.864   9.503  0.5373 -0.5898  0.5934
 7320TIP3   OH246154   5.827   4.826   9.343  0.0338  0.0032  0.5616
 7320TIP3    H146155   5.801   4.824   9.251 -0.4523 -1.6813  0.7197
 7320TIP3    H246156   5.787   4.906   9.377 -2.2384 -0.8092 -0.0051
 7321TIP3   OH246157   3.594   5.827  11.749  0.6068 -0.2835 -0.5211
 7321TIP3    H146158   3.631   5.767  11.814  0.3331  0.3647  0.2631
 7321TIP3    H246159   3.632   5.800  11.666  1.6280 -0.6070  0.0343
 7322TIP3   OH246160   2.597   0.797   9.942 -0.9680 -0.3212  0.0853
 7322TIP3    H146161   2.660   0.789   9.870  0.7646  1.0493  1.3707
 7322TIP3    H246162   2.575   0.891   9.944 -0.4979 -0.2212  1.7030
 7323TIP3   OH246163   6.097   0.558  12.059 -0.5105  0.0038 -0.2346
 7323TIP3    H146164   6.014   0.548  12.012 -0.6286 -0.4341  0.0634
 7323TIP3    H246165   6.127   0.469  12.075  1.7440  0.0238 -3.2932
 7324TIP3   OH246166   5.518   1.301  12.030  0.7222 -0.0163  0.3676
 7324TIP3    H146167   5.515   1.279  12.123 -1.7979 -0.0269  0.3615
 7324TIP3    H246168   5.531   1.396  12.028  0.8689 -0.0309  0.7431
 7325TIP3   OH246169   0.415   3.224  11.667  0.3636  0.1095  0.2047
 7325TIP3    H146170   0.323   3.205  11.688 -0.2772  0.4988 -1.9545
 7325TIP3    H246171   0.447   3.145  11.624  0.3920  0.6774 -0.8593
 7326TIP3   OH246172   2.398   4.295   9.945 -0.7054  0.4590  0.1867
 7326TIP3    H146173   2.412   4.339  10.029 -0.6309  0.7285  0.0336
 7326TIP3    H246174   2.484   4.293   9.904 -0.4856 -0.8096  0.6603
 7327TIP3   OH246175   2.376   5.613  12.015  0.3718 -0.7568 -0.0390
 7327TIP3    H146176   2.323   5.534  12.020  1.8579 -1.7971 -0.2411
 7327TIP3    H246177   2.457   5.586  11.971  1.8647  0.3356  1.8554
 7328TIP3   OH246178   1.484   0.685  10.347  0.2387 -0.3092  0.6734
 7328TIP3    H146179   1.429   0.724  10.414  1.8161  1.3616  1.0664
 7328TIP3    H246180   1.532   0.616  10.393  0.2573 -0.1282  0.9295
 7329TIP3   OH246181   3.519   5.539   9.467 -0.1891  0.4521  0.4468
 7329TIP3    H146182   3.610   5.567   9.477 -0.7669  2.5683  0.3659
 7329TIP3    H246183   3.524   5.456   9.421  1.7054  0.5469  0.4114
 7330TIP3   OH246184   4.714   4.672  10.713  0.1481 -0.0979 -0.0067
 7330TIP3    H146185   4.698   4.599  10.654 -0.1448  0.0737 -0.1453
 7330TIP3    H246186   4.806   4.695  10.700  0.1075 -0.1179 -0.3323
 7331TIP3   OH246187   3.041   4.800  10.400  0.0095 -0.3100  0.4569
 7331TIP3    H146188   2.965   4.807  10.342 -0.4685 -2.8651  0.6560
 7331TIP3    H246189   3.082   4.717  10.376  2.7711  0.9861  0.3833
 7332TIP3   OH246190   4.418   6.434  11.009  0.2259 -0.4820 -0.4116
 7332TIP3    H146191   4.415   6.511  11.067  0.0560 -0.5192 -0.3692
 7332TIP3    H246192   4.344   6.446  10.949 -0.9176 -1.4811  0.7136
 7333TIP3   OH246193   0.081   1.114  10.157  0.4585  0.2505 -0.0149
 7333TIP3    H146194   0.110   1.127  10.247  1.0899 -0.3517 -0.1286
 7333TIP3    H246195  -0.011   1.089  10.165  0.1456  1.4478  0.3825
 7334TIP3   OH246196   5.130   3.149  10.617 -0.0003  0.3796 -1.0242
 7334TIP3    H146197   5.129   3.115  10.528 -0.7584  1.7496 -1.5582
 7334TIP3    H246198   5.095   3.237  10.610 -2.3478 -0.2794  0.9616
 7335TIP3   OH246199   2.731   3.233   8.648 -0.9220  0.1228  0.8177
 7335TIP3    H146200   2.807   3.286   8.625  0.0788 -0.9234  1.5925
 7335TIP3    H246201   2.765   3.169   8.710 -1.4529 -3.1443 -1.9776
 7336TIP3   OH246202   2.097   5.605   9.362  0.3551  0.0102  0.1090
 7336TIP3    H146203   2.089   5.660   9.284 -0.9043 -1.1325 -0.6034
 7336TIP3    H246204   2.091   5.666   9.435  2.9130  1.2862 -0.6389
 7337TIP3   OH246205   2.157   5.053   9.087 -0.0217  0.3803 -0.3624
 7337TIP3    H146206   2.215   5.084   9.018  1.1481 -1.5922 -0.3498
 7337TIP3    H246207   2.076   5.030   9.042  0.0912  0.8099 -0.7888
 7338TIP3   OH246208   1.641   0.482  10.442 -0.4745 -0.3619  0.0924
 7338TIP3    H146209   1.656   0.418  10.373  0.1201  0.5226 -0.6378
 7338TIP3    H246210   1.711   0.466  10.505  1.3652  1.2345 -1.3986
 7339TIP3   OH246211   4.229   5.436   9.753 -0.0665  0.7334  0.1659
 7339TIP3    H146212   4.247   5.503   9.819  0.6805  0.3268  0.3868
 7339TIP3    H246213   4.312   5.429   9.704  0.9711 -2.2352  2.1089
 7340TIP3   OH246214   4.502   5.474  10.180  0.2150  0.1168 -0.3154
 7340TIP3    H146215   4.564   5.408  10.211 -0.8609 -1.6851 -1.8045
 7340TIP3    H246216   4.431   5.424  10.140 -1.5102  2.1474 -0.0006
 7341TIP3   OH246217   5.672   5.754  10.546  0.0215  0.0064  0.5488
 7341TIP3    H146218   5.709   5.796  10.468  1.0724  0.0266  1.0412
 7341TIP3    H246219   5.697   5.662  10.539  2.1405  0.3916  1.9483
 7342TIP3   OH246220   2.167   2.376  10.472  0.2741  0.6702 -0.3322
 7342TIP3    H146221   2.165   2.362  10.567  1.6453  0.2329 -0.3314
 7342TIP3    H246222   2.130   2.463  10.459  0.1514  0.7704  0.6123
 7343TIP3   OH246223   0.562   0.085   9.550  0.1275 -0.0062 -0.4990
 7343TIP3    H146224   0.615   0.163   9.568  0.0620  0.0228 -0.4289
 7343TIP3    H246225   0.544   0.048   9.636 -1.7522  1.1780 -0.3205
 7344TIP3   OH246226   1.508   1.072   9.708  0.0540 -0.4795 -0.1850
 7344TIP3    H146227   1.542   1.120   9.784 -0.2610 -0.4898 -0.0334
 7344TIP3    H246228   1.585   1.029   9.670  0.2780 -0.1580 -0.1026
 7345TIP3   OH246229   2.993   3.823  10.666  0.1438  0.5215  0.2211
 7345TIP3    H146230   2.976   3.737  10.628 -3.3435  0.1395  2.2673
 7345TIP3    H246231   2.968   3.885  10.597 -0.2364 -0.1256 -0.2339
 7346TIP3   OH246232   0.438   4.333  10.943  0.5049 -0.1822  0.1610
 7346TIP3    H146233   0.367   4.338  11.007  1.9933  0.6087  1.8659
 7346TIP3    H246234   0.470   4.243  10.950  0.2990 -0.2597  0.1098
 7347TIP3   OH246235   6.620   6.125   9.537  0.9200  0.3670  0.0748
 7347TIP3    H146236   6.576   6.059   9.590  1.3906  0.6424  0.8340
 7347TIP3    H246237   6.550   6.185   9.511  0.7732  0.5960  0.9581
 7348TIP3   OH246238   2.935   3.682  11.159  0.1009  0.4593 -0.2337
 7348TIP3    H146239   2.907   3.708  11.071 -0.6532  1.3878  0.2590
 7348TIP3    H246240   2.878   3.609  11.183  1.0857 -0.5902 -0.9476
 7349TIP3   OH246241   0.694   6.195   9.779  0.1995 -0.2884 -0.1749
 7349TIP3    H146242   0.710   6.174   9.687  0.8703  0.7813 -0.3111
 7349TIP3    H246243   0.618   6.253   9.777 -0.8001 -1.5283  0.0991
 7350TIP3   OH246244   4.532   3.739   9.883  0.3857 -0.2190  0.6513
 7350TIP3    H146245   4.491   3.677   9.822  1.3006 -1.3522  1.1460
 7350TIP3    H246246   4.466   3.807   9.897 -0.7393 -1.2083  0.2838
 7351TIP3   OH246247   1.180   2.850  10.603  0.0817 -0.7285  0.0247
 7351TIP3    H146248   1.205   2.803  10.683 -2.6300 -1.0130  0.8111
 7351TIP3    H246249   1.145   2.933  10.635 -1.8191 -1.1887 -0.7678
 7352TIP3   OH246250   2.004   0.644   8.864 -0.0347  0.1283 -0.1744
 7352TIP3    H146251   2.025   0.608   8.778  1.4276 -1.0575  0.6307
 7352TIP3    H246252   2.079   0.700   8.886 -0.8192  1.1656 -0.0454
 7353TIP3   OH246253   0.114   3.448   8.458  0.0973  0.4359 -0.1133
 7353TIP3    H146254   0.094   3.354   8.457  2.0713 -0.0588 -1.6701
 7353TIP3    H246255   0.095   3.477   8.368  0.6630  1.2353  0.0141
 7354TIP3   OH246256   4.701   0.704  11.473  0.1651 -1.2103  0.3169
 7354TIP3    H146257   4.612   0.688  11.440  0.9072 -1.6072 -1.5888
 7354TIP3    H246258   4.704   0.655  11.555 -1.4024 -1.1232  0.4571
 7355TIP3   OH246259   5.078   2.363   9.244  0.2527 -0.3663  0.6014
 7355TIP3    H146260   5.167   2.332   9.262  0.3999  0.2148  0.8967
 7355TIP3    H246261   5.033   2.357   9.328  0.8394  2.0091  1.1793
 7356TIP3   OH246262   4.271   3.521   9.297  0.2211  0.2047 -0.3406
 7356TIP3    H146263   4.216   3.581   9.248  0.0483  0.4162  0.1052
 7356TIP3    H246264   4.360   3.556   9.288  0.5983 -1.1295 -2.5788
 7357TIP3   OH246265   6.419   1.487  11.523  0.1804  0.2094 -0.1133
 7357TIP3    H146266   6.503   1.448  11.547  0.8944 -0.5527 -3.3897
 7357TIP3    H246267   6.440   1.578  11.501 -0.2992  0.6601  1.2288
 7358TIP3   OH246268   2.254   3.954   9.651 -0.5729 -0.4547  0.2752
 7358TIP3    H146269   2.176   3.939   9.597  0.2097  0.3174 -1.1296
 7358TIP3    H246270   2.323   3.976   9.589  0.9039 -1.5128  1.4542
 7359TIP3   OH246271   0.625   5.946  10.876  0.9847 -0.3045 -0.5137
 7359TIP3    H146272   0.587   6.009  10.938  2.9508  0.6180 -0.1797
 7359TIP3    H246273   0.576   5.865  10.891  0.1691  0.4215  0.9173
 7360TIP3   OH246274   1.451   6.565  10.159 -0.4714  0.0362 -0.6762
 7360TIP3    H146275   1.503   6.644  10.142  0.2154 -0.0807  0.7178
 7360TIP3    H246276   1.423   6.575  10.250  0.5903 -1.8371 -0.0896
 7361TIP3   OH246277   3.957   3.353  11.150  0.4569 -0.7353 -0.0661
 7361TIP3    H146278   3.886   3.302  11.190  0.4998 -1.2429 -0.6388
 7361TIP3    H246279   4.031   3.293  11.145  0.6998 -0.4310 -0.1718
 7362TIP3   OH246280   3.511   3.854  11.561 -0.7806  0.1553 -0.6438
 7362TIP3    H146281   3.504   3.919  11.491 -0.4226 -0.0258 -0.8557
 7362TIP3    H246282   3.456   3.887  11.631 -1.1040  0.3681 -0.9957
 7363TIP3   OH246283   6.579   0.335   9.826 -0.6219  0.2371  0.0680
 7363TIP3    H146284   6.563   0.244   9.852 -2.8224  0.8461  1.1303
 7363TIP3    H246285   6.625   0.373   9.900  0.6101 -0.0494 -0.5188
 7364TIP3   OH246286   3.819   5.539  11.234 -0.2948  0.0190  0.0052
 7364TIP3    H146287   3.838   5.459  11.283 -0.6305 -0.7143 -1.0237
 7364TIP3    H246288   3.856   5.524  11.147  0.4863  1.3859  0.0781
 7365TIP3   OH246289   4.442   1.718  11.349 -0.3673  0.1612 -0.0279
 7365TIP3    H146290   4.412   1.807  11.368 -1.0613  0.1903 -1.1622
 7365TIP3    H246291   4.370   1.662  11.379  0.9878 -0.2531  2.8266
 7366TIP3   OH246292   3.639   4.135  10.474  0.2209 -0.1475 -0.1331
 7366TIP3    H146293   3.585   4.085  10.413 -0.5108  0.2660  0.1644
 7366TIP3    H246294   3.611   4.226  10.462 -0.0186 -0.0780  0.8929
 7367TIP3   OH246295   2.111   5.867  11.775  0.5643 -0.0943  0.4757
 7367TIP3    H146296   2.094   5.803  11.707  1.3380 -0.1154  0.2938
 7367TIP3    H246297   2.090   5.822  11.857  0.4252 -0.3427  0.3030
 7368TIP3   OH246298   2.329   0.434  11.083 -0.4095  0.1401  0.7154
 7368TIP3    H146299   2.396   0.484  11.037  0.8550 -0.8686  1.4115
 7368TIP3    H246300   2.254   0.434  11.024  1.2604 -1.4267 -1.5195
 7369TIP3   OH246301   0.893   5.665  12.394 -0.3507 -0.1871 -0.6263
 7369TIP3    H146302   0.816   5.632  12.348 -1.6238 -0.2153  1.4230
 7369TIP3    H246303   0.864   5.746  12.435  0.3444 -0.7874  1.1329
 7370TIP3   OH246304   0.283   4.115  11.622  0.1255  0.4800  0.3941
 7370TIP3    H146305   0.331   4.195  11.605  3.4708 -0.8228  2.7310
 7370TIP3    H246306   0.210   4.142  11.678 -0.0022  2.1045 -0.4979
 7371TIP3   OH246307   2.988   2.149  10.208  0.4420 -0.2370 -0.0908
 7371TIP3    H146308   2.964   2.100  10.129 -2.6228  0.3409  0.3571
 7371TIP3    H246309   2.986   2.241  10.181  4.6363 -0.0743 -0.5336
 7372TIP3   OH246310   5.477   6.197  11.277 -0.7183 -0.0213 -0.3642
 7372TIP3    H146311   5.407   6.163  11.221 -0.4527 -0.4429 -0.4461
 7372TIP3    H246312   5.538   6.239  11.216  0.0200 -1.2541 -0.5019
 7373TIP3   OH246313   3.709   3.118   9.827  0.3935  0.5681 -0.6207
 7373TIP3    H146314   3.658   3.077   9.897  0.0066  1.5102 -0.3404
 7373TIP3    H246315   3.695   3.212   9.839  1.2941  0.7887 -1.2352
 7374TIP3   OH246316   4.239   2.226  11.229  0.5065 -0.2903  0.1561
 7374TIP3    H146317   4.230   2.168  11.305  1.6610 -0.0540  0.4946
 7374TIP3    H246318   4.334   2.241  11.222  0.1851  3.3163  1.4225
 7375TIP3   OH246319   5.410   1.759  11.821  0.2852  0.1921 -0.2120
 7375TIP3    H146320   5.358   1.686  11.788  1.0681 -0.5038  0.0401
 7375TIP3    H246321   5.350   1.833  11.824  0.0251  0.1321 -2.5377
 7376TIP3   OH246322   4.269   6.749  12.110  0.2724 -0.3851 -0.5515
 7376TIP3    H146323   4.364   6.763  12.101  0.2438 -0.7370 -1.5879
 7376TIP3    H246324   4.253   6.754  12.204  1.0856  1.1131 -0.4678
 7377TIP3   OH246325   0.700   6.229  11.401 -0.5670 -0.9589 -0.2897
 7377TIP3    H146326   0.614   6.199  11.371 -0.9476 -1.5494  1.3038
 7377TIP3    H246327   0.762   6.174  11.353 -1.1395 -1.8068 -0.0870
 7378TIP3   OH246328   3.645   2.562  10.276  0.1701 -0.1655 -0.0979
 7378TIP3    H146329   3.699   2.520  10.208 -0.3455 -0.1952 -0.4890
 7378TIP3    H246330   3.705   2.623  10.319  1.4734 -2.4580  1.6191
 7379TIP3   OH246331   4.196   2.947  11.588 -0.0955  0.1261  0.7900
 7379TIP3    H146332   4.110   2.906  11.575  0.2095 -0.2614 -0.0471
 7379TIP3    H246333   4.195   2.974  11.680 -0.7464 -0.7376  1.0576
 7380TIP3   OH246334   3.295   5.581  10.895 -0.1551 -0.1944  0.0765
 7380TIP3    H146335   3.315   5.635  10.818  0.6407 -0.3281  0.1775
 7380TIP3    H246336   3.201   5.563  10.888  0.3206 -2.4330 -2.3705
 7381TIP3   OH246337   4.744   6.604   9.515 -0.6382  0.0973 -0.8978
 7381TIP3    H146338   4.724   6.676   9.455  1.0773 -1.4409 -3.5007
 7381TIP3    H246339   4.676   6.539   9.498 -1.8424  0.7437  1.0380
 7382TIP3   OH246340   3.028   3.357   9.346  0.2095 -0.3263 -0.0503
 7382TIP3    H146341   3.122   3.371   9.338  0.5313 -1.5323  1.2431
 7382TIP3    H246342   3.011   3.275   9.300 -0.3312  0.2225 -0.8469
 7383TIP3   OH246343   0.528   5.287   9.826 -0.1359 -0.6087  0.0446
 7383TIP3    H146344   0.468   5.311   9.897 -0.0937 -0.3078 -0.0186
 7383TIP3    H246345   0.539   5.368   9.776  1.6779 -0.1725  1.0476
 7384TIP3   OH246346   0.558   4.312  11.238  0.0776 -0.4775  0.3077
 7384TIP3    H146347   0.616   4.389  11.237 -0.7396  0.1453 -0.7416
 7384TIP3    H246348   0.589   4.260  11.312  0.4103  1.0491  1.2893
 7385TIP3   OH246349   3.500   1.307   9.096 -0.1079  0.7377 -0.1086
 7385TIP3    H146350   3.447   1.250   9.150 -1.9685  1.8704 -0.6575
 7385TIP3    H246351   3.472   1.289   9.006  1.3867  0.4294 -0.5398
 7386TIP3   OH246352   4.428   5.541  11.538  0.2965 -0.0640  0.0184
 7386TIP3    H146353   4.416   5.626  11.581  1.3789  0.1039  0.0146
 7386TIP3    H246354   4.400   5.477  11.603 -0.6740  0.2884 -0.0316
 7387TIP3   OH246355   2.737   3.926   9.943  0.2134  0.1955  0.1085
 7387TIP3    H146356   2.831   3.938   9.953  0.1289  2.5633 -1.2729
 7387TIP3    H246357   2.727   3.891   9.854 -0.2339  0.2415  0.1395
 7388TIP3   OH246358   3.211   4.325  10.672  0.3854 -0.5696 -0.2627
 7388TIP3    H146359   3.256   4.241  10.674  0.4912 -0.5565 -1.3601
 7388TIP3    H246360   3.147   4.321  10.743  1.7140 -0.8127  0.9723
 7389TIP3   OH246361   1.247   5.337   9.017  0.8080 -0.2180 -0.6921
 7389TIP3    H146362   1.325   5.391   9.003  1.3517 -1.2626 -1.9660
 7389TIP3    H246363   1.196   5.348   8.936 -1.0222  1.4017  0.5899
 7390TIP3   OH246364   0.146   6.725   9.850 -0.4159  0.4532 -0.4789
 7390TIP3    H146365   0.155   6.804   9.903 -1.3138 -0.6884  1.5168
 7390TIP3    H246366   0.112   6.755   9.766  0.2854  2.2666 -0.1482
 7391TIP3   OH246367   5.314   4.672   9.163  0.0096 -0.1105  0.6110
 7391TIP3    H146368   5.256   4.605   9.197  1.2570 -1.2079  0.6503
 7391TIP3    H246369   5.355   4.710   9.241  3.5749 -3.2628  0.5443
 7392TIP3   OH246370   5.866   4.114   8.995 -0.4422 -0.1120  0.0119
 7392TIP3    H146371   5.821   4.073   8.921 -0.1134 -0.9466  0.2580
 7392TIP3    H246372   5.854   4.052   9.067  0.6031 -0.0887  0.2213
 7393TIP3   OH246373   0.754   1.631  10.196  0.2580 -0.5595  0.4737
 7393TIP3    H146374   0.755   1.568  10.124  0.2365 -0.0473  0.0168
 7393TIP3    H246375   0.775   1.715  10.155 -0.9620 -0.0419  0.8392
 7394TIP3   OH246376   0.676   1.815  11.481  0.0592  0.5918  0.0456
 7394TIP3    H146377   0.739   1.743  11.478 -1.5322 -0.8323 -1.6244
 7394TIP3    H246378   0.628   1.802  11.563  1.6559  1.5196  1.1857
 7395TIP3   OH246379   1.295   4.673   9.846  0.4405  0.1901  0.2137
 7395TIP3    H146380   1.312   4.681   9.940  0.1404  0.4945  0.2440
 7395TIP3    H246381   1.200   4.684   9.838  0.8281  4.2142 -0.5215
 7396TIP3   OH246382   2.378   3.526  10.594 -0.0902  0.2888  0.3590
 7396TIP3    H146383   2.468   3.546  10.621  0.1611  0.6000 -0.6953
 7396TIP3    H246384   2.348   3.462  10.659  1.1421 -0.3673  0.3167
 7397TIP3   OH246385   3.788   5.778   8.739  0.1105  0.0269 -0.0735
 7397TIP3    H146386   3.703   5.812   8.767  0.9727  0.9304  1.5817
 7397TIP3    H246387   3.833   5.855   8.704  0.5449 -0.2837 -0.1967
 7398TIP3   OH246388   4.602   3.054  10.709 -0.2686 -0.0588  0.2783
 7398TIP3    H146389   4.684   3.101  10.696 -1.4249  1.5636 -1.7879
 7398TIP3    H246390   4.625   2.962  10.693  0.6204  0.6737 -3.7337
 7399TIP3   OH246391   2.707   4.790  10.906  0.2335  0.1645  0.9305
 7399TIP3    H146392   2.748   4.814  10.989 -0.5129  0.2234  1.2922
 7399TIP3    H246393   2.727   4.863  10.847 -0.1833  0.6669  1.3948
 7400TIP3   OH246394   0.161   6.281  10.779 -0.2798 -0.2791  0.0799
 7400TIP3    H146395   0.158   6.286  10.684  0.3273 -2.6100 -0.1048
 7400TIP3    H246396   0.248   6.246  10.799 -0.3618  0.2331  1.5104
 7401TIP3   OH246397   4.031   3.074  10.667 -0.3855  0.1743 -0.0631
 7401TIP3    H146398   3.942   3.096  10.695 -0.1749  1.7327 -0.5040
 7401TIP3    H246399   4.082   3.152  10.687  1.0547 -0.9480  0.8309
 7402TIP3   OH246400   2.166   1.671   8.659 -0.0068 -0.3328 -0.1041
 7402TIP3    H146401   2.095   1.666   8.722  0.8956  0.5580  1.0286
 7402TIP3    H246402   2.155   1.757   8.618 -0.1611 -0.6100 -0.6565
 7403TIP3   OH246403   2.313   0.980   9.463 -0.6032 -0.2243  0.2425
 7403TIP3    H146404   2.285   1.054   9.517  1.5931 -1.3667  3.1923
 7403TIP3    H246405   2.289   0.902   9.514  0.0676 -1.4633 -1.2466
 7404TIP3   OH246406   5.162   4.715   8.969 -0.5343 -0.0272  0.2190
 7404TIP3    H146407   5.211   4.704   8.888 -1.4989 -0.3794 -0.3253
 7404TIP3    H246408   5.228   4.739   9.034  0.0176  1.9543 -1.0123
 7405TIP3   OH246409   2.473   2.190  10.709  0.9959  0.0759  0.6876
 7405TIP3    H146410   2.445   2.218  10.796  2.0308  1.7534  0.5220
 7405TIP3    H246411   2.401   2.217  10.651 -0.5251 -2.6218  1.1549
 7406TIP3   OH246412   2.674   4.175  10.079 -0.3805  0.3278  0.1800
 7406TIP3    H146413   2.694   4.091  10.037 -1.2588 -0.6967  1.7286
 7406TIP3    H246414   2.713   4.240  10.020 -0.7127 -1.0651 -1.7069
 7407TIP3   OH246415   4.449   4.702   8.788  0.2009 -0.0908  0.3331
 7407TIP3    H146416   4.498   4.683   8.709  0.4891 -1.9874  0.9040
 7407TIP3    H246417   4.429   4.795   8.783 -0.3686 -0.2803 -2.2755
 7408TIP3   OH246418   6.148   5.395   8.624  0.3831 -0.3171 -0.8296
 7408TIP3    H146419   6.132   5.420   8.533 -0.3931 -1.9667 -1.1964
 7408TIP3    H246420   6.089   5.451   8.675  0.8467  0.6383 -1.3139
 7409TIP3   OH246421   0.719   0.583   8.985 -0.2015  0.4590  0.2253
 7409TIP3    H146422   0.665   0.511   8.953  1.7621 -1.0141  0.0201
 7409TIP3    H246423   0.711   0.579   9.080  0.6827 -0.7514  0.2818
 7410TIP3   OH246424   6.527   2.583   9.642 -0.3464  0.1143  0.0538
 7410TIP3    H146425   6.568   2.664   9.610 -1.3277  1.4246  1.9329
 7410TIP3    H246426   6.561   2.573   9.731 -1.2999 -0.7959  0.3362
 7411TIP3   OH246427   1.466   6.693  10.437 -0.2303 -0.4166 -0.0369
 7411TIP3    H146428   1.381   6.699  10.481  0.0559 -0.3003  0.5006
 7411TIP3    H246429   1.508   6.616  10.476  0.3756  0.1880  0.5073
 7412TIP3   OH246430   3.226   3.038   9.417 -0.0603 -0.2231 -0.2469
 7412TIP3    H146431   3.263   3.065   9.501 -1.8669 -0.7246  0.7521
 7412TIP3    H246432   3.303   3.025   9.361  1.1300  1.1546  0.9848
 7413TIP3   OH246433   2.404   5.522  10.661  0.2092  0.0463 -0.6720
 7413TIP3    H146434   2.377   5.481  10.579 -0.6021 -0.9101  0.0377
 7413TIP3    H246435   2.406   5.449  10.724  2.1037  0.5280 -0.1307
 7414TIP3   OH246436   6.697   5.453  11.183  0.3244  0.1516 -0.5666
 7414TIP3    H146437   6.631   5.473  11.250  1.0575  0.0943  0.1838
 7414TIP3    H246438   6.676   5.512  11.111 -0.5946  0.0812 -0.3779
 7415TIP3   OH246439   6.059   6.152  11.011 -0.0042 -0.0963 -0.8031
 7415TIP3    H146440   6.095   6.123  10.927  2.3755  1.0367 -0.2498
 7415TIP3    H246441   6.107   6.102  11.077 -1.1908 -0.2904 -0.0368
 7416TIP3   OH246442   2.031   1.667  10.107  0.3278  0.0867 -0.0593
 7416TIP3    H146443   2.010   1.580  10.073  1.3037 -0.1940  0.0252
 7416TIP3    H246444   2.126   1.666  10.119  0.3678  1.2078 -0.1697
 7417TIP3   OH246445   2.409   2.781  11.395  0.0136  0.1332 -0.0992
 7417TIP3    H146446   2.418   2.824  11.479  1.1523  2.2710 -1.2438
 7417TIP3    H246447   2.317   2.791  11.372  0.3845  2.8468 -0.7057
 7418TIP3   OH246448   6.574   3.665   9.358  0.4257 -0.1163 -0.3042
 7418TIP3    H146449   6.511   3.651   9.288 -0.5417  1.7969  0.1277
 7418TIP3    H246450   6.529   3.638   9.437  0.8843 -0.6161 -0.2086
 7419TIP3   OH246451   2.982   6.618   9.084 -0.1139  0.1504  0.0844
 7419TIP3    H146452   2.936   6.602   9.001 -0.3788 -0.9555  0.4272
 7419TIP3    H246453   2.912   6.627   9.148  0.0343  2.2337  0.0303
 7420TIP3   OH246454   0.482   0.904   9.536 -0.5978  0.4222  0.0492
 7420TIP3    H146455   0.457   0.982   9.488 -0.0000  0.0778 -0.8569
 7420TIP3    H246456   0.546   0.935   9.600  1.7733  0.3457 -2.1181
 7421TIP3   OH246457   2.658   1.059  11.432 -0.2510 -0.3397  0.5306
 7421TIP3    H146458   2.686   1.084  11.520  2.3700 -1.1590 -0.0033
 7421TIP3    H246459   2.606   1.133  11.402  1.6291  1.4787  1.5195
 7422TIP3   OH246460   1.941   6.368   8.775 -0.0011 -0.3300 -0.0885
 7422TIP3    H146461   1.912   6.333   8.859  0.5115  0.2223  0.3372
 7422TIP3    H246462   1.948   6.463   8.790  0.7244 -0.2996 -0.5545
 7423TIP3   OH246463   1.221   4.577  10.360 -0.8263  0.6962  0.0475
 7423TIP3    H146464   1.199   4.559  10.268 -1.1805  0.4471  0.1768
 7423TIP3    H246465   1.210   4.671  10.369  0.6227  0.9444 -0.5271
 7424TIP3   OH246466   3.068   5.467  10.776 -0.5363 -0.5114  0.6272
 7424TIP3    H146467   3.087   5.528  10.705  1.1067  0.1781  1.6061
 7424TIP3    H246468   2.979   5.489  10.803 -0.5730  0.3166 -0.1248
 7425TIP3   OH246469   4.513   1.112  11.275  1.2988 -0.4874  0.3303
 7425TIP3    H146470   4.597   1.073  11.299  1.1268 -0.5029  0.9236
 7425TIP3    H246471   4.457   1.037  11.256  0.4156 -0.6837  3.2734
 7426TIP3   OH246472   2.185   2.043  10.731 -0.0683 -0.3779  0.0476
 7426TIP3    H146473   2.172   1.989  10.653  1.2594  0.4115 -0.7523
 7426TIP3    H246474   2.246   1.992  10.785 -2.2518 -1.7093  1.4258
 7427TIP3   OH246475   5.945   1.103  10.741  0.3662 -0.0696 -0.2418
 7427TIP3    H146476   5.898   1.024  10.767 -2.3815  1.2770 -0.7581
 7427TIP3    H246477   5.974   1.086  10.652 -2.6498  0.3933 -1.4212
 7428TIP3   OH246478   0.601   2.043  11.173  0.2852 -0.2427 -0.0346
 7428TIP3    H146479   0.645   1.998  11.101  0.8923  0.5389 -0.1675
 7428TIP3    H246480   0.554   1.974  11.219 -0.3882 -0.7176 -1.3709
 7429TIP3   OH246481   4.476   5.459   9.632  0.1080  0.3470  0.4293
 7429TIP3    H146482   4.478   5.499   9.546  0.9897 -1.5363 -0.4765
 7429TIP3    H246483   4.537   5.511   9.685 -0.2488  1.3558 -0.1342
 7430TIP3   OH246484   4.313   3.012   9.739  0.0382 -0.1050 -0.2581
 7430TIP3    H146485   4.314   2.961   9.658 -0.9696  1.8078 -1.5465
 7430TIP3    H246486   4.266   2.957   9.802  0.1196 -1.2823 -1.2088
 7431TIP3   OH246487   5.019   1.233   9.845 -0.3044  0.1074 -0.2877
 7431TIP3    H146488   4.989   1.145   9.823  1.3466 -0.6007  0.1430
 7431TIP3    H246489   4.944   1.274   9.889 -1.2990 -0.8537 -1.0514
 7432TIP3   OH246490   4.695   5.842   8.885 -0.2554  0.0589 -0.3058
 7432TIP3    H146491   4.638   5.820   8.812 -0.4397  0.9276 -0.4312
 7432TIP3    H246492   4.641   5.895   8.943  0.1842  0.2149 -0.0334
 7433TIP3   OH246493   0.961   3.112  10.461 -0.3328  0.0739 -0.1987
 7433TIP3    H146494   0.880   3.132  10.414 -0.3627 -1.8662 -1.0734
 7433TIP3    H246495   0.949   3.023  10.492  1.9014 -0.7225 -1.3872
 7434TIP3   OH246496   1.594   0.816  11.160  0.6242 -0.3619  0.3146
 7434TIP3    H146497   1.540   0.869  11.218  0.2893  1.1727 -1.2959
 7434TIP3    H246498   1.668   0.790  11.213 -0.3359 -0.1889  1.8044
 7435TIP3   OH246499   3.351   1.851   9.027  0.1428 -0.2924  0.4910
 7435TIP3    H146500   3.412   1.907   9.074 -2.2572  2.3289  0.7569
 7435TIP3    H246501   3.322   1.787   9.092  0.4688  0.2426  1.1735
 7436TIP3   OH246502   2.295   1.775  12.024 -0.4331  0.7217 -0.1496
 7436TIP3    H146503   2.298   1.710  12.093  1.5393  0.0773 -0.7536
 7436TIP3    H246504   2.233   1.841  12.054  0.2214  0.3663  2.1328
 7437TIP3   OH246505   0.301   4.712  11.330  0.0975 -0.0702 -0.0660
 7437TIP3    H146506   0.257   4.702  11.414 -1.4342  0.2836 -0.7820
 7437TIP3    H246507   0.385   4.668  11.341 -0.6501 -1.2405  1.2029
 7438TIP3   OH246508   0.333   6.506  10.199 -0.4044  0.3773  0.4436
 7438TIP3    H146509   0.291   6.480  10.281  0.2477 -2.7030 -0.0748
 7438TIP3    H246510   0.409   6.448  10.191 -1.7877 -1.2208 -3.4757
 7439TIP3   OH246511   0.149   1.322   9.596 -0.1672  0.2270 -0.3191
 7439TIP3    H146512   0.120   1.379   9.668  0.9897  0.3725  0.0622
 7439TIP3    H246513   0.077   1.261   9.583 -1.0203  1.1363 -0.0496
 7440TIP3   OH246514   1.168   0.909  11.762  0.2324  0.6314 -0.0034
 7440TIP3    H146515   1.154   0.814  11.756  0.8827  0.5484 -0.2417
 7440TIP3    H246516   1.144   0.931  11.852 -0.0988  0.2711 -0.0019
 7441TIP3   OH246517   0.557   3.653  11.120  0.1197 -0.1516  0.1027
 7441TIP3    H146518   0.645   3.664  11.156  0.0950  0.9917 -0.1298
 7441TIP3    H246519   0.568   3.664  11.026 -0.3252  0.5006  0.1165
 7442TIP3   OH246520   1.238   5.330  10.252 -0.0227  0.3134 -0.1353
 7442TIP3    H146521   1.208   5.241  10.232 -0.5899  0.1853  1.1531
 7442TIP3    H246522   1.315   5.317  10.307 -1.0462  0.5598  1.4256
 7443TIP3   OH246523   0.956   6.354  12.127 -0.4808 -0.9875 -0.3901
 7443TIP3    H146524   0.952   6.416  12.054 -1.0649 -0.7447 -0.1613
 7443TIP3    H246525   0.891   6.387  12.189  1.0771 -0.3068  0.9434
 7444TIP3   OH246526   4.501   6.407   8.836  0.3910 -0.2017  0.0879
 7444TIP3    H146527   4.503   6.378   8.927  0.2281 -1.3226 -0.2470
 7444TIP3    H246528   4.581   6.372   8.798 -0.0489 -0.6485 -0.4477
 7445TIP3   OH246529   4.781   3.798   9.743  0.2405 -0.2901 -0.6110
 7445TIP3    H146530   4.711   3.757   9.794  0.0024 -0.6825 -1.2391
 7445TIP3    H246531   4.736   3.840   9.670  0.5046  0.9510 -0.0892
 7446TIP3   OH246532   3.091   0.827   8.925 -0.1732 -0.7502  0.3561
 7446TIP3    H146533   3.148   0.903   8.929  0.2268 -0.9190 -1.2368
 7446TIP3    H246534   3.002   0.864   8.919 -0.5551 -0.4886  4.7499
 7447TIP3   OH246535   0.391   5.747  11.224 -0.1157  0.0641  0.3363
 7447TIP3    H146536   0.302   5.770  11.198  0.3796  2.2428  0.3841
 7447TIP3    H246537   0.382   5.712  11.313 -0.9016  0.5420  0.4543
 7448TIP3   OH246538   1.531   6.591   8.792  0.3554  0.3145 -0.0863
 7448TIP3    H146539   1.573   6.510   8.764  2.6250  0.7332  1.7906
 7448TIP3    H246540   1.452   6.562   8.837  0.8704 -0.8513  0.1151
 7449TIP3   OH246541   4.401   5.904   9.805 -0.8614 -0.0983 -0.6483
 7449TIP3    H146542   4.475   5.872   9.754  1.1303  1.8327  0.8781
 7449TIP3    H246543   4.349   5.826   9.823  2.1645 -2.0325  0.4164
 7450TIP3   OH246544   1.740   5.885   8.466  0.2905 -0.0730  0.0454
 7450TIP3    H146545   1.671   5.831   8.427 -0.3358  0.5464  0.2614
 7450TIP3    H246546   1.793   5.913   8.392  0.2296 -0.4477 -0.1413
 7451TIP3   OH246547   1.136   6.587  10.243 -0.4429 -0.0297 -0.1535
 7451TIP3    H146548   1.108   6.622  10.158 -1.5048  0.6057  0.4466
 7451TIP3    H246549   1.138   6.492  10.229 -0.6696  0.0581 -0.8715
 7452TIP3   OH246550   3.343   1.352   8.882  0.0516 -0.0651  0.5622
 7452TIP3    H146551   3.267   1.380   8.933 -0.9443 -1.0323 -0.3488
 7452TIP3    H246552   3.387   1.433   8.858 -0.9784  0.5513  0.6898
 7453TIP3   OH246553   6.037   5.132  11.282 -0.3769 -0.6312  0.1447
 7453TIP3    H146554   6.120   5.168  11.313 -0.5302 -0.7376  0.6745
 7453TIP3    H246555   6.047   5.130  11.187 -0.1975  0.4057  0.1210
 7454TIP3   OH246556   6.555   2.863  11.344  0.3018 -0.2044  0.0333
 7454TIP3    H146557   6.469   2.885  11.379 -0.1180 -0.2209 -0.9498
 7454TIP3    H246558   6.581   2.784  11.391 -0.1074 -0.0527  0.5138
 7455TIP3   OH246559   0.423   0.130  11.595 -0.7218  0.3990  0.6571
 7455TIP3    H146560   0.373   0.208  11.616  0.2662  1.4726 -0.8137
 7455TIP3    H246561   0.390   0.101  11.510  0.1191  0.2590  0.3637
 7456TIP3   OH246562   6.563   1.292  10.206  0.5317 -0.4680  0.2590
 7456TIP3    H146563   6.607   1.375  10.223 -1.3183  0.9225 -1.2380
 7456TIP3    H246564   6.605   1.259  10.126 -0.2395  0.2410 -0.4665
 7457TIP3   OH246565   1.129   5.737   9.228 -0.5435 -0.1193 -0.3547
 7457TIP3    H146566   1.155   5.823   9.193 -2.2573  0.4863 -0.2055
 7457TIP3    H246567   1.038   5.727   9.201 -1.4908 -0.3188  2.6210
 7458TIP3   OH246568   2.324   4.508  11.123 -0.8611 -0.6704  0.6968
 7458TIP3    H146569   2.391   4.573  11.145 -0.1948 -0.5756 -1.3460
 7458TIP3    H246570   2.355   4.427  11.162 -0.9134 -0.0899  1.9819
 7459TIP3   OH246571   0.175   1.921   8.730 -0.0378  0.4494  0.5329
 7459TIP3    H146572   0.134   1.913   8.816  0.0057  1.1108  0.6220
 7459TIP3    H246573   0.258   1.965   8.747 -0.2973  1.1365  0.0901
 7460TIP3   OH246574   3.237   5.235  11.243 -0.5063 -0.5571 -0.3089
 7460TIP3    H146575   3.160   5.281  11.277  1.2949  1.5568  1.2338
 7460TIP3    H246576   3.283   5.301  11.190  0.6040 -1.5506 -0.6299
 7461TIP3   OH246577   3.635   4.188  11.234 -0.0764  0.6083  0.2852
 7461TIP3    H146578   3.651   4.097  11.258 -2.1202  0.0382 -0.3203
 7461TIP3    H246579   3.704   4.209  11.171 -0.2591 -0.9112 -0.4585
 7462TIP3   OH246580   3.607   1.061  11.003  0.3400  0.1375  0.1756
 7462TIP3    H146581   3.697   1.078  11.032  0.7193  0.9725 -1.4132
 7462TIP3    H246582   3.592   0.969  11.026  1.6974 -0.0899  0.2389
 7463TIP3   OH246583   4.367   4.941  10.261 -0.8840 -0.1291 -0.3050
 7463TIP3    H146584   4.271   4.951  10.256 -0.8057  0.3139 -0.9428
 7463TIP3    H246585   4.399   4.977  10.179 -0.0503  1.2765  0.6117
 7464TIP3   OH246586   5.051   3.444  10.525  0.3413 -0.1531  0.2713
 7464TIP3    H146587   4.977   3.448  10.464  1.3226  0.9823 -0.9237
 7464TIP3    H246588   5.053   3.530  10.566  0.3107 -0.5682  1.1510
 7465TIP3   OH246589   1.190   0.086   9.665 -0.5371 -0.3363  0.1055
 7465TIP3    H146590   1.254   0.114   9.600  0.3513  0.0541  1.1208
 7465TIP3    H246591   1.224   0.003   9.698 -0.8565 -0.4174  0.2376
 7466TIP3   OH246592   6.222   4.864  10.598 -0.0571  0.2887  0.4515
 7466TIP3    H146593   6.178   4.905  10.524 -0.4389 -2.2825 -0.8330
 7466TIP3    H246594   6.171   4.785  10.617  0.9769  0.0189  2.4048
 7467TIP3   OH246595   4.376   6.426  10.298 -0.7326  0.2455  0.0299
 7467TIP3    H146596   4.440   6.423  10.369 -1.0651 -0.8758  0.3047
 7467TIP3    H246597   4.291   6.430  10.342 -1.0566 -2.2908 -0.2036
 7468TIP3   OH246598   0.796   3.269  11.172  0.4365  0.0519  0.1635
 7468TIP3    H146599   0.829   3.320  11.098  0.4593  2.6804  1.8150
 7468TIP3    H246600   0.873   3.256  11.228  0.3734 -1.6746 -0.0890
 7469TIP3   OH246601   2.196   2.222   9.956 -0.6802 -0.3567  0.2104
 7469TIP3    H146602   2.201   2.127   9.944 -1.0835 -0.2579 -0.8467
 7469TIP3    H246603   2.143   2.234  10.035  0.3939 -1.0223  1.0623
 7470TIP3   OH246604   2.018   6.052  10.674 -0.9503  0.2508 -0.0597
 7470TIP3    H146605   1.929   6.023  10.696 -0.6705  0.0750  0.8699
 7470TIP3    H246606   2.068   6.039  10.754  0.1113 -0.4021 -0.7951
 7471TIP3   OH246607   1.785   2.342  12.113  0.2968 -0.3805 -0.1116
 7471TIP3    H146608   1.816   2.267  12.063 -1.7506 -1.2900 -0.1135
 7471TIP3    H246609   1.766   2.307  12.200  1.0092  0.5442  0.4326
 7472TIP3   OH246610   4.893   4.783   8.700  0.3658 -0.0761  0.5326
 7472TIP3    H146611   4.854   4.750   8.619  1.8478 -0.0209 -0.2379
 7472TIP3    H246612   4.862   4.724   8.768 -1.5105  0.3141  0.0680
 7473TIP3   OH246613   5.441   0.259   8.703  0.0337  0.3065 -0.0687
 7473TIP3    H146614   5.475   0.173   8.729  1.0405  0.8737  0.5328
 7473TIP3    H246615   5.384   0.240   8.628 -0.2171 -0.9497  0.4140
 7474TIP3   OH246616   1.731   3.734  10.528  0.4129 -0.4814 -0.4907
 7474TIP3    H146617   1.807   3.756  10.473 -0.3453 -0.3593 -1.5207
 7474TIP3    H246618   1.689   3.661  10.483 -1.9909  1.5810 -1.8544
 7475TIP3   OH246619   4.112   5.376  10.102 -0.0952 -0.3263 -0.1318
 7475TIP3    H146620   4.151   5.337  10.024 -0.1227  0.1722 -0.4004
 7475TIP3    H246621   4.165   5.343  10.175  1.2494  0.8183 -0.5430
 7476TIP3   OH246622   2.925   3.879   8.854 -0.3675 -0.3634 -0.1854
 7476TIP3    H146623   2.900   3.805   8.909 -2.2878  0.4694  0.1685
 7476TIP3    H246624   2.992   3.845   8.796 -0.6471 -2.1573  0.4753
 7477TIP3   OH246625   1.838   5.932  10.160 -0.0760 -0.2789  0.4634
 7477TIP3    H146626   1.852   5.942  10.255  0.0727  0.0270  0.4108
 7477TIP3    H246627   1.927   5.930  10.123 -0.1400  1.0709  0.1861
 7478TIP3   OH246628   5.802   1.803  10.496 -0.1462  0.2065  0.0406
 7478TIP3    H146629   5.848   1.719  10.492  1.8294  1.2115 -0.0095
 7478TIP3    H246630   5.869   1.867  10.472 -1.9658  1.6874 -1.3762
 7479TIP3   OH246631   3.574   3.965  17.506  0.3326 -0.2543  0.2651
 7479TIP3    H146632   3.539   4.018  17.578  0.5856 -0.8531  0.8340
 7479TIP3    H246633   3.498   3.942  17.453  0.3605  1.8561 -0.8092
 7480TIP3   OH246634   2.562   4.558   9.948 -0.3541  0.0527  0.0720
 7480TIP3    H146635   2.493   4.608   9.904 -0.7943 -1.0920 -0.5854
 7480TIP3    H246636   2.624   4.537   9.879  0.0825  0.1036  0.4430
 7481TIP3   OH246637   1.311   1.654  10.926  0.0632  0.6446  0.2357
 7481TIP3    H146638   1.258   1.669  10.847  1.0344  1.7896 -0.2279
 7481TIP3    H246639   1.314   1.740  10.968 -3.8210 -0.6090  3.7947
 7482TIP3   OH246640   3.403   4.645   8.916 -0.0990 -0.0974  0.6418
 7482TIP3    H146641   3.341   4.598   8.971  0.4209 -2.2957 -0.5364
 7482TIP3    H246642   3.486   4.638   8.964 -0.4995  2.2067  1.8527
 7483TIP3   OH246643   3.528   1.599  12.021  0.2134  0.1628  0.0421
 7483TIP3    H146644   3.553   1.517  12.063  1.3044  0.0445 -0.8023
 7483TIP3    H246645   3.567   1.667  12.077  0.2954  0.0673  0.1012
 7484TIP3   OH246646   1.919   0.523  10.373 -0.8424  0.5564  0.0819
 7484TIP3    H146647   2.007   0.556  10.354  1.2196 -3.3125  1.7572
 7484TIP3    H246648   1.902   0.549  10.463 -0.5457 -0.2600  0.3834
 7485TIP3   OH246649   1.867   6.226  11.389  0.3579 -0.3426  0.3581
 7485TIP3    H146650   1.960   6.224  11.414  0.4024 -1.2309  0.1715
 7485TIP3    H246651   1.854   6.143  11.342 -0.4768 -0.1178  0.1884
 7486TIP3   OH246652   4.510   2.711  10.654  0.1828 -0.3524 -0.1576
 7486TIP3    H146653   4.504   2.775  10.583 -3.6033 -0.9180 -0.6001
 7486TIP3    H246654   4.481   2.759  10.731 -0.4912 -0.9207 -0.0430
 7487TIP3   OH246655   1.510   0.876   8.872 -0.0813 -0.2705 -0.1793
 7487TIP3    H146656   1.450   0.825   8.927  0.2683 -0.5701 -0.0664
 7487TIP3    H246657   1.456   0.944   8.832 -0.9070 -1.6978 -1.6035
 7488TIP3   OH246658   2.092   3.353  11.318 -0.2610  0.6019 -0.0391
 7488TIP3    H146659   2.129   3.272  11.352  0.5163 -0.1779 -2.5034
 7488TIP3    H246660   2.024   3.377  11.381 -1.0476 -2.3808  0.4034
 7489TIP3   OH246661   4.979   3.425  10.816  0.0379  0.6891  0.0526
 7489TIP3    H146662   5.043   3.493  10.837  0.5675 -0.1902  1.4053
 7489TIP3    H246663   5.004   3.350  10.870 -1.2097 -0.2125 -0.5545
 7490TIP3   OH246664   5.521   4.267   9.804 -0.3613 -0.0979 -0.6393
 7490TIP3    H146665   5.559   4.350   9.775  0.0366  0.3149  0.9808
 7490TIP3    H246666   5.482   4.230   9.725 -0.1843  1.4267 -1.4798
 7491TIP3   OH246667   6.087   0.579  10.484  0.2735 -0.2893 -0.2303
 7491TIP3    H146668   6.037   0.660  10.467  0.9500  0.0403 -0.6744
 7491TIP3    H246669   6.024   0.509  10.466 -0.3050  0.1316  0.1023
 7492TIP3   OH246670   1.303   2.548  10.569  0.3004  0.0474 -0.1530
 7492TIP3    H146671   1.386   2.499  10.571 -0.0343 -0.5576 -0.6706
 7492TIP3    H246672   1.329   2.639  10.578  1.0127 -0.1558 -0.0963
 7493TIP3   OH246673   1.980   0.003   9.296 -0.2130 -0.0242  0.4747
 7493TIP3    H146674   2.034  -0.043   9.360 -1.3235 -0.1788  1.3350
 7493TIP3    H246675   2.041   0.028   9.226  0.4784 -2.6663  0.0168
 7494TIP3   OH246676   4.553   2.184  11.633 -0.0804  0.4002 -0.0282
 7494TIP3    H146677   4.628   2.185  11.574 -0.1123 -0.4777 -0.0983
 7494TIP3    H246678   4.587   2.143  11.713 -0.3628  0.4091  0.0957
 7495TIP3   OH246679   4.734   5.699  12.172  0.0007 -0.4990  0.0057
 7495TIP3    H146680   4.793   5.750  12.229  0.1891  0.2361 -0.8248
 7495TIP3    H246681   4.677   5.652  12.233 -0.3383  0.9040  0.8158
 7496TIP3   OH246682   6.292   4.276  10.029  0.5140 -0.1539  0.2325
 7496TIP3    H146683   6.250   4.361  10.042 -0.3665 -0.5641  0.1643
 7496TIP3    H246684   6.320   4.250  10.117 -0.5390 -0.4471  0.4974
 7497TIP3   OH246685   5.653   0.801  11.931 -0.1025 -0.1312 -0.2483
 7497TIP3    H146686   5.676   0.804  11.838 -1.7314  0.0132 -0.6792
 7497TIP3    H246687   5.688   0.883  11.966  1.1258 -0.4964 -0.5605
 7498TIP3   OH246688   1.764   0.044   9.493 -0.3047  0.0980 -0.7164
 7498TIP3    H146689   1.812   0.060   9.574 -1.3522 -2.6418  0.5849
 7498TIP3    H246690   1.830   0.052   9.424  0.8334  1.5062  0.4835
 7499TIP3   OH246691   2.000   6.165  11.016  0.0572  0.2045 -0.0196
 7499TIP3    H146692   2.065   6.104  10.981 -0.2404  0.0190 -0.2610
 7499TIP3    H246693   1.924   6.153  10.959 -1.4534 -2.1247  2.2354
 7500TIP3   OH246694   5.715   5.950  11.042 -0.1046  0.1820 -0.0416
 7500TIP3    H146695   5.685   5.875  11.092  0.9377  0.5127  1.1297
 7500TIP3    H246696   5.742   5.914  10.958  0.9038 -0.8495  0.7077
 7501TIP3   OH246697   0.520   0.325   8.953  0.1853  0.5173  0.4268
 7501TIP3    H146698   0.446   0.335   8.893 -2.5341 -2.8666  2.8428
 7501TIP3    H246699   0.493   0.369   9.033  1.5694  0.6488  0.8524
 7502TIP3   OH246700   2.488   6.425  11.380  0.6288  0.8830  0.1025
 7502TIP3    H146701   2.484   6.329  11.374  0.3590  0.9649 -1.3797
 7502TIP3    H246702   2.580   6.444  11.395  0.8252  0.4222 -0.5018
 7503TIP3   OH246703   0.422   0.161   9.314  0.3075  0.2810 -0.2403
 7503TIP3    H146704   0.451   0.112   9.391  2.3341  1.0285 -0.4663
 7503TIP3    H246705   0.378   0.238   9.349 -0.1296 -0.1345  0.1351
 7504TIP3   OH246706   6.414   5.976  10.948  0.8437 -0.1998 -0.3129
 7504TIP3    H146707   6.477   5.915  10.911  1.4266 -0.2653  0.7578
 7504TIP3    H246708   6.465   6.054  10.969  0.1043  0.7026 -1.6855
 7505TIP3   OH246709   2.934   6.127  11.231 -0.1589 -0.1863 -0.2987
 7505TIP3    H146710   2.907   6.200  11.176  1.4784  1.0462  0.4666
 7505TIP3    H246711   2.876   6.055  11.205 -2.3130  1.5433 -0.5715
 7506TIP3   OH246712   3.843   6.018   9.882 -0.5769 -0.0787 -0.1441
 7506TIP3    H146713   3.827   6.049   9.971 -1.1383  0.5305 -0.4489
 7506TIP3    H246714   3.904   6.081   9.845  0.7707 -1.1056  0.2506
 7507TIP3   OH246715   0.701   1.125  11.271 -0.4784 -0.1552 -0.2729
 7507TIP3    H146716   0.637   1.172  11.326  0.5321 -0.0679  0.8552
 7507TIP3    H246717   0.659   1.121  11.185 -1.2199  1.5603 -0.0476
 7508TIP3   OH246718   3.365   5.553   9.211  0.5473 -0.2577  0.5544
 7508TIP3    H146719   3.270   5.548   9.201  0.7687 -0.7466 -1.8996
 7508TIP3    H246720   3.377   5.605   9.291 -1.7421 -1.8552  2.0684
 7509TIP3   OH246721   1.188   6.716   8.679 -0.2877 -0.0219  0.2502
 7509TIP3    H146722   1.178   6.637   8.625  0.7077 -0.9285  1.3226
 7509TIP3    H246723   1.130   6.701   8.754  0.3578 -0.0385  0.7606
 7510TIP3   OH246724   2.314   5.630  11.088  0.0037  0.0317  0.3743
 7510TIP3    H146725   2.318   5.674  11.003 -0.2328 -1.0114 -0.1972
 7510TIP3    H246726   2.405   5.606  11.107 -0.0174 -0.2876  0.0975
 7511TIP3   OH246727   4.599   1.092   9.857  0.3511  0.3303  0.1366
 7511TIP3    H146728   4.619   1.170   9.909  2.5591  0.1556 -0.3465
 7511TIP3    H246729   4.539   1.122   9.790  0.7905  1.5235  0.2591
 7512TIP3   OH246730   4.247   2.805   9.933  0.3754 -0.4331 -0.5165
 7512TIP3    H146731   4.317   2.786   9.995  1.4444  0.1815 -1.4918
 7512TIP3    H246732   4.183   2.736   9.947  0.8031 -0.5668  0.9425
 7513TIP3   OH246733   6.616   5.171   9.359 -0.2473 -0.4340 -0.4318
 7513TIP3    H146734   6.678   5.197   9.291 -1.2598 -0.1985 -1.2949
 7513TIP3    H246735   6.619   5.242   9.423  3.4585 -2.3195  1.7931
 7514TIP3   OH246736   3.507   0.833   9.074 -0.1864  0.0286  0.0737
 7514TIP3    H146737   3.495   0.921   9.110 -2.7962  0.0189 -0.5801
 7514TIP3    H246738   3.420   0.808   9.042  0.1262 -3.3321  1.4502
 7515TIP3   OH246739   6.335   3.734  10.564  0.0444  0.3946 -0.5902
 7515TIP3    H146740   6.430   3.739  10.569 -0.0673  1.9185  1.8003
 7515TIP3    H246741   6.310   3.803  10.502  0.4597  0.5071 -0.6338
 7516TIP3   OH246742   3.930   1.991  11.852  0.1061 -0.3211 -0.3284
 7516TIP3    H146743   3.962   2.038  11.929 -0.5277  0.7170 -0.6659
 7516TIP3    H246744   3.976   1.907  11.854  0.9069  0.1108  0.5797
 7517TIP3   OH246745   3.269   4.632  10.821  0.3474 -0.3902  0.2483
 7517TIP3    H146746   3.356   4.641  10.860  0.6058 -1.1885 -0.1137
 7517TIP3    H246747   3.215   4.696  10.867  0.5786 -1.4398  2.0912
 7518TIP3   OH246748   0.916   3.701  10.207  0.0350  0.1593 -0.2543
 7518TIP3    H146749   0.959   3.775  10.164  0.8046 -0.4273 -0.5226
 7518TIP3    H246750   0.931   3.627  10.148 -1.0104 -0.1529 -0.1579
 7519TIP3   OH246751   1.920   1.086   8.912  0.3874  0.0532 -0.1882
 7519TIP3    H146752   1.958   1.072   9.000  2.2920  2.3739 -0.5276
 7519TIP3    H246753   1.826   1.094   8.927  0.6908  0.5960  1.7031
 7520TIP3   OH246754   2.562   1.158  11.688  0.2725  0.0554 -0.4133
 7520TIP3    H146755   2.513   1.213  11.749 -1.1925 -1.5608 -0.0441
 7520TIP3    H246756   2.503   1.084  11.670  2.4216 -1.8061 -0.2466
 7521TIP3   OH246757   4.255   1.013  11.605 -0.6800 -0.9974  0.0051
 7521TIP3    H146758   4.341   0.972  11.619  0.4141  0.9146 -0.7344
 7521TIP3    H246759   4.201   0.943  11.569  0.1930 -2.5609  1.5684
 7522TIP3   OH246760   3.289   0.691   9.055 -0.0556 -0.4175 -0.7050
 7522TIP3    H146761   3.225   0.742   9.007 -2.9542 -1.1576  2.0247
 7522TIP3    H246762   3.248   0.605   9.067  1.3060 -0.8681  1.3738
 7523TIP3   OH246763   5.955   1.619  11.625 -0.5961  0.0356 -0.1562
 7523TIP3    H146764   6.006   1.590  11.701 -1.0096 -0.4042 -0.0406
 7523TIP3    H246765   5.894   1.684  11.661 -0.4274  0.2234 -0.2101
 7524TIP3   OH246766   2.094   1.561  10.818 -0.5307 -0.4051 -0.4315
 7524TIP3    H146767   2.144   1.529  10.893  1.2452  1.4805 -0.7413
 7524TIP3    H246768   2.159   1.597  10.759 -2.0128 -0.6776 -2.3379
 7525TIP3   OH246769   5.543   2.375  10.658 -0.0380 -0.2726  0.4548
 7525TIP3    H146770   5.558   2.464  10.689 -1.4803  0.6227 -1.1620
 7525TIP3    H246771   5.496   2.332  10.729  0.7168  0.2257  1.2714
 7526TIP3   OH246772   4.183   6.280  10.024  0.0659  0.4376 -0.1740
 7526TIP3    H146773   4.255   6.227   9.990  0.5454  1.8416 -1.5138
 7526TIP3    H246774   4.114   6.272   9.958 -0.0558  1.0231 -0.1252
 7527TIP3   OH246775   0.616   2.840  10.480  0.2122 -0.0699  0.3077
 7527TIP3    H146776   0.626   2.855  10.386 -0.2155 -0.0770  0.2591
 7527TIP3    H246777   0.705   2.845  10.515  0.6113 -1.7492 -0.3428
 7528TIP3   OH246778   1.012   3.333   9.503  0.0180 -0.8412  0.6755
 7528TIP3    H146779   1.065   3.261   9.469 -1.5312 -1.8055  0.1962
 7528TIP3    H246780   1.028   3.406   9.443  0.3518 -1.3022  0.1987
 7529TIP3   OH246781   5.594   3.592   9.136 -0.0151 -0.0394 -0.1670
 7529TIP3    H146782   5.554   3.577   9.222 -2.9865  1.5744 -1.1325
 7529TIP3    H246783   5.610   3.504   9.102 -1.8555 -0.7779  0.7446
 7530TIP3   OH246784   2.797   1.059   9.784  0.0000 -0.4392 -0.3378
 7530TIP3    H146785   2.888   1.064   9.813 -0.4779  0.8587  1.0611
 7530TIP3    H246786   2.748   1.105   9.851 -1.6634 -0.7771 -1.2673
 7531TIP3   OH246787   4.292   4.421  10.711 -0.0999  0.3746 -0.1606
 7531TIP3    H146788   4.380   4.436  10.676 -0.5562  1.2537 -0.9745
 7531TIP3    H246789   4.239   4.492  10.674 -0.2560  2.5001  3.6693
 7532TIP3   OH246790   2.777   4.505   9.420  0.2151  0.0723  0.9099
 7532TIP3    H146791   2.838   4.473   9.354 -1.3166 -2.0474  0.3733
 7532TIP3    H246792   2.758   4.595   9.395  1.8729  0.2472  0.1887
 7533TIP3   OH246793   2.004   5.343   9.625  0.1953  0.1786 -0.3765
 7533TIP3    H146794   2.020   5.257   9.587 -0.5766  0.8752 -2.4258
 7533TIP3    H246795   2.083   5.394   9.605 -0.2228  0.5561 -1.1042
 7534TIP3   OH246796   3.474   1.559   8.785  0.0674  0.1370  0.2774
 7534TIP3    H146797   3.542   1.621   8.811 -1.6208  1.8248  0.9635
 7534TIP3    H246798   3.401   1.615   8.756 -1.4519 -1.5236  0.6927
 7535TIP3   OH246799   6.470   4.344   8.954 -0.0978 -0.0756 -0.0649
 7535TIP3    H146800   6.379   4.319   8.934  0.3038  0.6086 -3.3100
 7535TIP3    H246801   6.473   4.438   8.937  1.1282  0.0074  0.5099
 7536TIP3   OH246802   4.272   0.975   9.660  0.2154  0.1039  0.2872
 7536TIP3    H146803   4.316   1.054   9.630  2.1242 -1.2994 -0.8605
 7536TIP3    H246804   4.189   0.974   9.612  1.0336  0.4348 -1.1748
 7537TIP3   OH246805   0.451   2.495  10.171  0.0137 -0.3169 -0.3912
 7537TIP3    H146806   0.412   2.577  10.139 -0.5965  0.2186  1.5840
 7537TIP3    H246807   0.381   2.430  10.160  0.4909 -0.6219 -1.9411
 7538TIP3   OH246808   5.516   4.756   8.999  0.3625  0.1835 -0.3977
 7538TIP3    H146809   5.469   4.810   8.936  1.5381  1.1143 -0.5285
 7538TIP3    H246810   5.450   4.729   9.063 -0.4582  0.8709 -0.9360
 7539TIP3   OH246811   0.982   0.538  12.127  0.4359 -0.6278  0.2469
 7539TIP3    H146812   1.068   0.563  12.094  0.5864 -1.6362 -0.1625
 7539TIP3    H246813   0.935   0.621  12.138  1.5144 -0.0556  0.6487
 7540TIP3   OH246814   3.492   6.120  12.445 -0.8384  0.3142 -0.1148
 7540TIP3    H146815   3.585   6.114  12.424 -0.9416 -0.8535 -0.3206
 7540TIP3    H246816   3.474   6.214  12.450  0.6239  0.5624  1.2132
 7541TIP3   OH246817   6.024   4.400   9.934 -0.5194 -0.1346  0.3369
 7541TIP3    H146818   5.972   4.412  10.014 -1.2881  0.6591 -0.2606
 7541TIP3    H246819   5.985   4.461   9.871  0.5224 -0.2419 -0.4338
 7542TIP3   OH246820   2.713   0.486  11.498  0.1423  0.5430  0.4354
 7542TIP3    H146821   2.786   0.445  11.544 -0.8405 -2.6836 -0.5650
 7542TIP3    H246822   2.666   0.535  11.565  1.5039  0.1676  1.7202
 7543TIP3   OH246823   0.504   5.463  11.251  0.1630  0.2572 -0.0403
 7543TIP3    H146824   0.559   5.409  11.194  1.6786  2.1412 -0.4794
 7543TIP3    H246825   0.480   5.538  11.196 -0.3976  0.9255  1.0784
 7544TIP3   OH246826   3.043   5.435  11.339  0.5353 -0.2552 -0.5232
 7544TIP3    H146827   3.011   5.423  11.428  2.6105 -1.6500  0.1137
 7544TIP3    H246828   3.063   5.528  11.332  0.9910 -0.2460  0.7220
 7545TIP3   OH246829   0.434   0.514  10.000 -0.2332 -0.3993  0.0583
 7545TIP3    H146830   0.381   0.545  10.073 -0.2362  0.3774 -0.2617
 7545TIP3    H246831   0.497   0.585   9.984 -1.2709  0.1765 -1.7163
 7546TIP3   OH246832   3.432   2.385  10.304 -0.2297  0.1345  0.0174
 7546TIP3    H146833   3.502   2.450  10.289  0.2969 -0.3490  0.3219
 7546TIP3    H246834   3.467   2.304  10.267 -0.4240 -0.2287  0.6154
 7547TIP3   OH246835   6.619   4.630  10.228 -0.1866  0.6366  0.3072
 7547TIP3    H146836   6.617   4.590  10.141 -1.1188 -1.6121  1.2837
 7547TIP3    H246837   6.527   4.644  10.251 -0.0747 -0.5091  1.6102
 7548TIP3   OH246838   2.542   2.629   8.879  0.3313 -0.1735 -0.1367
 7548TIP3    H146839   2.536   2.704   8.819 -0.7292  0.5679  0.8569
 7548TIP3    H246840   2.479   2.566   8.845 -0.6118  0.4383  0.4329
 7549TIP3   OH246841   2.884   4.975   9.782 -0.0272 -0.5114 -0.1858
 7549TIP3    H146842   2.798   4.937   9.762  0.2937 -1.4643  0.2197
 7549TIP3    H246843   2.900   4.953   9.873  0.6345 -0.2976 -0.2454
 7550TIP3   OH246844   2.251   0.782   9.650  0.3384 -0.3569 -0.3452
 7550TIP3    H146845   2.248   0.704   9.595 -1.8694 -0.6219  0.0625
 7550TIP3    H246846   2.266   0.748   9.739 -2.4680 -0.5808  0.1266
 7551TIP3   OH246847   4.387   0.030  11.452  0.2601 -0.2061 -0.0207
 7551TIP3    H146848   4.418  -0.029  11.521  1.8741  0.4377 -0.1414
 7551TIP3    H246849   4.300  -0.002  11.431  0.3875 -1.4473  1.1540
 7552TIP3   OH246850   0.391   5.582   9.014  0.1016  0.8604  0.0865
 7552TIP3    H146851   0.423   5.617   9.097 -0.7464  1.2286  0.2678
 7552TIP3    H246852   0.314   5.635   8.993 -0.9259 -0.5596  0.1104
 7553TIP3   OH246853   4.709   3.074   9.360  0.3458  0.3784 -0.1169
 7553TIP3    H146854   4.789   3.091   9.410  1.6119  1.1062 -2.2818
 7553TIP3    H246855   4.685   3.159   9.323 -2.2554  0.4777  1.5248
 7554TIP3   OH246856   6.201   3.593   9.311  0.5418 -0.3159  0.3849
 7554TIP3    H146857   6.226   3.675   9.269  0.3863 -0.7734 -0.6299
 7554TIP3    H246858   6.138   3.618   9.379 -0.4201  0.2903 -0.7108
 7555TIP3   OH246859   2.396   2.819  11.062  0.3660 -0.4043  0.3927
 7555TIP3    H146860   2.342   2.895  11.038  0.0868 -0.4075  0.9852
 7555TIP3    H246861   2.332   2.752  11.086  0.5567 -1.3228 -1.4757
 7556TIP3   OH246862   2.907   4.693  10.622 -0.0678 -0.0246  0.2351
 7556TIP3    H146863   2.931   4.714  10.532  2.8708  0.7294  1.0745
 7556TIP3    H246864   2.870   4.774  10.657  0.5488  0.2582  0.2329
 7557TIP3   OH246865   6.367   3.764  10.927 -0.2242 -0.1797 -0.1704
 7557TIP3    H146866   6.378   3.854  10.895  0.5563 -0.5663 -1.0320
 7557TIP3    H246867   6.284   3.735  10.891 -0.1341 -0.0444 -0.4918
 7558TIP3   OH246868   2.761   6.342   9.548 -0.6699  0.1635 -0.2851
 7558TIP3    H146869   2.716   6.329   9.465 -0.7001 -2.9276  0.1019
 7558TIP3    H246870   2.812   6.262   9.561 -0.5127  0.6095  2.5733
 7559TIP3   OH246871   6.574   1.668   9.579 -0.5921  0.2170  0.1341
 7559TIP3    H146872   6.499   1.631   9.532  0.3426 -0.3714 -0.9583
 7559TIP3    H246873   6.649   1.620   9.544  0.3845  1.4270  0.5370
 7560TIP3   OH246874   0.995   6.653   8.857  0.5386 -0.4375 -0.4319
 7560TIP3    H146875   1.008   6.622   8.946 -0.1777  1.0624  0.2296
 7560TIP3    H246876   0.905   6.630   8.836  0.4453 -0.0801 -0.4451
 7561TIP3   OH246877   4.282   4.250  11.718  0.3625 -0.4131  0.0619
 7561TIP3    H146878   4.337   4.327  11.732  1.2177 -1.1883  1.0999
 7561TIP3    H246879   4.194   4.280  11.741  0.7684  0.1087  0.9864
 7562TIP3   OH246880   5.631   3.271   9.326  0.2569 -0.0171 -0.5954
 7562TIP3    H146881   5.689   3.198   9.347 -1.1697 -0.8147  0.8127
 7562TIP3    H246882   5.659   3.342   9.383 -1.7855 -1.2833  2.2453
 7563TIP3   OH246883   4.338   3.164  10.728  0.6936 -0.4629  0.6876
 7563TIP3    H146884   4.328   3.070  10.743  0.9496 -0.8584 -1.2785
 7563TIP3    H246885   4.431   3.176  10.708  0.9372  0.4517  2.1971
 7564TIP3   OH246886   2.736   0.900  11.205 -0.0458 -0.3320 -0.0604
 7564TIP3    H146887   2.708   0.975  11.257  2.3993  0.1362  0.7117
 7564TIP3    H246888   2.690   0.825  11.244 -3.4758  0.8069 -1.6279
 7565TIP3   OH246889   2.615   5.586  11.598 -0.4860  0.1577  0.1966
 7565TIP3    H146890   2.644   5.576  11.507 -1.5601 -0.9557 -0.0530
 7565TIP3    H246891   2.540   5.645  11.593 -1.1565 -0.6781  0.2195
 7566TIP3   OH246892   2.411   3.336  10.173  0.6043  0.0961  0.0672
 7566TIP3    H146893   2.420   3.242  10.160  0.0121 -0.0376  0.5774
 7566TIP3    H246894   2.438   3.375  10.090  0.3319 -0.5513 -0.3284
 7567TIP3   OH246895   2.823   0.982  10.121 -0.3291  0.5026  0.4655
 7567TIP3    H146896   2.834   0.947  10.033 -0.5677  0.0916  0.5976
 7567TIP3    H246897   2.836   0.908  10.180 -0.5109  0.6972  0.7615
 7568TIP3   OH246898   5.026   4.730  12.184 -1.0018  0.4772 -0.1778
 7568TIP3    H146899   5.013   4.690  12.098  0.8881  0.3716 -0.4542
 7568TIP3    H246900   5.037   4.656  12.243 -0.1803  0.5399 -0.2336
 7569TIP3   OH246901   2.019   3.325  10.841 -0.2323  0.4674  0.5214
 7569TIP3    H146902   1.948   3.388  10.837 -2.2843 -1.7866 -1.0018
 7569TIP3    H246903   1.996   3.267  10.913  1.2371  0.9312  1.4123
 7570TIP3   OH246904   4.057   0.154   9.047 -0.2197  0.3683  0.1087
 7570TIP3    H146905   4.066   0.246   9.075  1.2452  0.7158 -1.3198
 7570TIP3    H246906   4.128   0.109   9.093  0.3273  0.3706 -0.7097
 7571TIP3   OH246907   1.708   6.488  12.676  0.1716 -0.0199  0.6131
 7571TIP3    H146908   1.790   6.531  12.701  1.2056 -1.2515 -0.4635
 7571TIP3    H246909   1.639   6.550  12.700  1.3424  0.6262  2.4814
 7572TIP3   OH246910   3.304   6.569  10.744 -0.0159  0.2469 -0.2898
 7572TIP3    H146911   3.356   6.625  10.801 -1.0303 -0.4823  1.4312
 7572TIP3    H246912   3.367   6.533  10.681  0.9370  1.9271 -0.3506
 7573TIP3   OH246913   0.840   2.605  10.231  0.1946  0.2949 -0.0347
 7573TIP3    H146914   0.787   2.527  10.215 -1.3722  1.4262 -0.5993
 7573TIP3    H246915   0.912   2.574  10.286 -1.2152 -1.2562  1.0212
 7574TIP3   OH246916   2.951   0.139  10.836 -0.3046  0.0551  0.1517
 7574TIP3    H146917   3.039   0.110  10.860 -0.5055 -0.0038  0.8503
 7574TIP3    H246918   2.896   0.061  10.850 -0.0295 -0.9560 -3.3640
 7575TIP3   OH246919   3.619   2.691  11.561 -0.7423 -0.1917 -0.3200
 7575TIP3    H146920   3.633   2.749  11.486  0.4829  0.4730  0.3923
 7575TIP3    H246921   3.630   2.747  11.638 -1.1180 -1.0402  0.3813
 7576TIP3   OH246922   1.832   5.694  12.357 -0.1371  0.4821 -0.4260
 7576TIP3    H146923   1.869   5.767  12.406 -0.0849  0.6126 -0.6556
 7576TIP3    H246924   1.896   5.623  12.367 -0.9466 -0.0641  1.1245
 7577TIP3   OH246925   4.860   3.687   9.409  0.1113  0.4057 -0.1065
 7577TIP3    H146926   4.908   3.770   9.406  1.9627 -0.5671  0.7883
 7577TIP3    H246927   4.870   3.651   9.320  2.8344 -0.6648  0.5251
 7578TIP3   OH246928   6.179   4.652   9.748  0.5978 -0.2891  0.4993
 7578TIP3    H146929   6.225   4.681   9.670  0.5461 -0.8225  0.2700
 7578TIP3    H246930   6.092   4.690   9.740 -0.0620 -1.9680 -0.7007
 7579TIP3   OH246931   0.417   5.465  10.948 -0.0657  0.0387 -0.5710
 7579TIP3    H146932   0.374   5.426  10.872  0.5891 -1.1170 -0.3690
 7579TIP3    H246933   0.350   5.463  11.017  0.1243 -1.2629 -0.4067
 7580TIP3   OH246934   2.488   0.862  10.170  0.1153  0.2464 -0.1610
 7580TIP3    H146935   2.533   0.945  10.182  0.0405  0.1085  1.2828
 7580TIP3    H246936   2.537   0.818  10.100  1.4690  0.6141  0.5155
 7581TIP3   OH246937   5.756   1.117   9.106 -0.1900 -0.6960 -0.3425
 7581TIP3    H146938   5.763   1.094   9.198 -1.1679  3.4690  0.9799
 7581TIP3    H246939   5.835   1.167   9.087 -1.1761  0.7125 -0.9400
 7582TIP3   OH246940   0.511   5.339   9.468  0.0122 -0.7256  0.1919
 7582TIP3    H146941   0.572   5.344   9.542  2.3119 -0.0377 -1.5922
 7582TIP3    H246942   0.568   5.319   9.393 -1.5091  2.6577 -2.0900
 7583TIP3   OH246943   3.149   3.100  11.132 -0.1813 -0.4117  0.8019
 7583TIP3    H146944   3.094   3.095  11.210 -2.2272 -0.2501 -0.5462
 7583TIP3    H246945   3.155   3.010  11.101 -0.2557 -0.3435  0.5875
 7584TIP3   OH246946   3.589   0.625  11.381  0.4813  0.1054 -0.3176
 7584TIP3    H146947   3.512   0.599  11.331  0.0057 -4.5907  2.2686
 7584TIP3    H246948   3.555   0.648  11.468  1.8182 -0.8170  0.4992
 7585TIP3   OH246949   4.630   6.088  11.177 -0.2590 -0.3624 -0.3614
 7585TIP3    H146950   4.699   6.024  11.197  0.5816  0.6460  0.0598
 7585TIP3    H246951   4.652   6.121  11.090 -0.7573 -0.7066 -0.6266
 7586TIP3   OH246952   5.876   5.698  12.207  0.2039 -0.0823  0.1903
 7586TIP3    H146953   5.829   5.706  12.124  1.8915 -0.2706 -0.8229
 7586TIP3    H246954   5.881   5.787  12.241  1.2681  0.3050 -0.9424
 7587TIP3   OH246955   0.219   3.704   8.539  0.2699 -0.0603  0.2685
 7587TIP3    H146956   0.139   3.756   8.541 -0.4322 -1.1392  1.9948
 7587TIP3    H246957   0.199   3.630   8.481  1.1884  1.3400 -1.9883
 7588TIP3   OH246958   4.839   0.467  10.741  0.6818  0.1800 -0.3892
 7588TIP3    H146959   4.753   0.498  10.770  1.4889  3.0009 -0.6481
 7588TIP3    H246960   4.823   0.426  10.656 -0.5087 -0.2482  0.0124
 7589TIP3   OH246961   2.342   5.255   9.764 -0.1570 -0.7090  0.3202
 7589TIP3    H146962   2.423   5.266   9.814 -0.0781 -0.8790  0.2272
 7589TIP3    H246963   2.370   5.227   9.677 -0.1042  2.2053 -0.7214
 7590TIP3   OH246964   5.862   5.516  10.769  0.3066  0.5395 -0.0641
 7590TIP3    H146965   5.886   5.531  10.678 -0.0060  1.5204 -0.0007
 7590TIP3    H246966   5.908   5.436  10.794 -0.8900 -0.6854 -1.5644
 7591TIP3   OH246967   3.319   1.388   9.628  0.0614 -0.2594  0.0977
 7591TIP3    H146968   3.396   1.383   9.683  0.5140 -0.4278 -0.5442
 7591TIP3    H246969   3.260   1.321   9.663 -0.9417  1.6403  2.2920
 7592TIP3   OH246970   5.289   5.650  10.681 -0.1324  0.2636  0.0569
 7592TIP3    H146971   5.281   5.565  10.725  0.6348  0.2930  0.2542
 7592TIP3    H246972   5.238   5.640  10.601 -2.2364  0.4659  1.2847
 7593TIP3   OH246973   1.857   2.921  10.996  0.6272 -0.0199 -0.1809
 7593TIP3    H146974   1.952   2.932  10.986  0.5347  0.7311 -0.3340
 7593TIP3    H246975   1.819   2.981  10.931  0.0476 -1.0227 -0.8001
 7594TIP3   OH246976   3.134   3.144  10.846 -0.1134 -0.3108  0.1921
 7594TIP3    H146977   3.122   3.050  10.837  1.0795 -0.6711  1.8275
 7594TIP3    H246978   3.117   3.162  10.938 -0.0310  1.0342 -0.0259
 7595TIP3   OH246979   4.473   1.085   8.804 -0.0139  0.0034 -0.4268
 7595TIP3    H146980   4.444   1.059   8.717  1.8490  1.0369 -1.4090
 7595TIP3    H246981   4.457   1.008   8.859 -1.0325 -0.7357 -1.7066
 7596TIP3   OH246982   3.206   2.350   9.031  0.0964  0.0939 -0.4704
 7596TIP3    H146983   3.217   2.303   9.114 -0.2565  1.4996  0.4018
 7596TIP3    H246984   3.274   2.313   8.974  0.1178 -1.1410  0.3155
 7597TIP3   OH246985   2.384   6.382   9.117 -0.4869  0.1192 -0.2290
 7597TIP3    H146986   2.394   6.475   9.138 -2.1423  0.4956 -0.9677
 7597TIP3    H246987   2.449   6.366   9.049 -0.2859  0.7636 -0.1964
 7598TIP3   OH246988   3.832   3.860   8.981 -0.1174  0.0529  0.2166
 7598TIP3    H146989   3.862   3.949   8.999 -1.1792  0.5012 -0.1167
 7598TIP3    H246990   3.899   3.804   9.020  0.2642  0.9941  0.9747
 7599TIP3   OH246991   2.183   2.832  10.191 -0.2479  0.0804 -0.2654
 7599TIP3    H146992   2.194   2.913  10.142 -2.4200 -0.3464 -1.6194
 7599TIP3    H246993   2.258   2.778  10.165 -0.6359  0.3789 -2.1550
 7600TIP3   OH246994   6.525   4.064   8.959 -0.0614 -0.2218 -0.1336
 7600TIP3    H146995   6.518   4.158   8.977  0.8231 -0.2612  0.5009
 7600TIP3    H246996   6.601   4.056   8.903 -1.2183 -0.3942 -1.7356
 7601TIP3   OH246997   3.253   3.558  10.398 -0.5285  0.4203 -0.7322
 7601TIP3    H146998   3.197   3.629  10.367 -0.3326  0.0505 -2.0040
 7601TIP3    H246999   3.311   3.539  10.324  1.4035  0.8860  0.5829
 7602TIP3   OH247000   2.786   3.500  11.285  0.3507  0.3791  0.3164
 7602TIP3    H147001   2.742   3.416  11.268 -1.4091  1.4705 -0.9454
 7602TIP3    H247002   2.863   3.477  11.337 -0.0593 -2.0088 -0.0082
 7603TIP3   OH247003   2.248   5.893  11.138  0.1739 -0.2463 -0.0186
 7603TIP3    H147004   2.263   5.801  11.161 -1.7750  0.2854  4.2378
 7603TIP3    H247005   2.314   5.941  11.188  0.8774  0.7871 -1.8504
 7604TIP3   OH247006   1.624   6.065   9.742  0.4067 -0.4062 -0.0916
 7604TIP3    H147007   1.666   6.126   9.801 -0.6830 -0.6889  1.0216
 7604TIP3    H247008   1.650   5.978   9.773 -1.6303 -0.6280  1.2042
 7605TIP3   OH247009   6.310   4.291  10.405 -0.0232 -0.6786 -0.5865
 7605TIP3    H147010   6.379   4.241  10.362 -0.4483 -0.7069 -1.2650
 7605TIP3    H247011   6.260   4.226  10.454  0.6077 -0.6118  0.1512
 7606TIP3   OH247012   1.306   3.844   8.456  0.7181 -0.0935 -0.4205
 7606TIP3    H147013   1.390   3.855   8.501  0.7704 -2.0241  0.0578
 7606TIP3    H247014   1.252   3.795   8.518 -0.6363  0.7153 -0.9068
 7607TIP3   OH247015   0.620   1.398  11.339  0.2807 -0.0662  0.0569
 7607TIP3    H147016   0.611   1.473  11.280  0.5697 -0.1146 -0.0510
 7607TIP3    H247017   0.533   1.387  11.377  0.3936  0.7330  0.5741
 7608TIP3   OH247018   3.566   2.817  10.805  0.2780  0.3568  0.6103
 7608TIP3    H147019   3.632   2.757  10.838  1.2316  0.5085 -0.9333
 7608TIP3    H247020   3.507   2.762  10.753 -0.0442  0.4429  0.8776
 7609TIP3   OH247021   0.600   3.851   9.382 -0.8263  0.2589 -0.4199
 7609TIP3    H147022   0.681   3.900   9.367  0.3594 -1.1358  0.9713
 7609TIP3    H247023   0.530   3.915   9.369  0.5949  2.0623  0.3731
 7610TIP3   OH247024   4.669   2.009  10.994  0.0669  0.0403  0.1707
 7610TIP3    H147025   4.723   2.007  10.915 -0.4600  0.8412 -0.2146
 7610TIP3    H247026   4.612   1.932  10.986 -0.3066  0.3754 -0.4607
 7611TIP3   OH247027   4.325   3.483  11.198  0.0497  0.0553  0.1445
 7611TIP3    H147028   4.257   3.420  11.223 -0.2981  0.6199  0.6505
 7611TIP3    H247029   4.322   3.485  11.103 -0.8673  0.3155  0.1723
 7612TIP3   OH247030   3.742   3.235  10.609 -0.0600 -0.0798  0.6933
 7612TIP3    H147031   3.787   3.318  10.623 -1.6169  1.0921 -0.8247
 7612TIP3    H247032   3.658   3.259  10.570 -0.7271 -2.3544  0.5749
 7613TIP3   OH247033   0.164   3.148  10.536 -0.6386  0.3897  0.1746
 7613TIP3    H147034   0.072   3.123  10.523 -1.0480  1.7135  0.3501
 7613TIP3    H247035   0.163   3.198  10.617 -0.0637  1.8624 -0.6948
 7614TIP3   OH247036   0.714   6.311  11.891 -0.1440  0.6535  0.2033
 7614TIP3    H147037   0.672   6.337  11.974 -1.0237  0.4042 -0.1522
 7614TIP3    H247038   0.740   6.393  11.851  1.2798  0.7263  1.2262
 7615TIP3   OH247039   2.733   4.895  11.170 -0.1214  0.0875  0.6338
 7615TIP3    H147040   2.702   4.938  11.249 -2.3025  1.4302 -0.8518
 7615TIP3    H247041   2.824   4.872  11.189 -0.6983 -0.0901  3.6524
 7616TIP3   OH247042   4.793   5.104   8.450 -0.2332  0.0649 -0.0960
 7616TIP3    H147043   4.708   5.148   8.450 -1.2663 -1.7489  1.8333
 7616TIP3    H247044   4.857   5.174   8.462 -1.1303  1.8010 -4.0060
 7617TIP3   OH247045   3.989   3.149  10.401 -0.3360  0.5364 -0.6557
 7617TIP3    H147046   3.930   3.085  10.362 -1.6673  2.4099 -1.8813
 7617TIP3    H247047   3.991   3.126  10.494  0.3085 -2.0293 -1.2208
 7618TIP3   OH247048   5.872   4.036   9.624  0.3612 -0.0403 -0.1262
 7618TIP3    H147049   5.885   4.125   9.655 -1.4301  0.3764 -0.4088
 7618TIP3    H247050   5.892   4.040   9.530 -0.2743  0.2267 -0.2578
 7619TIP3   OH247051   0.143   5.123  10.005  0.2081 -0.0737 -0.4195
 7619TIP3    H147052   0.157   5.073   9.925 -0.6839 -0.3301 -0.4234
 7619TIP3    H247053   0.073   5.184   9.984 -0.6752 -0.7583  0.4138
 7620TIP3   OH247054   5.462   1.112   9.549  0.1437 -0.0525  0.1787
 7620TIP3    H147055   5.445   1.203   9.574 -2.0266  0.0983 -1.5482
 7620TIP3    H247056   5.398   1.061   9.599  0.9361 -0.5954  0.6620
 7621TIP3   OH247057   6.342   3.573  10.142  0.3434 -0.2368 -0.2477
 7621TIP3    H147058   6.393   3.632  10.199  0.5080 -0.8076  0.1990
 7621TIP3    H247059   6.275   3.536  10.199  0.7524 -1.1143 -0.3178
 7622TIP3   OH247060   4.238   2.957   8.998 -0.5169 -0.4366 -0.3811
 7622TIP3    H147061   4.169   2.891   8.989 -1.3544  0.5301 -1.3345
 7622TIP3    H247062   4.261   2.980   8.907  1.7976 -1.4490 -0.1312
 7623TIP3   OH247063   6.001   6.627   9.415 -0.1222  0.4925 -0.1895
 7623TIP3    H147064   6.029   6.627   9.324  1.8910  0.5697  0.3691
 7623TIP3    H247065   6.044   6.704   9.453  0.4253 -0.4448  1.1762
 7624TIP3   OH247066   4.570   4.445  11.473 -0.0832  0.0864 -0.0779
 7624TIP3    H147067   4.665   4.444  11.466 -0.0674 -2.3681 -0.4791
 7624TIP3    H247068   4.548   4.365  11.521 -1.9634  0.2588 -0.5480
 7625TIP3   OH247069   1.459   5.082   8.725  0.0050 -0.0895  0.0890
 7625TIP3    H147070   1.383   5.085   8.783  0.4394  0.3185  0.6466
 7625TIP3    H247071   1.434   5.020   8.657 -1.6034  1.4490 -0.8245
 7626TIP3   OH247072   2.229   6.504  10.477 -0.1987  0.1519 -0.3404
 7626TIP3    H147073   2.182   6.582  10.450 -1.7175 -0.5811  0.1038
 7626TIP3    H247074   2.195   6.434  10.421 -1.5749 -0.8955  1.6650
 7627TIP3   OH247075   2.470   5.540   8.601 -0.0366 -0.3957 -0.5200
 7627TIP3    H147076   2.509   5.577   8.680 -1.5009 -0.3506  0.2182
 7627TIP3    H247077   2.399   5.484   8.634  0.6899 -2.0868 -1.7148
 7628TIP3   OH247078   4.773   2.703   9.001 -0.0686  0.0306 -0.4456
 7628TIP3    H147079   4.842   2.661   8.949 -0.0220 -0.6667  0.1532
 7628TIP3    H247080   4.797   2.683   9.092 -0.2035  1.1397 -0.1585
 7629TIP3   OH247081   5.970   1.670  10.107 -0.3125 -0.1754 -0.4219
 7629TIP3    H147082   6.015   1.695  10.188  1.9369 -1.4909 -1.1806
 7629TIP3    H247083   5.883   1.643  10.136 -0.0446  0.7239  1.3653
 7630TIP3   OH247084   5.413   1.821  10.365  1.6628 -0.2644  0.1746
 7630TIP3    H147085   5.459   1.842  10.284  0.6854  0.9575 -0.0882
 7630TIP3    H247086   5.335   1.875  10.364  1.0026 -1.1316  1.3658
 7631TIP3   OH247087   1.391   4.272   9.008  0.1488  0.3627  0.2908
 7631TIP3    H147088   1.368   4.329   8.935 -1.7996  1.2675  1.5298
 7631TIP3    H247089   1.463   4.218   8.975  1.2811  2.6968 -1.3220
 7632TIP3   OH247090   3.600   5.381  11.781 -0.3813  0.1528 -0.5400
 7632TIP3    H147091   3.526   5.442  11.778  0.1753  0.8060 -2.5687
 7632TIP3    H247092   3.647   5.395  11.699  1.2497 -1.2059  0.0825
 7633TIP3   OH247093   6.617   5.633  11.806  0.1838  0.7458  0.1827
 7633TIP3    H147094   6.614   5.705  11.743  1.0295 -0.6299 -1.5099
 7633TIP3    H247095   6.614   5.554  11.752  1.6635 -0.5109  1.8278
 7634TIP3   OH247096   5.119   0.855  11.348  0.2729 -0.2851 -0.6238
 7634TIP3    H147097   5.180   0.927  11.354 -0.1142  0.3113 -2.8449
 7634TIP3    H247098   5.147   0.793  11.415  1.3911  1.3357  0.4603
 7635TIP3   OH247099   3.497   2.223  10.664 -0.6201 -0.0007 -0.7922
 7635TIP3    H147100   3.560   2.154  10.644 -0.5968 -0.3056  0.2390
 7635TIP3    H247101   3.512   2.243  10.757 -3.1603 -1.3051  0.0025
 7636TIP3   OH247102   2.091   4.313   9.209 -0.0018 -0.0346  0.0935
 7636TIP3    H147103   2.125   4.399   9.233  2.2481 -0.5276 -1.0722
 7636TIP3    H247104   2.136   4.291   9.128 -0.4507 -2.3540  0.3949
 7637TIP3   OH247105   5.398   1.356   9.669 -0.1495  0.4272 -0.1926
 7637TIP3    H147106   5.451   1.313   9.735 -1.0062  0.1076  0.2988
 7637TIP3    H247107   5.314   1.374   9.713 -0.1643  1.6937 -0.6810
 7638TIP3   OH247108   0.132   3.889  10.688 -0.4037  0.2072 -0.1148
 7638TIP3    H147109   0.181   3.852  10.762  2.2866  2.4141 -0.6490
 7638TIP3    H247110   0.150   3.829  10.615 -0.6566 -0.3815  0.2990
 7639TIP3   OH247111   2.264   5.389   9.128  0.1929  0.2532 -0.2083
 7639TIP3    H147112   2.281   5.320   9.064  1.7952  0.4839 -0.0686
 7639TIP3    H247113   2.335   5.381   9.191 -0.6173  0.8844  0.8108
 7640TIP3   OH247114   6.210   5.985  10.787  0.0626 -0.4604  0.0653
 7640TIP3    H147115   6.251   5.969  10.702 -0.3564 -0.8314 -0.0678
 7640TIP3    H247116   6.283   5.986  10.849  0.2378 -1.5480 -0.1062
 7641TIP3   OH247117   0.653   6.556  11.494  0.9523 -0.2294  0.0209
 7641TIP3    H147118   0.699   6.486  11.539  0.4995 -0.7419 -0.2986
 7641TIP3    H247119   0.684   6.636  11.536 -0.6284 -0.7384  2.3642
 7642TIP3   OH247120   3.229   0.868  11.351 -0.3454 -0.2554  0.0755
 7642TIP3    H147121   3.235   0.806  11.279  0.3061  0.4459 -0.4957
 7642TIP3    H247122   3.140   0.903  11.345 -0.4898 -0.6363 -0.0175
 7643TIP3   OH247123   6.516   4.076  11.405 -0.6089  0.5853 -0.4082
 7643TIP3    H147124   6.609   4.097  11.409 -0.4514 -0.1617  0.2704
 7643TIP3    H247125   6.482   4.103  11.491 -0.5347 -1.2289  0.2241
 7644TIP3   OH247126   4.509   1.311  10.832 -0.3779 -0.2315 -0.7460
 7644TIP3    H147127   4.440   1.246  10.821 -0.8498  0.0388  0.4238
 7644TIP3    H247128   4.462   1.395  10.840  0.1539  0.1104 -1.1517
 7645TIP3   OH247129   1.109   0.513   8.708  0.3712 -0.3092  1.2425
 7645TIP3    H147130   1.167   0.437   8.698  0.2563 -0.4069  1.3277
 7645TIP3    H247131   1.051   0.491   8.780  0.7426  0.1171  1.6775
 7646TIP3   OH247132   6.509   3.734  11.577 -0.5892  0.0739 -0.3962
 7646TIP3    H147133   6.575   3.803  11.591 -0.5379 -0.2953  1.5056
 7646TIP3    H247134   6.560   3.653  11.575 -0.8762 -0.1215  0.0120
 7647TIP3   OH247135   2.221   3.134   8.738 -0.0652 -0.3603 -0.3529
 7647TIP3    H147136   2.166   3.201   8.696 -0.5030 -0.7153 -0.3583
 7647TIP3    H247137   2.310   3.166   8.727 -0.2980  0.4816  0.0870
 7648TIP3   OH247138   4.751   2.474   9.265  0.2440  0.3707  0.0990
 7648TIP3    H147139   4.837   2.514   9.264  0.1335  0.6927 -2.1532
 7648TIP3    H247140   4.762   2.391   9.217 -0.3990 -0.3103  1.0826
 7649TIP3   OH247141   5.260   4.643  10.812  0.1110 -0.0599 -0.4457
 7649TIP3    H147142   5.321   4.591  10.760 -1.2455 -0.0751 -2.0882
 7649TIP3    H247143   5.276   4.734  10.784  0.1950  0.0694  0.0069
 7650TIP3   OH247144   1.888   1.537  12.479  0.4475  0.0319  0.3456
 7650TIP3    H147145   1.865   1.558  12.569  1.4285 -2.4338  1.2613
 7650TIP3    H247146   1.810   1.496  12.443  0.4785 -0.1624  0.5001
 7651TIP3   OH247147   5.867   0.531  11.879  0.2393  0.1373  0.3706
 7651TIP3    H147148   5.804   0.502  11.814  1.3900 -1.8700  0.0542
 7651TIP3    H247149   5.931   0.582  11.829  1.3337 -1.7215 -0.2434
 7652TIP3   OH247150   0.242   0.339  11.680  0.5307 -0.1983  0.0072
 7652TIP3    H147151   0.273   0.424  11.710 -0.9274  0.3422  0.0937
 7652TIP3    H247152   0.147   0.350  11.671  0.3600 -1.6984 -0.3673
 7653TIP3   OH247153   2.845   3.093   8.837 -0.1120 -0.0005  0.1795
 7653TIP3    H147154   2.834   3.025   8.903 -1.0494  0.2655  0.3118
 7653TIP3    H247155   2.918   3.062   8.783 -0.9746 -1.4614 -0.1941
 7654TIP3   OH247156   0.219   5.879   9.882  0.0548  0.2017  0.1742
 7654TIP3    H147157   0.123   5.876   9.876 -0.1933  2.2816  1.9785
 7654TIP3    H247158   0.246   5.787   9.876 -2.3405 -0.8440  3.0394
 7655TIP3   OH247159   3.801   1.027  10.113  1.4078  0.0596  0.6245
 7655TIP3    H147160   3.841   1.113  10.115  0.1634  0.6488  1.4225
 7655TIP3    H247161   3.707   1.043  10.112  1.1357 -1.2737  1.1897
 7656TIP3   OH247162   4.510   0.629  11.067  0.7710  0.4306 -0.0707
 7656TIP3    H147163   4.504   0.534  11.075  1.5677  0.4933  1.8091
 7656TIP3    H247164   4.532   0.643  10.975 -0.7272 -1.0902 -0.7242
 7657TIP3   OH247165   4.604   0.496  10.226 -0.1543 -0.0075 -1.0454
 7657TIP3    H147166   4.660   0.439  10.280 -2.2546 -1.8472 -0.6417
 7657TIP3    H247167   4.609   0.459  10.138 -2.2628 -1.5415 -0.5981
 7658TIP3   OH247168   0.302   4.106   9.731 -0.2750  0.0916  0.1456
 7658TIP3    H147169   0.245   4.038   9.766  0.6308 -0.4893  0.5589
 7658TIP3    H247170   0.385   4.060   9.715  0.4419  1.1567  0.7199
 7659TIP3   OH247171   5.969   2.652  11.022 -0.4910  0.0786  0.4814
 7659TIP3    H147172   5.907   2.715  11.059 -1.2871  0.6605 -1.7259
 7659TIP3    H247173   6.013   2.700  10.952 -0.4650 -1.5494 -0.6523
 7660TIP3   OH247174   2.580   3.256  11.379  0.5070  0.3610 -0.2655
 7660TIP3    H147175   2.496   3.236  11.420 -0.3223  1.3908 -1.3771
 7660TIP3    H247176   2.576   3.214  11.293  1.8287 -0.9687  0.2931
 7661TIP3   OH247177   3.838   3.703   9.253  0.3647  0.2623  0.0212
 7661TIP3    H147178   3.824   3.646   9.329 -1.2731 -1.9806 -1.8184
 7661TIP3    H247179   3.836   3.792   9.289 -1.1770 -0.6608  2.5051
 7662TIP3   OH247180   1.674   3.466   8.821 -0.1016 -0.1863  0.8180
 7662TIP3    H147181   1.606   3.434   8.880  0.6192 -1.6146  0.9194
 7662TIP3    H247182   1.642   3.551   8.792 -1.6956 -0.6070  1.2310
 7663TIP3   OH247183   0.146   0.850   8.930 -0.2624 -0.1862  0.2641
 7663TIP3    H147184   0.128   0.934   8.889 -0.2278 -1.3037 -2.2494
 7663TIP3    H247185   0.062   0.821   8.965 -0.9766 -0.3785 -1.4987
 7664TIP3   OH247186   5.458   1.737  10.883  0.1608  0.1893  0.0149
 7664TIP3    H147187   5.518   1.750  10.809  1.4568 -2.9391  0.3745
 7664TIP3    H247188   5.513   1.700  10.952 -1.5415  0.5929  1.6567
 7665TIP3   OH247189   1.886   1.748  11.151 -0.4910  0.5518 -0.0758
 7665TIP3    H147190   1.848   1.662  11.171 -1.0932  0.9868  0.6996
 7665TIP3    H247191   1.834   1.780  11.077 -0.1628  0.1834 -0.4679
 7666TIP3   OH247192   0.334   3.513  10.622  0.1651 -0.2913  0.4863
 7666TIP3    H147193   0.267   3.454  10.657 -0.3487 -0.5904 -0.9351
 7666TIP3    H247194   0.405   3.454  10.596 -0.2186 -0.2788 -0.6428
 7667TIP3   OH247195   5.945   0.778   8.944  0.4086 -0.3693  0.0302
 7667TIP3    H147196   5.922   0.695   8.985  0.0648  0.4664  1.6121
 7667TIP3    H247197   5.862   0.824   8.934  0.6984  0.1688  0.0562
 7668TIP3   OH247198   4.620   4.985  10.653 -0.0435 -0.0290 -0.2034
 7668TIP3    H147199   4.674   4.939  10.718 -1.3107  0.5817  1.3542
 7668TIP3    H247200   4.605   4.920  10.584  2.1097 -0.4037 -0.3850
 7669TIP3   OH247201   2.943   4.174   9.308  0.5819  0.1050  0.0353
 7669TIP3    H147202   2.878   4.163   9.239 -0.7793  0.5950  1.1955
 7669TIP3    H247203   2.975   4.085   9.326  4.2446  0.2758 -4.1495
 7670TIP3   OH247204   4.382   2.420   9.721  0.4055 -0.3409  0.1424
 7670TIP3    H147205   4.437   2.375   9.657 -0.5213 -2.4989  0.7658
 7670TIP3    H247206   4.439   2.432   9.797  0.6195 -0.6119  0.0261
 7671TIP3   OH247207   1.539   3.735  10.808  0.2572 -0.1043  0.5970
 7671TIP3    H147208   1.494   3.805  10.762  0.6058 -0.9390 -1.0842
 7671TIP3    H247209   1.515   3.747  10.900 -2.7419 -0.0411 -0.1144
 7672TIP3   OH247210   0.495   0.137  10.548 -0.7631  0.5548  0.1111
 7672TIP3    H147211   0.493   0.171  10.637 -3.0232  1.0885 -0.0757
 7672TIP3    H247212   0.409   0.159  10.512 -0.0950 -0.0777 -2.0456
 7673TIP3   OH247213   2.688   2.253  11.170  0.8807 -0.3704 -0.5570
 7673TIP3    H147214   2.730   2.297  11.244 -0.4767 -1.9251  1.2106
 7673TIP3    H247215   2.638   2.322  11.127  1.3032  0.4715  0.2552
 7674TIP3   OH247216   0.617   6.233  10.475  0.1104 -0.4411  0.0312
 7674TIP3    H147217   0.648   6.245  10.564  0.2851  0.6362 -0.1701
 7674TIP3    H247218   0.538   6.180  10.484 -0.0122 -0.1260  0.8396
 7675TIP3   OH247219   3.414   2.215   8.502  0.4853 -0.1488 -0.5773
 7675TIP3    H147220   3.394   2.192   8.411 -1.6926 -1.8137  0.2341
 7675TIP3    H247221   3.466   2.141   8.534 -1.0067 -0.8705  0.2364
 7676TIP3   OH247222   0.964   2.141  11.273 -0.0939 -0.6202  0.7486
 7676TIP3    H147223   1.045   2.111  11.315  0.6857 -0.6060 -0.6746
 7676TIP3    H247224   0.980   2.128  11.180 -0.6117  2.0209  0.2081
 7677TIP3   OH247225   3.461   3.017   9.253  0.2209  0.6557  0.2949
 7677TIP3    H147226   3.501   3.007   9.166 -2.1741  3.0617 -1.2412
 7677TIP3    H247227   3.532   3.047   9.309  1.1847  2.4050 -1.7074
 7678TIP3   OH247228   0.664   6.412   8.953 -0.3812 -0.2597 -0.0896
 7678TIP3    H147229   0.682   6.450   9.039  0.4835 -1.1516  0.1467
 7678TIP3    H247230   0.700   6.475   8.891  1.0504 -0.6599  0.2971
 7679TIP3   OH247231   4.803   6.264  10.553 -0.3674  0.0663  0.3437
 7679TIP3    H147232   4.757   6.275  10.470  0.8344 -0.7821 -0.4653
 7679TIP3    H247233   4.761   6.188  10.594  1.4263 -1.8976 -1.2523
 7680TIP3   OH247234   0.542   3.915   9.054 -0.0848 -0.3319 -0.6654
 7680TIP3    H147235   0.593   3.920   9.134 -0.6284 -2.4089 -0.1385
 7680TIP3    H247236   0.459   3.957   9.076 -0.9585 -2.5486  0.5297
 7681TIP3   OH247237   4.876   2.790  10.968  0.1609 -0.2142 -0.7221
 7681TIP3    H147238   4.940   2.749  10.912  0.6631 -0.7856  0.2483
 7681TIP3    H247239   4.843   2.720  11.024 -1.2701  0.0721 -1.1478
 7682TIP3   OH247240   2.512   1.306  10.665 -0.5260 -0.3918  0.0255
 7682TIP3    H147241   2.435   1.285  10.614 -1.2763 -0.7430  1.2589
 7682TIP3    H247242   2.497   1.264  10.750  1.2515 -0.9131  0.1361
 7683TIP3   OH247243   5.811   0.608  10.839 -0.1494  0.1729  0.2520
 7683TIP3    H147244   5.798   0.641  10.928 -0.7923  1.6892 -0.3701
 7683TIP3    H247245   5.827   0.686  10.787  0.0156 -0.6799 -1.0082
 7684TIP3   OH247246   2.989   5.296   9.221  0.2562  0.6522 -0.1187
 7684TIP3    H147247   2.929   5.287   9.295 -0.5397 -0.4290 -0.8540
 7684TIP3    H247248   3.058   5.231   9.238  0.9439  1.5203  0.4585
 7685TIP3   OH247249   3.509   2.480  11.419 -0.1182  0.4443  0.5070
 7685TIP3    H147250   3.547   2.524  11.495 -0.6708  0.5467  0.7267
 7685TIP3    H247251   3.438   2.537  11.391 -1.3822 -0.6809  1.2953
 7686TIP3   OH247252   4.188   2.436   8.937  0.7117 -0.3481 -0.3889
 7686TIP3    H147253   4.226   2.449   9.023  0.9522  0.0010 -0.5472
 7686TIP3    H247254   4.241   2.489   8.878 -2.3471  3.5525 -0.0749
 7687TIP3   OH247255   3.415   2.374   9.465  0.1349 -0.0627 -0.3602
 7687TIP3    H147256   3.473   2.299   9.461  1.3611  0.7412  1.3313
 7687TIP3    H247257   3.383   2.376   9.556  1.0889  2.1069  0.0027
 7688TIP3   OH247258   1.587   0.700  10.921 -0.6768  0.7751 -0.1579
 7688TIP3    H147259   1.548   0.769  10.867 -0.7182  1.9609  1.3356
 7688TIP3    H247260   1.589   0.736  11.009 -1.2628 -1.3756  0.8051
 7689TIP3   OH247261   3.583   5.754  12.519 -0.5546 -0.3566 -0.6314
 7689TIP3    H147262   3.644   5.828  12.509 -0.7553 -0.0731  0.1216
 7689TIP3    H247263   3.613   5.689  12.456 -0.5855  0.5104 -1.5662
 7690TIP3   OH247264   5.372   0.875  10.405 -0.1114 -0.2685 -0.3902
 7690TIP3    H147265   5.381   0.806  10.339 -0.0156 -0.9143  0.2910
 7690TIP3    H247266   5.382   0.830  10.489  0.2229  0.6180  0.0579
 7691TIP3   OH247267   1.017   4.702  10.038  0.2538  0.6717 -0.2864
 7691TIP3    H147268   0.930   4.723  10.074  0.7610  0.6785  0.9925
 7691TIP3    H247269   1.009   4.720   9.944 -0.8535  1.5698 -0.0461
 7692TIP3   OH247270   2.784   1.425   9.384 -0.3972 -0.1729 -0.5561
 7692TIP3    H147271   2.817   1.360   9.446 -0.4774  0.8618  0.6226
 7692TIP3    H247272   2.862   1.467   9.349 -0.3060 -1.5339 -2.0691
 7693TIP3   OH247273   6.740   4.845  18.375 -0.3659  0.2758 -0.0257
 7693TIP3    H147274   6.674   4.795  18.423 -1.5297  0.1683 -1.6919
 7693TIP3    H247275   6.805   4.779  18.350 -0.6696  0.0193 -0.1471
 7694TIP3   OH247276   2.222   6.206   8.723 -0.2797  0.6953 -0.0231
 7694TIP3    H147277   2.203   6.224   8.815 -0.0574  0.7173  0.0178
 7694TIP3    H247278   2.155   6.143   8.697 -1.2154  1.7431 -0.2323
 7695TIP3   OH247279   6.035   6.331   9.493  0.4698  0.4230  0.0868
 7695TIP3    H147280   5.946   6.311   9.521  0.5876 -1.5282 -0.7274
 7695TIP3    H247281   6.041   6.426   9.496 -1.8548  0.6436 -0.5022
 7696TIP3   OH247282   4.563   2.214  10.673  0.0528 -0.2207 -0.2443
 7696TIP3    H147283   4.658   2.224  10.676 -0.1047  1.2953  0.3565
 7696TIP3    H247284   4.549   2.140  10.613  1.5213  1.0629 -2.3026
 7697TIP3   OH247285   2.535   3.048  10.375 -0.1384  0.3586  0.1533
 7697TIP3    H147286   2.446   3.060  10.409 -0.2929 -0.0726 -0.0890
 7697TIP3    H247287   2.532   3.088  10.288  0.2644  1.4877  0.6359
 7698TIP3   OH247288   5.045   6.403  12.189 -0.2847  0.0656 -0.3225
 7698TIP3    H147289   5.079   6.478  12.237 -1.0373  1.5079 -1.9082
 7698TIP3    H247290   5.123   6.360  12.153  0.1825 -0.2265  0.9854
 7699TIP3   OH247291   3.038   0.300   9.928  0.3346 -0.0584  0.8905
 7699TIP3    H147292   2.966   0.298   9.992 -0.9805  0.4866 -0.5195
 7699TIP3    H247293   3.070   0.209   9.926 -2.4704 -1.1229 -0.7662
 7700TIP3   OH247294   6.212   0.614  10.785 -0.0218 -0.3247 -0.3292
 7700TIP3    H147295   6.166   0.543  10.830  1.7683 -0.3813  1.6108
 7700TIP3    H247296   6.249   0.573  10.707 -1.4168 -0.7754 -0.7858
 7701TIP3   OH247297   6.022   3.438   9.142 -0.0388 -0.3000  0.1065
 7701TIP3    H147298   6.091   3.479   9.194 -1.5752  2.5330  0.0963
 7701TIP3    H247299   6.018   3.348   9.175  1.9358  0.1582  1.8253
 7702TIP3   OH247300   1.852   6.626  10.503  0.2589 -0.3227  0.3685
 7702TIP3    H147301   1.792   6.700  10.510  0.3104  0.0178 -1.9333
 7702TIP3    H247302   1.822   6.564  10.569 -2.8429 -0.2797 -0.8457
 7703TIP3   OH247303   6.289   0.409   8.855 -0.0124  0.0631  0.3997
 7703TIP3    H147304   6.282   0.504   8.851 -0.3311  0.0056 -2.5390
 7703TIP3    H247305   6.376   0.390   8.819 -0.6130 -0.8092 -0.6313
 7704TIP3   OH247306   3.121   5.538   9.114 -0.4523  0.7671 -0.1114
 7704TIP3    H147307   3.078   5.458   9.144  0.4867  0.7505  1.2513
 7704TIP3    H247308   3.048   5.596   9.090 -1.1747 -0.0218  0.1019
 7705TIP3   OH247309   2.933   1.538   9.998  0.0651  0.0762  0.1905
 7705TIP3    H147310   2.871   1.608  10.019 -1.2134 -1.1879  0.8317
 7705TIP3    H247311   2.957   1.500  10.082 -0.5369 -1.2848 -0.2143
 7706TIP3   OH247312   6.744   4.225   9.256 -0.0614  0.2372 -0.3776
 7706TIP3    H147313   6.761   4.142   9.212  0.7457 -0.2429  0.7948
 7706TIP3    H247314   6.811   4.231   9.324 -0.0733  1.8816 -0.4614
 7707TIP3   OH247315   2.698   4.531  10.991 -0.1182 -0.2038  0.0412
 7707TIP3    H147316   2.628   4.500  10.933  1.6678 -2.5914 -1.0253
 7707TIP3    H247317   2.736   4.606  10.945 -0.6218 -0.2044 -0.3891
 7708TIP3   OH247318   3.036   5.442   9.580 -0.2424  0.3117  0.5174
 7708TIP3    H147319   3.010   5.459   9.670 -0.8520 -1.0767  0.6233
 7708TIP3    H247320   3.127   5.414   9.586 -0.2748  0.2447  0.6893
 7709TIP3   OH247321   4.077   5.425   9.422  0.1711 -0.1103  0.0073
 7709TIP3    H147322   4.163   5.384   9.428  0.5679  0.4338 -1.5953
 7709TIP3    H247323   4.037   5.387   9.344 -0.7396  0.2169  0.2935
 7710TIP3   OH247324   5.284   6.537  11.715 -0.4385  0.1331  0.2534
 7710TIP3    H147325   5.341   6.592  11.769 -1.4818  1.4809  0.0225
 7710TIP3    H247326   5.344   6.474  11.674  0.4867 -0.4084  2.2938
 7711TIP3   OH247327   2.897   2.987  10.340 -0.0701 -0.3876 -0.0226
 7711TIP3    H147328   2.909   2.919  10.273 -0.9549  0.2297 -0.8386
 7711TIP3    H247329   2.867   2.939  10.417 -1.1701 -0.9034 -0.7345
 7712TIP3   OH247330   1.593   0.173  10.360  0.4243 -0.3397 -0.8672
 7712TIP3    H147331   1.541   0.093  10.353 -0.8642  0.3976 -0.0823
 7712TIP3    H247332   1.640   0.164  10.443 -1.0649  0.4377  0.1097
 7713TIP3   OH247333   5.567   1.989  11.032 -0.3247 -0.1426  0.1104
 7713TIP3    H147334   5.635   1.921  11.028 -0.5793 -0.3551 -1.1358
 7713TIP3    H247335   5.514   1.974  10.954 -0.6890  1.1909  0.0792
 7714TIP3   OH247336   5.201   1.481   9.146  0.0220 -0.1182 -0.0207
 7714TIP3    H147337   5.110   1.482   9.176 -0.1702  1.1606 -0.5508
 7714TIP3    H247338   5.200   1.430   9.066  0.1973 -1.9769  1.1125
 7715TIP3   OH247339   1.355   3.668   9.142 -0.0410  0.2536  0.2402
 7715TIP3    H147340   1.350   3.708   9.229 -0.6574  0.7210 -0.0068
 7715TIP3    H247341   1.398   3.734   9.088  1.2828 -0.4334  0.4059
 7716TIP3   OH247342   5.920   3.490   9.720  0.2103 -1.0015 -0.4816
 7716TIP3    H147343   5.991   3.444   9.763 -0.4170 -1.8294 -0.2988
 7716TIP3    H247344   5.914   3.574   9.766  1.7664 -0.4575 -1.2266
 7717TIP3   OH247345   2.409   3.851   9.054  0.2477  0.6103 -0.1515
 7717TIP3    H147346   2.392   3.874   9.145 -0.3111  0.8034 -0.3004
 7717TIP3    H247347   2.501   3.871   9.041  0.0067  1.8490 -0.0058
 7718TIP3   OH247348   1.013   5.033   8.460  0.0916 -0.3855 -0.0213
 7718TIP3    H147349   1.087   4.985   8.424 -0.1221 -2.1320  1.6884
 7718TIP3    H247350   1.048   5.080   8.535 -0.1096  0.5286 -0.4930
 7719TIP3   OH247351   0.312   0.455   9.745  0.3165 -0.1912  0.3775
 7719TIP3    H147352   0.342   0.487   9.830  0.8043 -1.0688  0.5497
 7719TIP3    H247353   0.291   0.534   9.696 -1.4583  0.3090  1.8330
 7720TIP3   OH247354   0.507   4.546   9.567  0.0978 -0.1291 -0.0358
 7720TIP3    H147355   0.480   4.638   9.570  1.5691  0.3213  0.0866
 7720TIP3    H247356   0.434   4.498   9.606 -0.3129  1.0837  0.7194
 7721TIP3   OH247357   1.389   1.307   9.616  0.1928 -0.1920  0.3877
 7721TIP3    H147358   1.429   1.221   9.627  1.1199  0.4166  1.9938
 7721TIP3    H247359   1.333   1.318   9.693  1.2252  1.2251  0.9796
 7722TIP3   OH247360   5.421   0.271   9.141 -0.7071  0.6667 -0.0959
 7722TIP3    H147361   5.462   0.358   9.149 -0.9241  0.9563 -1.7183
 7722TIP3    H247362   5.328   0.290   9.127 -1.7947 -0.0076  4.6714
 7723TIP3   OH247363   6.297   2.868  11.434 -0.2703  0.1128  0.0705
 7723TIP3    H147364   6.220   2.915  11.465 -0.1585  0.6363 -0.4339
 7723TIP3    H247365   6.279   2.776  11.456 -1.6117  0.0484 -1.1570
 7724TIP3   OH247366   2.436   3.814  10.918  0.4728  0.5935  0.2724
 7724TIP3    H147367   2.500   3.855  10.976 -0.0669 -0.0763  1.3764
 7724TIP3    H247368   2.477   3.731  10.892  0.3915  0.5327  0.3359
 7725TIP3   OH247369   4.107   3.856  11.761 -0.2793  0.0868  0.1406
 7725TIP3    H147370   4.167   3.782  11.765  0.4403  0.5777 -0.9696
 7725TIP3    H247371   4.070   3.853  11.673 -2.7950 -0.8547  1.1541
 7726TIP3   OH247372   1.623   5.660  12.130 -0.0330  0.2047 -0.3836
 7726TIP3    H147373   1.634   5.567  12.109  0.5523 -0.0199  0.8423
 7726TIP3    H247374   1.707   5.686  12.169 -0.2178  1.2314 -0.6380
 7727TIP3   OH247375   2.066   6.374  10.091 -0.0605 -0.0614  0.2341
 7727TIP3    H147376   2.155   6.411  10.088 -0.3722  0.6561 -0.4442
 7727TIP3    H247377   2.008   6.450  10.083 -0.7208 -0.6407 -0.7348
 7728TIP3   OH247378   1.873   0.436   8.615 -0.4246  0.9449  0.1613
 7728TIP3    H147379   1.790   0.403   8.580 -0.3440  1.2454 -0.3123
 7728TIP3    H247380   1.868   0.531   8.605  0.7349  0.8730 -1.6004
 7729TIP3   OH247381   4.890   4.145   8.973 -0.3280 -0.4903  0.6303
 7729TIP3    H147382   4.812   4.170   8.924 -2.3877  1.1380  4.3534
 7729TIP3    H247383   4.861   4.074   9.030  0.9441 -0.0291  1.9135
 7730TIP3   OH247384   1.402   6.216   9.480 -0.2060  0.3457 -0.2470
 7730TIP3    H147385   1.307   6.203   9.486 -0.1232  0.0897  0.8418
 7730TIP3    H247386   1.423   6.271   9.556  0.3399  1.5782 -1.2610
 7731TIP3   OH247387   4.122   3.703   9.169 -0.3188 -0.0528 -0.7166
 7731TIP3    H147388   4.028   3.710   9.185 -0.7720 -2.1191 -2.1364
 7731TIP3    H247389   4.155   3.793   9.180 -1.8229  0.1786  3.1442
 7732TIP3   OH247390   0.065   1.647   8.937  0.5637  0.4524 -0.2726
 7732TIP3    H147391   0.022   1.604   9.011 -0.8761  2.2333 -0.0076
 7732TIP3    H247392   0.090   1.733   8.970 -0.9088  1.6279 -2.0571
 7733TIP3   OH247393   2.130   6.240   9.656  0.9302  0.0259  0.1808
 7733TIP3    H147394   2.093   6.219   9.742 -0.5554 -2.2198 -0.9200
 7733TIP3    H247395   2.169   6.327   9.668 -1.9153  1.1943  2.3343
 7734TIP3   OH247396   5.412   3.072   9.999 -0.0098  0.8702 -0.4079
 7734TIP3    H147397   5.381   3.157   9.971 -1.4095  2.4518  4.8616
 7734TIP3    H247398   5.333   3.018  10.008  0.6510 -0.4049 -1.7223
 7735TIP3   OH247399   4.651   6.183  10.037  0.4294 -0.0229  0.0192
 7735TIP3    H147400   4.682   6.095  10.016 -0.8842 -0.5312  0.1623
 7735TIP3    H247401   4.721   6.241  10.006 -0.1503 -0.8731 -3.2246
 7736TIP3   OH247402   0.795   6.041  10.333  0.4945  0.4157 -0.4406
 7736TIP3    H147403   0.858   5.982  10.374 -0.7288 -0.7813 -0.2269
 7736TIP3    H247404   0.746   6.079  10.406 -0.2235 -0.0400 -0.6763
 7737TIP3   OH247405   3.002   6.541  10.769 -1.0235  0.1312 -0.4365
 7737TIP3    H147406   2.977   6.520  10.858 -2.1397  0.9846 -0.5318
 7737TIP3    H247407   3.095   6.564  10.775 -1.1537  0.4285  0.5474
 7738TIP3   OH247408   4.478   1.583  10.858 -0.5347 -0.6472 -0.2192
 7738TIP3    H147409   4.482   1.649  10.927  3.2286 -0.5867 -0.2851
 7738TIP3    H247410   4.401   1.607  10.806 -0.1072  2.8586  0.5451
 7739TIP3   OH247411   5.813   4.481  10.799 -0.0431 -0.3224 -0.4498
 7739TIP3    H147412   5.754   4.406  10.794  0.5097 -0.7909 -0.1750
 7739TIP3    H247413   5.771   4.541  10.861 -0.4474 -0.4444 -0.6046
 7740TIP3   OH247414   0.479   5.232   8.989 -1.0280 -0.3879  0.1885
 7740TIP3    H147415   0.453   5.186   9.069  1.0333 -0.1621  1.0609
 7740TIP3    H247416   0.450   5.176   8.918  1.2762 -3.0853  1.2025
 7741TIP3   OH247417   1.396   0.522   9.831  0.3511  0.1159 -0.4840
 7741TIP3    H147418   1.309   0.554   9.808  0.8014  1.4211 -0.4343
 7741TIP3    H247419   1.388   0.493   9.922 -0.0399  0.2042 -0.4888
 7742TIP3   OH247420   0.434   6.253  11.228  0.1286 -0.6218  0.3900
 7742TIP3    H147421   0.463   6.344  11.241  2.3469 -1.1757 -0.2917
 7742TIP3    H247422   0.392   6.230  11.311 -3.6950  2.0412 -0.5366
 7743TIP3   OH247423   3.276   2.298  11.997 -0.0600 -0.4432 -0.1246
 7743TIP3    H147424   3.363   2.283  11.961  0.0049 -2.0104  0.6212
 7743TIP3    H247425   3.233   2.212  11.995 -1.1614  0.0588  0.6183
 7744TIP3   OH247426   1.731   3.464   9.928  0.1699 -0.1024  0.7240
 7744TIP3    H147427   1.656   3.405   9.916 -0.4319  0.8978 -0.6826
 7744TIP3    H247428   1.715   3.507  10.012 -1.4470  0.9271 -0.0765
 7745TIP3   OH247429   4.339   4.483  10.298  0.0045  0.5780 -0.1045
 7745TIP3    H147430   4.356   4.467  10.391  0.9090  0.1143 -0.3458
 7745TIP3    H247431   4.270   4.550  10.298  0.3927  0.9964  0.8957
 7746TIP3   OH247432   3.794   4.447  10.293 -0.2878 -0.9010 -0.4977
 7746TIP3    H147433   3.782   4.519  10.230  1.2845  1.3315  1.5575
 7746TIP3    H247434   3.875   4.404  10.265  0.5537  0.2531  0.1038
 7747TIP3   OH247435   5.920   5.760  11.184  0.1208  0.2254 -1.0275
 7747TIP3    H147436   5.837   5.740  11.141  1.0166 -0.0022 -2.7596
 7747TIP3    H247437   5.986   5.716  11.131  1.4429  1.1759 -0.2519
 7748TIP3   OH247438   0.023   2.493  10.368 -0.0345  0.1874 -0.0625
 7748TIP3    H147439  -0.016   2.426  10.424  0.4353 -0.7213 -0.7949
 7748TIP3    H247440   0.115   2.495  10.394  0.2832 -0.5376 -1.0380
 7749TIP3   OH247441   3.872   1.257  10.021  0.3018 -0.2914  0.1252
 7749TIP3    H147442   3.857   1.330  10.080 -0.6744 -0.0532 -0.4000
 7749TIP3    H247443   3.962   1.268   9.992 -0.3325  1.7073 -1.2779
 7750TIP3   OH247444   2.422   6.635  11.191 -0.2231 -0.0937  0.0591
 7750TIP3    H147445   2.511   6.668  11.187 -0.1277 -0.1403  1.4571
 7750TIP3    H247446   2.429   6.554  11.241 -0.9970 -0.3147 -0.1767
 7751TIP3   OH247447   1.693   4.672  10.516  0.0103 -0.2649 -0.1424
 7751TIP3    H147448   1.650   4.711  10.592  1.9635 -1.4292  1.6826
 7751TIP3    H247449   1.629   4.609  10.483 -0.2059 -1.1530  1.7930
 7752TIP3   OH247450   2.910   6.336   8.878  0.4383  0.1979  0.2270
 7752TIP3    H147451   2.983   6.342   8.940 -0.2373 -1.0244  1.1950
 7752TIP3    H247452   2.886   6.427   8.859 -0.0128  0.6386  2.6111
 7753TIP3   OH247453   5.206   2.976  11.539  0.1893  0.2330 -0.2553
 7753TIP3    H147454   5.301   2.982  11.549  0.1415  1.9966 -0.5550
 7753TIP3    H247455   5.173   2.974  11.628  0.5250 -1.6602 -0.1263
 7754TIP3   OH247456   2.428   5.555  12.602 -0.5028  0.2406  0.5626
 7754TIP3    H147457   2.454   5.620  12.536 -1.0030 -0.1258 -0.0147
 7754TIP3    H247458   2.483   5.479  12.583  0.0442  0.4734  1.2040
 7755TIP3   OH247459   6.507   5.129   8.824  0.3623  0.0292 -0.4717
 7755TIP3    H147460   6.518   5.185   8.900  3.1196  0.1243 -0.8616
 7755TIP3    H247461   6.546   5.179   8.751  1.2574 -1.6126 -1.1664
 7756TIP3   OH247462   6.334   0.015  11.784 -0.5460 -0.3938  0.0651
 7756TIP3    H147463   6.423   0.008  11.818 -0.2110  0.8020 -0.5163
 7756TIP3    H247464   6.318   0.110  11.779 -1.5676 -0.5893 -0.5536
 7757TIP3   OH247465   2.258   1.177   9.117  0.2302  0.6419  0.6112
 7757TIP3    H147466   2.170   1.153   9.144 -0.2244 -0.4569 -1.5737
 7757TIP3    H247467   2.309   1.097   9.129  0.0276  0.1356 -1.4884
 7758TIP3   OH247468   6.337   2.656   8.909 -0.2791 -0.7483  0.4138
 7758TIP3    H147469   6.400   2.588   8.890 -2.6251 -2.5592 -1.6510
 7758TIP3    H247470   6.285   2.622   8.981 -1.5960 -1.3384 -0.7633
 7759TIP3   OH247471   2.466   4.686   9.119 -0.1364 -0.6485 -0.5866
 7759TIP3    H147472   2.503   4.774   9.133  0.7845 -1.1966  0.5447
 7759TIP3    H247473   2.441   4.687   9.026  0.5757  0.5528 -0.8044
 7760TIP3   OH247474   5.916   1.266  11.523 -0.0981  0.4415 -0.1322
 7760TIP3    H147475   5.859   1.325  11.472 -0.4270 -0.8364 -1.2915
 7760TIP3    H247476   5.862   1.238  11.596 -0.2802  0.7956 -0.1287
 7761TIP3   OH247477   6.028   0.498  10.975  0.9804 -1.1573 -0.1987
 7761TIP3    H147478   5.984   0.526  10.895 -0.0397 -2.5757 -0.1692
 7761TIP3    H247479   6.039   0.579  11.026  0.0015 -0.5115 -0.9746
 7762TIP3   OH247480   5.039   2.879   9.141 -0.5397  0.2427 -0.3050
 7762TIP3    H147481   5.120   2.923   9.117 -0.6854  0.8435  0.2948
 7762TIP3    H247482   5.034   2.886   9.236 -1.2784  0.1755 -0.3283
 7763TIP3   OH247483   3.796   3.318  10.121  0.1465 -0.0027 -0.0184
 7763TIP3    H147484   3.803   3.328  10.026  1.6318 -0.5536 -0.0049
 7763TIP3    H247485   3.746   3.237  10.133 -1.8124  1.1100 -0.2682
 7764TIP3   OH247486   2.350   4.373   9.518  0.3033 -0.6069 -0.5577
 7764TIP3    H147487   2.358   4.455   9.468 -0.0298  0.0179  0.4006
 7764TIP3    H247488   2.433   4.328   9.502  1.2256  0.7107  0.2749
 7765TIP3   OH247489   2.109   5.720   8.735 -0.0265  0.0361  0.2906
 7765TIP3    H147490   2.162   5.677   8.668 -0.5978 -0.2773  0.0308
 7765TIP3    H247491   2.151   5.696   8.818 -0.2119 -0.8659  0.1339
 7766TIP3   OH247492   1.804   1.173  11.557  0.2110 -0.6828 -0.0719
 7766TIP3    H147493   1.877   1.223  11.593 -0.6415 -0.5904  1.6546
 7766TIP3    H247494   1.810   1.088  11.599 -0.2847 -0.8936 -0.4149
 7767TIP3   OH247495   2.828   2.384  11.385  0.6012  0.7306 -0.0817
 7767TIP3    H147496   2.827   2.478  11.369  2.3655  0.9348  0.7673
 7767TIP3    H247497   2.810   2.376  11.479  0.9017  0.2645 -0.0620
 7768TIP3   OH247498   6.048   3.717   9.513  0.3228 -0.4595 -0.8643
 7768TIP3    H147499   6.054   3.705   9.607 -0.1898 -2.0470 -1.0137
 7768TIP3    H247500   6.073   3.809   9.499  2.8077 -0.8254  0.5649
 7769TIP3   OH247501   4.308   3.334  10.129 -0.1576 -0.1171 -0.0036
 7769TIP3    H147502   4.311   3.407  10.068 -1.5273  1.4134  1.6528
 7769TIP3    H247503   4.215   3.320  10.146  0.1781 -0.2643  1.9612
 7770TIP3   OH247504   5.035   6.618  11.577 -0.2940 -0.7997 -0.2784
 7770TIP3    H147505   5.118   6.582  11.609 -0.3805 -1.2846 -0.5798
 7770TIP3    H247506   5.057   6.704  11.543  0.0251 -0.7916 -0.0519
 7771TIP3   OH247507   2.986   5.405   9.859  0.5310  0.1998  0.3373
 7771TIP3    H147508   2.982   5.374   9.949 -0.5767  0.5260  0.4150
 7771TIP3    H247509   2.917   5.470   9.853  1.4200  1.1131 -0.4100
 7772TIP3   OH247510   6.653   6.119  10.909  0.1437  0.4431 -0.1018
 7772TIP3    H147511   6.651   6.141  11.002 -0.4947  0.0764 -0.0211
 7772TIP3    H247512   6.742   6.138  10.881  0.1547  1.1876  0.4322
 7773TIP3   OH247513   5.611   4.091  11.975  0.1568  0.1335 -0.8742
 7773TIP3    H147514   5.533   4.136  11.944 -1.6155 -1.2081  1.3185
 7773TIP3    H247515   5.662   4.158  12.020 -1.4412  0.4448  0.5841
 7774TIP3   OH247516   4.678   4.558  10.263 -0.0812 -0.2157  0.3540
 7774TIP3    H147517   4.616   4.533  10.331  0.0660 -0.6530  0.3311
 7774TIP3    H247518   4.647   4.513  10.185 -1.1040  1.4453 -0.2401
 7775TIP3   OH247519   2.368   2.439   8.874 -0.0116  0.3933  0.1862
 7775TIP3    H147520   2.384   2.377   8.803  1.0500  1.6024 -0.6717
 7775TIP3    H247521   2.368   2.385   8.953  1.4389 -0.6361 -0.4803
 7776TIP3   OH247522   2.827   3.663   9.022 -0.0983  0.0529  0.1374
 7776TIP3    H147523   2.809   3.668   9.116 -0.6870 -1.0876  0.0951
 7776TIP3    H247524   2.829   3.570   9.002 -1.0862  0.2799 -1.1755
 7777TIP3   OH247525   5.389   6.621   9.347 -0.1608 -0.3434  0.4023
 7777TIP3    H147526   5.403   6.690   9.411 -1.4664 -0.0327  0.3854
 7777TIP3    H247527   5.356   6.667   9.269 -1.6022 -1.0292  0.5879
 7778TIP3   OH247528   1.932   3.849   9.684  0.1394  0.2144 -0.2284
 7778TIP3    H147529   2.000   3.836   9.618  1.1146  1.7997  0.4171
 7778TIP3    H247530   1.861   3.894   9.638 -0.5709 -1.4921 -0.9142
 7779TIP3   OH247531   4.275   3.578   8.662  0.0039  0.2767  0.5741
 7779TIP3    H147532   4.261   3.508   8.726  0.4259 -0.0085  0.3527
 7779TIP3    H247533   4.315   3.535   8.587  2.0790  1.0488  1.1696
 7780TIP3   OH247534   3.205   3.682  10.861  0.1860 -0.3449  0.1862
 7780TIP3    H147535   3.132   3.743  10.855  0.4514  0.0482  0.9573
 7780TIP3    H247536   3.183   3.612  10.799 -0.9565 -0.3489  0.5916
 7781TIP3   OH247537   0.338   6.307   8.591 -0.1099  0.5370  0.1426
 7781TIP3    H147538   0.426   6.321   8.557  0.7002  1.7923  2.5503
 7781TIP3    H247539   0.350   6.252   8.669 -1.7395 -1.1443 -0.6989
 7782TIP3   OH247540   0.078   4.406  10.153 -0.7736 -0.0176  0.1204
 7782TIP3    H147541   0.147   4.463  10.186 -0.3451  1.4064 -2.8903
 7782TIP3    H247542   0.008   4.412  10.217  0.7344  0.8532  1.7636
 7783TIP3   OH247543   2.688   2.401  10.031 -0.1290  0.6856  0.0287
 7783TIP3    H147544   2.783   2.393  10.034 -0.1669  0.4645  0.9517
 7783TIP3    H247545   2.668   2.417   9.938  0.9017  1.9544 -0.0083
 7784TIP3   OH247546   4.443   3.984   9.111 -0.1483 -0.7955  0.2028
 7784TIP3    H147547   4.360   3.946   9.140 -0.1228 -3.2425 -2.5281
 7784TIP3    H247548   4.418   4.046   9.042  0.2745 -1.2981 -0.4030
 7785TIP3   OH247549   2.815   1.223  11.636 -0.4594 -0.1664  0.3138
 7785TIP3    H147550   2.858   1.138  11.633  0.4078  0.2776 -0.3434
 7785TIP3    H247551   2.726   1.204  11.664 -0.0466 -1.1963  0.9793
 7786TIP3   OH247552   5.939   6.509   9.694  0.1113  0.2475 -0.1982
 7786TIP3    H147553   5.885   6.433   9.674 -1.5315  1.0817  0.9159
 7786TIP3    H247554   5.907   6.578   9.636 -1.1227  1.1691  1.4709
 7787TIP3   OH247555   4.123   5.810  11.055  0.1753 -0.0248 -0.2489
 7787TIP3    H147556   4.092   5.812  11.146 -3.9528 -0.7700 -1.4157
 7787TIP3    H247557   4.152   5.720  11.041 -1.0191 -0.4577 -0.1051
 7788TIP3   OH247558   3.361   6.071   9.025  0.5080  0.1526  0.3813
 7788TIP3    H147559   3.438   6.127   9.018 -0.3758  1.4351  0.4170
 7788TIP3    H247560   3.379   6.014   9.100  1.1497  0.8852  0.8002
 7789TIP3   OH247561   2.761   0.171   9.872 -0.1485  0.4761 -0.3999
 7789TIP3    H147562   2.795   0.085   9.893  1.2311  1.1697  0.3299
 7789TIP3    H247563   2.724   0.204   9.954  1.1088  1.3526 -0.1609
 7790TIP3   OH247564   3.816   6.294  10.745  0.1212  0.2210  0.2201
 7790TIP3    H147565   3.737   6.301  10.798 -0.1338 -3.6053  0.6456
 7790TIP3    H247566   3.790   6.327  10.659 -1.1261  1.3856  0.9971
 7791TIP3   OH247567   4.648   5.004   9.836 -0.4350  0.1414 -0.0962
 7791TIP3    H147568   4.572   4.977   9.785 -0.7775 -0.5763  0.7786
 7791TIP3    H247569   4.721   4.955   9.799 -0.4149  0.6831 -0.8066
 7792TIP3   OH247570   2.860   6.229  12.093  0.5989  0.4725 -0.1331
 7792TIP3    H147571   2.843   6.323  12.105  2.6946  0.8542  0.2649
 7792TIP3    H247572   2.895   6.201  12.177  1.0152 -0.4215 -0.6014
 7793TIP3   OH247573   2.860   4.489  10.131 -0.5862 -0.1301  0.3353
 7793TIP3    H147574   2.782   4.520  10.176  0.3216  0.0619  1.8573
 7793TIP3    H247575   2.903   4.569  10.100  0.9238  0.1449  2.8549
 7794TIP3   OH247576   4.014   3.497   9.920  0.1221  0.2320  0.2293
 7794TIP3    H147577   4.029   3.530  10.009 -0.0101 -1.4164  0.8916
 7794TIP3    H247578   4.098   3.459   9.895 -0.1628 -0.3087  0.0933
 7795TIP3   OH247579   0.682   5.765  12.083 -0.2355  0.0074 -0.0512
 7795TIP3    H147580   0.722   5.692  12.130  2.4168  1.2665 -0.1402
 7795TIP3    H247581   0.590   5.741  12.074  0.1995 -2.5272  1.3667
 7796TIP3   OH247582   3.209   4.738   9.447  0.5348  0.4028  0.8643
 7796TIP3    H147583   3.159   4.740   9.528  0.2580 -0.0184  0.7111
 7796TIP3    H247584   3.146   4.708   9.381  0.5914  1.3069  0.3772
 7797TIP3   OH247585   0.303   5.017  12.201 -0.0444 -0.3597  0.0359
 7797TIP3    H147586   0.316   5.003  12.295 -1.1371 -0.0862  0.2468
 7797TIP3    H247587   0.315   5.111  12.189  2.7391 -0.6927 -0.5954
 7798TIP3   OH247588   1.335   4.066   9.816 -0.4263 -0.1631 -0.3855
 7798TIP3    H147589   1.337   4.144   9.760 -1.4879 -0.7399 -1.2610
 7798TIP3    H247590   1.300   4.098   9.899 -1.4617  0.1888 -0.9372
 7799TIP3   OH247591   5.177   1.416  10.903 -0.3155  0.4017  0.0492
 7799TIP3    H147592   5.158   1.323  10.908 -0.8389  0.5265  0.5273
 7799TIP3    H247593   5.190   1.433  10.810  0.0347 -0.1912 -0.0165
 7800TIP3   OH247594   1.133   3.927  11.768  0.8636  0.3926  0.2696
 7800TIP3    H147595   1.137   3.840  11.728  0.8066  0.4327  0.1754
 7800TIP3    H247596   1.046   3.960  11.745  0.4200 -0.0093  1.3162
 7801TIP3   OH247597   5.593   4.879  10.629 -0.3905 -0.1770  0.4372
 7801TIP3    H147598   5.621   4.787  10.630  0.3476  0.0378  1.5217
 7801TIP3    H247599   5.526   4.885  10.697 -1.0147 -0.0645 -0.1741
 7802TIP3   OH247600   0.380   5.273  11.579 -0.3473  0.4831  0.1223
 7802TIP3    H147601   0.370   5.177  11.575 -0.6884  0.4264  1.6262
 7802TIP3    H247602   0.325   5.306  11.508 -0.9083 -0.4112  0.1239
 7803TIP3   OH247603   1.417   0.070  11.947 -1.1369 -0.3784  0.2481
 7803TIP3    H147604   1.362   0.116  12.010 -0.8442  1.2690 -0.6372
 7803TIP3    H247605   1.495   0.046  11.997 -1.8278 -1.0487  1.0338
 7804TIP3   OH247606   2.552   2.873  10.763  0.2575  0.0082 -0.8961
 7804TIP3    H147607   2.626   2.879  10.702  1.1086 -0.0101  0.1041
 7804TIP3    H247608   2.540   2.779  10.776 -0.5764 -0.0277 -1.7738
 7805TIP3   OH247609   4.324   6.519   9.706  0.0342  0.1662 -0.4307
 7805TIP3    H147610   4.360   6.434   9.681  0.1518 -0.0552  0.4572
 7805TIP3    H247611   4.231   6.503   9.717 -0.0281  0.2792 -0.7829
 7806TIP3   OH247612   4.056   5.985  10.480 -1.2054 -0.4326  0.1006
 7806TIP3    H147613   3.970   6.014  10.510 -1.3568 -0.0576 -0.6664
 7806TIP3    H247614   4.072   6.036  10.400  0.5275  0.8406  1.1789
 7807TIP3   OH247615   5.932   5.128  10.616 -0.2503 -0.1861 -0.1119
 7807TIP3    H147616   5.957   5.146  10.525  0.4601  1.0390  0.3019
 7807TIP3    H247617   5.970   5.200  10.666 -3.3060  0.9456  0.7813
 7808TIP3   OH247618   4.118   2.730  11.101  0.2328 -0.2856 -0.8085
 7808TIP3    H147619   4.132   2.666  11.170 -0.2241  1.1797  0.7075
 7808TIP3    H247620   4.031   2.710  11.067  0.2041 -0.6400 -0.5321
 7809TIP3   OH247621   6.006   5.125  10.333  0.1120  0.5400  0.1970
 7809TIP3    H147622   6.093   5.163  10.327  0.3008 -0.1245 -2.5442
 7809TIP3    H247623   5.964   5.148  10.250 -1.8254 -0.3599  0.8624
 7810TIP3   OH247624   0.371   3.382   8.756  0.1511  0.0910  0.1380
 7810TIP3    H147625   0.379   3.407   8.664 -1.0557  1.6502  0.4204
 7810TIP3    H247626   0.458   3.397   8.793  0.4733  0.0831 -0.6134
 7811TIP3   OH247627   4.571   0.336   9.992  0.9851 -0.2662 -0.3015
 7811TIP3    H147628   4.629   0.317   9.918  0.2677  0.2899 -1.0401
 7811TIP3    H247629   4.488   0.360   9.951  0.9135  1.2464  0.6376
 7812TIP3   OH247630   4.800   2.137   9.613 -0.2664  0.1015 -0.3019
 7812TIP3    H147631   4.860   2.066   9.634 -1.3291 -0.8936 -0.4943
 7812TIP3    H247632   4.856   2.209   9.587  0.8698 -0.4249  0.6188
 7813TIP3   OH247633   6.246   5.966  10.266  0.3888  0.2620 -0.2412
 7813TIP3    H147634   6.218   6.040  10.320  0.5487 -0.7825  1.3143
 7813TIP3    H247635   6.341   5.974  10.262  0.6296 -0.9710  1.6925
 7814TIP3   OH247636   5.714   3.293  11.583 -0.4789  0.2339 -0.0948
 7814TIP3    H147637   5.710   3.206  11.622  0.2919 -1.1090 -2.7423
 7814TIP3    H247638   5.796   3.293  11.533 -0.2753  2.6417  0.0980
 7815TIP3   OH247639   2.200   5.174  11.340  0.1594 -0.7429 -0.3441
 7815TIP3    H147640   2.144   5.236  11.387 -0.6853 -1.1673 -0.7644
 7815TIP3    H247641   2.276   5.226  11.312 -0.5890  0.1300 -0.7851
 7816TIP3   OH247642   6.726   5.582   8.950  0.3867 -0.1618  0.2209
 7816TIP3    H147643   6.633   5.560   8.957  0.5673 -0.5300  1.9717
 7816TIP3    H247644   6.741   5.644   9.021  1.8449 -1.5576  1.2267
 7817TIP3   OH247645   5.135   2.993   9.625  0.6370  0.1893  0.7916
 7817TIP3    H147646   5.069   3.021   9.689 -0.3254 -0.0790 -0.0613
 7817TIP3    H247647   5.155   2.902   9.649 -1.5120 -0.7479 -0.6761
 7818TIP3   OH247648   0.147   3.685  10.509 -0.3803  0.0232 -0.1046
 7818TIP3    H147649   0.222   3.626  10.498  0.1389  0.6804 -0.1693
 7818TIP3    H247650   0.071   3.631  10.488  0.1734 -0.3064 -1.3398
 7819TIP3   OH247651   0.988   0.503   8.476  1.0732  0.4313  0.1256
 7819TIP3    H147652   1.033   0.507   8.560  1.3800  0.0609 -0.0181
 7819TIP3    H247653   1.054   0.532   8.412  1.9712 -2.4918 -0.4012
 7820TIP3   OH247654   1.666   6.361   8.738  0.1008 -0.0637  0.1023
 7820TIP3    H147655   1.727   6.288   8.745  1.2989  0.8060 -0.8695
 7820TIP3    H247656   1.621   6.346   8.654 -0.2972 -0.1430  0.3243
 7821TIP3   OH247657   1.066   0.288  10.018 -0.1995 -0.1942  0.4341
 7821TIP3    H147658   0.979   0.253  10.001 -0.4512  0.7578 -0.2991
 7821TIP3    H247659   1.056   0.383  10.011  1.2320 -0.1281 -1.3892
 7822TIP3   OH247660   6.727   2.100  11.029  0.2927 -0.3351  0.0925
 7822TIP3    H147661   6.751   2.187  11.060 -2.2091  0.8085 -0.9094
 7822TIP3    H247662   6.632   2.096  11.041 -0.0313 -1.8741 -2.3660
 7823TIP3   OH247663   2.747   4.757   9.327  0.4598  1.0907  0.0647
 7823TIP3    H147664   2.771   4.848   9.344  0.0691  1.3487 -0.7058
 7823TIP3    H247665   2.770   4.743   9.235  1.3380  0.1381  0.4056
 7824TIP3   OH247666   1.724   0.982  12.436 -0.2447 -0.0494  0.1778
 7824TIP3    H147667   1.641   0.935  12.444 -0.6491  0.7909  1.1760
 7824TIP3    H247668   1.706   1.068  12.474  0.8460  0.4487 -0.4028
 7825TIP3   OH247669   2.164   6.296  10.749  0.7388  0.2713  0.0652
 7825TIP3    H147670   2.251   6.259  10.761  0.6879  0.6305  1.7695
 7825TIP3    H247671   2.126   6.245  10.677  0.6813 -3.0516  2.2479
 7826TIP3   OH247672   1.559   2.266  10.748  0.7499  1.2911  0.4280
 7826TIP3    H147673   1.619   2.307  10.686  0.0693  0.8015 -0.5892
 7826TIP3    H247674   1.614   2.240  10.822  2.4541 -1.7397 -1.6736
 7827TIP3   OH247675   4.355   4.260  11.224 -0.2325  0.1382  0.4268
 7827TIP3    H147676   4.327   4.172  11.247 -1.3432  0.4386  0.2615
 7827TIP3    H247677   4.340   4.312  11.303 -0.6596  0.4168  0.1641
 7828TIP3   OH247678   2.654   3.815  11.674  0.3541 -0.3839  0.2381
 7828TIP3    H147679   2.722   3.753  11.649  0.9368  0.6918 -0.9841
 7828TIP3    H247680   2.596   3.819  11.598  0.2265  0.4138  0.3603
 7829TIP3   OH247681   4.920   5.023  11.477  0.6232 -0.1461  0.0902
 7829TIP3    H147682   4.911   5.092  11.542  0.7655  0.0660 -0.1094
 7829TIP3    H247683   4.932   4.943  11.528 -2.0608 -0.4315  0.3725
 7830TIP3   OH247684   2.726   4.449   9.089 -0.6787 -0.1381 -0.1150
 7830TIP3    H147685   2.748   4.540   9.106 -0.8279 -0.5370  2.8779
 7830TIP3    H247686   2.754   4.433   8.999  0.3595  2.5323 -0.3442
 7831TIP3   OH247687   4.574   3.807  11.099 -0.7104 -0.6412 -0.4927
 7831TIP3    H147688   4.635   3.737  11.076  0.9463  0.1063  1.3483
 7831TIP3    H247689   4.628   3.873  11.142 -2.5968  0.7615 -0.1380
 7832TIP3   OH247690   6.007   0.966  11.784 -0.1414  0.0328 -0.5486
 7832TIP3    H147691   5.970   0.987  11.870  0.2183 -0.2695 -0.3182
 7832TIP3    H247692   6.074   0.901  11.802 -0.9038 -0.9721 -1.2002
 7833TIP3   OH247693   3.568   2.704  11.169 -0.0919  0.3099 -0.0922
 7833TIP3    H147694   3.645   2.708  11.227  1.5416 -0.3884 -2.0824
 7833TIP3    H247695   3.565   2.790  11.128  0.2616  0.0210 -0.7445
 7834TIP3   OH247696   4.399   0.997  10.496  0.1377  0.3023  0.1171
 7834TIP3    H147697   4.457   0.995  10.572  0.4230  0.5659 -0.0902
 7834TIP3    H247698   4.442   1.056  10.434  0.1465 -0.2722 -0.4412
 7835TIP3   OH247699   4.792   1.776   9.036  0.4424  0.5603 -0.4727
 7835TIP3    H147700   4.816   1.713   9.104  0.0152  1.3767  0.4658
 7835TIP3    H247701   4.874   1.823   9.017  0.2842  1.2980  0.5439
 7836TIP3   OH247702   0.292   0.482   8.948  0.6778  0.5020 -0.4021
 7836TIP3    H147703   0.292   0.548   8.878 -1.9567  0.7915 -0.2316
 7836TIP3    H247704   0.306   0.533   9.028  0.1254  0.6889 -0.4144
 7837TIP3   OH247705   1.203   1.399  10.715 -0.5557 -0.1171 -0.3861
 7837TIP3    H147706   1.133   1.372  10.774 -0.3745 -1.6316 -0.8185
 7837TIP3    H247707   1.275   1.426  10.773 -1.7140  2.2656  0.0744
 7838TIP3   OH247708   0.688   5.674   8.706  0.1140  0.1567 -0.2151
 7838TIP3    H147709   0.604   5.641   8.737  0.8878  0.4802  2.3888
 7838TIP3    H247710   0.674   5.689   8.612 -2.9834  1.0148  0.2865
 7839TIP3   OH247711   0.837   1.667  11.003 -0.5157  0.1872 -0.0484
 7839TIP3    H147712   0.742   1.664  11.014 -0.7907  0.6876 -2.0300
 7839TIP3    H247713   0.851   1.670  10.909  1.5000 -0.2696  0.1840
 7840TIP3   OH247714   5.344   0.458  11.732 -0.3816  0.1737  0.2700
 7840TIP3    H147715   5.353   0.386  11.794 -0.8784  0.6479  0.9020
 7840TIP3    H247716   5.296   0.420  11.658 -0.3664 -0.2231  0.4621
 7841TIP3   OH247717   3.823   3.718  10.738 -0.4196 -0.4626 -0.3117
 7841TIP3    H147718   3.917   3.729  10.732 -0.6338  1.1150 -1.1919
 7841TIP3    H247719   3.804   3.641  10.683  0.2794 -0.4411 -0.5894
 7842TIP3   OH247720   4.730   3.302  12.086  0.1590 -0.2473 -0.4627
 7842TIP3    H147721   4.727   3.255  12.169  1.1782  0.8179  0.1924
 7842TIP3    H247722   4.719   3.394  12.110  1.2928  0.1561 -1.4212
 7843TIP3   OH247723   5.604   5.094   8.629 -0.7140 -0.5418  0.1689
 7843TIP3    H147724   5.559   5.117   8.548  0.8893 -0.3987 -0.7090
 7843TIP3    H247725   5.663   5.022   8.605 -0.3846 -0.6661  1.2600
 7844TIP3   OH247726   2.307   3.334   9.227  0.0339  0.1372  0.4543
 7844TIP3    H147727   2.389   3.359   9.183  0.4860  1.2605  1.8818
 7844TIP3    H247728   2.249   3.311   9.155  0.8586  1.5823 -0.7515
 7845TIP3   OH247729   6.546   0.048   9.784  0.0509 -0.1621 -0.2020
 7845TIP3    H147730   6.597   0.057   9.865 -0.0597 -2.0022  0.1218
 7845TIP3    H247731   6.612   0.034   9.716  0.0995  0.2308 -0.2333
 7846TIP3   OH247732   5.256   6.138  11.577 -0.6258  0.3663 -0.1280
 7846TIP3    H147733   5.323   6.207  11.582 -1.2143  0.9086  0.2939
 7846TIP3    H247734   5.175   6.185  11.559 -0.6468 -0.4173 -2.4278
 7847TIP3   OH247735   4.767   4.470  12.062  0.3247  0.7247 -0.0223
 7847TIP3    H147736   4.803   4.445  12.147 -0.3053 -2.1447 -0.5035
 7847TIP3    H247737   4.676   4.492  12.081  0.0925 -0.2316  0.0511
 7848TIP3   OH247738   2.303   1.862   9.019  0.0702  0.0826 -0.5229
 7848TIP3    H147739   2.311   1.790   8.957 -0.5331 -1.4312  1.0619
 7848TIP3    H247740   2.212   1.856   9.051 -0.7154  2.9582 -1.9461
 7849TIP3   OH247741   0.249   0.631  10.212 -0.3365  0.0406  0.7917
 7849TIP3    H147742   0.176   0.681  10.175  0.5658  0.5532 -0.3294
 7849TIP3    H247743   0.305   0.696  10.253  0.9351  0.0316 -0.8307
 7850TIP3   OH247744   2.749   2.105  10.718  0.6122  0.6010 -0.0832
 7850TIP3    H147745   2.838   2.136  10.736  0.3637  1.2989 -0.0443
 7850TIP3    H247746   2.703   2.115  10.801  1.0444 -1.7912  0.5234
 7851TIP3   OH247747   4.517   4.261  12.043 -0.0404 -0.3176  0.0277
 7851TIP3    H147748   4.569   4.221  12.113 -0.8429  0.5745  1.1624
 7851TIP3    H247749   4.496   4.349  12.075  0.2502  0.4197 -1.6887
 7852TIP3   OH247750   1.101   5.029   9.738 -0.5280 -0.1831 -0.3920
 7852TIP3    H147751   1.045   5.027   9.816  2.3596 -1.4554  1.8453
 7852TIP3    H247752   1.127   5.121   9.731 -0.3367 -0.1515  0.5450
 7853TIP3   OH247753   4.839   3.852  10.402  0.0172  0.1872 -0.7781
 7853TIP3    H147754   4.787   3.776  10.375 -1.1467  0.8057 -0.3296
 7853TIP3    H247755   4.781   3.902  10.458  1.5463  0.2112  0.8760
 7854TIP3   OH247756   6.305   4.339   9.480 -0.4791 -0.0460  0.2445
 7854TIP3    H147757   6.235   4.403   9.495 -0.5762 -0.4664  1.8443
 7854TIP3    H247758   6.339   4.361   9.394  0.2618  2.9364  1.1562
 7855TIP3   OH247759   2.063   3.588   9.961 -0.0804 -0.1538 -0.1504
 7855TIP3    H147760   2.055   3.498   9.993  0.1307 -0.1754 -0.1587
 7855TIP3    H247761   2.061   3.642  10.039 -0.0316 -0.1754 -0.1349
 7856TIP3   OH247762   6.599   5.403   9.526 -0.3015 -0.3534 -0.1166
 7856TIP3    H147763   6.686   5.397   9.565 -0.0562 -0.4510 -0.6651
 7856TIP3    H247764   6.587   5.496   9.507  0.0367 -0.4490 -0.8189
 7857TIP3   OH247765   0.466   1.128   9.362 -0.6974 -0.0842 -0.2850
 7857TIP3    H147766   0.454   1.208   9.413  0.1075 -0.0928 -0.0718
 7857TIP3    H247767   0.517   1.155   9.286 -0.5895 -0.3563 -0.3093
 7858TIP3   OH247768   0.076   5.038   8.982 -0.4666  0.2799 -0.1929
 7858TIP3    H147769   0.061   5.133   8.979 -0.8313  0.3098  1.6069
 7858TIP3    H247770   0.026   5.008   9.058  2.1904 -0.8589  1.2520
 7859TIP3   OH247771   2.980   1.869   9.349 -0.2396 -0.1982  0.1043
 7859TIP3    H147772   3.073   1.884   9.331 -0.0998  1.3859  1.7241
 7859TIP3    H247773   2.976   1.862   9.445 -1.5294 -2.6185 -0.0458
 7860TIP3   OH247774   2.699   5.263   9.133  0.4096 -0.1304  0.7222
 7860TIP3    H147775   2.683   5.169   9.129 -0.7077  0.0601  0.4301
 7860TIP3    H247776   2.794   5.271   9.139  0.5381 -1.2627  0.3643
 7861TIP3   OH247777   1.406   6.214   9.968  0.2956  0.4312  0.6983
 7861TIP3    H147778   1.476   6.279   9.957  1.7531 -1.2618 -0.8282
 7861TIP3    H247779   1.410   6.188  10.060  1.4354  0.6602  0.7220
 7862TIP3   OH247780   1.773   4.503  11.447 -0.7836 -0.0906  0.4449
 7862TIP3    H147781   1.799   4.592  11.424 -1.4808  0.4231  1.5420
 7862TIP3    H247782   1.684   4.495  11.413 -0.4541 -0.6430 -0.3085
 7863TIP3   OH247783   1.602   4.156  11.901  0.1995 -0.6465  0.3863
 7863TIP3    H147784   1.558   4.233  11.866  1.2088 -0.3522 -0.2861
 7863TIP3    H247785   1.610   4.174  11.995  0.4537  0.0883  0.2273
 7864TIP3   OH247786   2.017   3.994   9.450  0.0046 -0.0001 -0.0215
 7864TIP3    H147787   2.060   3.910   9.437  1.9407  0.9056  0.1471
 7864TIP3    H247788   2.067   4.056   9.396  0.2054  1.4676  1.7200
 7865TIP3   OH247789   6.746   4.629   9.616 -0.6489 -0.0051 -0.1831
 7865TIP3    H147790   6.802   4.580   9.676 -0.3056 -0.6303 -0.9890
 7865TIP3    H247791   6.712   4.562   9.556 -1.2823  0.5504 -0.4424
 7866TIP3   OH247792   2.038   2.946   9.603  0.2460 -0.3617  0.3700
 7866TIP3    H147793   2.054   2.853   9.622  2.3330  0.1927  1.6732
 7866TIP3    H247794   2.072   2.959   9.515 -3.0608 -1.4473 -1.2279
 7867TIP3   OH247795   6.741   4.464   9.040  0.4791  0.1297 -0.4293
 7867TIP3    H147796   6.703   4.485   9.125 -0.1940  0.3254 -0.7742
 7867TIP3    H247797   6.701   4.381   9.015  1.0816 -0.2039 -0.3220
 7868TIP3   OH247798   2.959   0.692  10.730  0.7266 -0.2750  0.5135
 7868TIP3    H147799   3.052   0.714  10.735  0.3033  2.4132 -1.2029
 7868TIP3    H247800   2.954   0.624  10.663  1.3530  0.5516 -0.3923
 7869TIP3   OH247801   5.239   1.188   9.009 -0.4945 -0.3946 -0.2263
 7869TIP3    H147802   5.244   1.155   8.919  0.7443 -1.5911  0.2505
 7869TIP3    H247803   5.321   1.162   9.049  0.0053  2.1915  0.6177
 7870TIP3   OH247804   3.998   6.697   8.860  0.0728 -0.2821 -0.3254
 7870TIP3    H147805   4.083   6.653   8.855  0.5461  0.7618 -2.4651
 7870TIP3    H247806   4.018   6.782   8.898  0.1684  0.3155 -1.6733
 7871TIP3   OH247807   3.675   1.733   9.265  0.1439 -0.9058  0.7777
 7871TIP3    H147808   3.660   1.664   9.200  0.2104 -0.3454  0.1568
 7871TIP3    H247809   3.587   1.762   9.291  0.1130 -0.2149 -0.0620
 7872TIP3   OH247810   2.490   1.857  11.864  0.3487  0.0623 -0.3667
 7872TIP3    H147811   2.569   1.804  11.869 -0.0012 -0.3927  0.7317
 7872TIP3    H247812   2.431   1.818  11.929  0.4622  2.4409  1.2973
 7873TIP3   OH247813   5.640   5.210  10.736 -0.2945 -0.3326  0.6133
 7873TIP3    H147814   5.612   5.125  10.769 -1.1496  0.2603  1.4444
 7873TIP3    H247815   5.733   5.198  10.716 -0.1202 -1.1317  1.8368
 7874TIP3   OH247816   0.290   4.348  10.482  0.1733 -0.1215 -0.4686
 7874TIP3    H147817   0.349   4.422  10.467  0.2404 -0.0531  0.1112
 7874TIP3    H247818   0.314   4.285  10.414 -0.5959  0.8014 -1.6371
 7875TIP3   OH247819   1.416   0.240  12.411 -0.0676 -0.4373  0.4595
 7875TIP3    H147820   1.432   0.171  12.476  0.4906  0.2943  1.1219
 7875TIP3    H247821   1.500   0.286  12.405 -0.8373  1.1041  1.1310
 7876TIP3   OH247822   0.322   0.271  10.274 -0.1897  0.2589  0.5311
 7876TIP3    H147823   0.330   0.184  10.236  0.2969  1.1681 -1.6084
 7876TIP3    H247824   0.254   0.262  10.341  0.5415 -1.9491  1.0535
 7877TIP3   OH247825   4.617   3.694  11.542 -0.4605 -0.2283 -0.2609
 7877TIP3    H147826   4.558   3.729  11.608 -0.1833  1.7439 -0.9913
 7877TIP3    H247827   4.563   3.686  11.463 -0.1298  0.1876 -0.5385
 7878TIP3   OH247828   4.681   4.173  12.230 -0.2242  0.0376  0.4531
 7878TIP3    H147829   4.775   4.193  12.225 -0.0220 -0.7367  1.0152
 7878TIP3    H247830   4.675   4.101  12.293 -1.3376  1.0168  1.5239
 7879TIP3   OH247831   1.822   3.639  11.373  0.5120  0.4306  0.1512
 7879TIP3    H147832   1.857   3.553  11.397 -1.9341 -0.7875 -0.4052
 7879TIP3    H247833   1.753   3.655  11.436  0.8513  1.9615  0.1620
 7880TIP3   OH247834   3.563   2.502   8.955  0.2640  0.3675 -0.1087
 7880TIP3    H147835   3.520   2.517   9.039  3.3555 -1.7941  2.0573
 7880TIP3    H247836   3.532   2.416   8.926 -1.7563  1.6148 -1.9858
 7881TIP3   OH247837   6.047   4.116  10.126  0.0885  0.3697  0.3873
 7881TIP3    H147838   6.005   4.040  10.166  0.1165  0.0431 -0.2059
 7881TIP3    H247839   6.022   4.189  10.183 -0.6588  0.0579  0.4665
 7882TIP3   OH247840   5.595   0.504  10.493  0.4706  0.2127  0.5087
 7882TIP3    H147841   5.521   0.526  10.550 -0.8357 -1.8868 -0.2632
 7882TIP3    H247842   5.618   0.587  10.452 -2.0139  0.8314  0.1675
 7883TIP3   OH247843   2.591   3.349  11.065 -0.1733 -0.0659 -0.0821
 7883TIP3    H147844   2.534   3.297  11.008 -0.4164  0.1681 -0.0551
 7883TIP3    H247845   2.679   3.329  11.035 -0.1775 -1.4831  0.7629
 7884TIP3   OH247846   1.901   4.098  10.308 -0.0722  0.1915 -0.2698
 7884TIP3    H147847   1.926   4.048  10.386 -1.1313  0.5785  0.3440
 7884TIP3    H247848   1.855   4.035  10.253  0.0630  0.0925 -0.2720
 7885TIP3   OH247849   6.277   4.881   9.301  0.3802 -0.3651 -0.3094
 7885TIP3    H147850   6.294   4.975   9.302  0.2693 -0.3454 -0.1705
 7885TIP3    H247851   6.317   4.848   9.382  0.1040 -0.3796 -0.1754
 7886TIP3   OH247852   6.252   4.099  10.782 -0.0357  0.2081  0.2520
 7886TIP3    H147853   6.203   4.065  10.857 -0.2540  1.1991  0.5616
 7886TIP3    H247854   6.189   4.096  10.710  0.5538 -2.0148 -0.2657
 7887TIP3   OH247855   2.111   1.730  11.734  0.1100  0.2476  0.2616
 7887TIP3    H147856   2.055   1.805  11.753  1.4153  2.0281 -2.2512
 7887TIP3    H247857   2.109   1.677  11.814  0.5716  3.8651  2.9178
 7888TIP3   OH247858   3.795   5.539   8.884 -0.0734 -0.5599 -0.1404
 7888TIP3    H147859   3.720   5.558   8.939 -1.7720 -2.5323 -1.6287
 7888TIP3    H247860   3.806   5.617   8.830 -0.3921  0.1337  0.7828
 7889TIP3   OH247861   3.687   6.408   8.803  0.4984  0.4422  0.0441
 7889TIP3    H147862   3.779   6.402   8.781  0.1926 -0.5004 -1.0891
 7889TIP3    H247863   3.669   6.502   8.809  0.7566  0.8587 -3.3865
 7890TIP3   OH247864   4.027   5.917  12.605  0.0455 -0.1340  0.0624
 7890TIP3    H147865   4.036   6.003  12.646  1.0724  0.1277 -0.6627
 7890TIP3    H247866   3.952   5.925  12.547 -0.5106 -0.0563  0.7844
 7891TIP3   OH247867   6.096   6.350  12.306 -0.3259 -0.2181 -0.2953
 7891TIP3    H147868   6.129   6.429  12.348 -1.3925  0.5304 -0.8254
 7891TIP3    H247869   6.058   6.299  12.379  1.3200 -0.7843  0.2110
 7892TIP3   OH247870   3.879   0.387   9.991 -0.2856 -0.4147  0.5057
 7892TIP3    H147871   3.935   0.403  10.067 -0.3338 -0.1772  0.4939
 7892TIP3    H247872   3.876   0.472   9.946 -0.6009 -0.4433  0.4702
 7893TIP3   OH247873   3.078   3.538   8.982  0.2618  0.1529  1.0255
 7893TIP3    H147874   3.027   3.457   8.982  1.1496 -0.4317 -0.4950
 7893TIP3    H247875   3.016   3.605   9.012 -0.5934 -0.9890  1.9185
 7894TIP3   OH247876   6.057   1.910  11.012  0.1971  0.0719  0.7207
 7894TIP3    H147877   5.966   1.883  11.008  0.2794 -0.6328  2.7729
 7894TIP3    H247878   6.096   1.857  11.081  1.9722  0.9210  0.4518
 7895TIP3   OH247879   0.872   0.505  11.797  0.3738  0.3898 -0.0581
 7895TIP3    H147880   0.802   0.549  11.748  0.1188  0.6255  0.5007
 7895TIP3    H247881   0.826   0.444  11.855  0.6752  0.0245 -0.2030
 7896TIP3   OH247882   3.754   2.817   8.751  0.2116  0.4637  0.0914
 7896TIP3    H147883   3.783   2.904   8.780 -1.7925  0.6370  1.7718
 7896TIP3    H247884   3.793   2.807   8.664  1.1774  2.6870  0.2047
 7897TIP3   OH247885   5.042   0.658  10.832 -0.4845  0.0083 -0.4660
 7897TIP3    H147886   4.983   0.596  10.789 -2.2432  0.1841  1.5408
 7897TIP3    H247887   5.052   0.624  10.920  0.1373  1.5123  0.0734
 7898TIP3   OH247888   0.758   5.640  10.698  0.3110 -0.3753 -0.2387
 7898TIP3    H147889   0.835   5.583  10.693  0.6225  0.0587 -0.4141
 7898TIP3    H247890   0.776   5.698  10.772  0.2419 -0.1361 -0.4108
 7899TIP3   OH247891   1.463   3.514  11.447  0.5816 -0.6288  0.8703
 7899TIP3    H147892   1.539   3.571  11.448  0.3809 -0.3627  1.7840
 7899TIP3    H247893   1.432   3.516  11.357  0.1081  1.3540  1.0478
 7900TIP3   OH247894   4.305   2.840   9.522 -0.2859 -0.7637 -0.1057
 7900TIP3    H147895   4.282   2.862   9.432 -1.7260 -4.3206 -0.7663
 7900TIP3    H247896   4.384   2.786   9.515  0.3348 -0.0485  0.9414
 7901TIP3   OH247897   4.949   4.692  10.946  0.0649 -0.2077 -0.1433
 7901TIP3    H147898   4.999   4.746  11.007 -1.6863 -0.2825  1.4660
 7901TIP3    H247899   4.975   4.722  10.859 -0.6455  3.1322  0.6590
 7902TIP3   OH247900   2.488   2.087  11.280  0.0251 -0.6213  0.2252
 7902TIP3    H147901   2.558   2.136  11.236 -1.9069  0.9584 -1.2316
 7902TIP3    H247902   2.532   2.047  11.356  2.2045  1.4627  0.2022
 7903TIP3   OH247903   1.434   5.722   9.052  0.5009  0.2040  0.3497
 7903TIP3    H147904   1.474   5.779   9.118  1.2116  1.0055 -0.7237
 7903TIP3    H247905   1.348   5.699   9.088  0.0977  2.1380  0.7457
 7904TIP3   OH247906   3.612   4.777  10.320  0.0889  0.2160 -0.0794
 7904TIP3    H147907   3.647   4.755  10.407  0.5073  1.2923  0.0420
 7904TIP3    H247908   3.687   4.767  10.261 -0.4307 -1.4633 -0.4967
 7905TIP3   OH247909   1.029   3.606   9.443  0.6233 -0.5089 -0.6125
 7905TIP3    H147910   1.071   3.690   9.425  1.0171  0.2758  3.1883
 7905TIP3    H247911   0.935   3.623   9.432  0.6408  0.7077  0.8928
 7906TIP3   OH247912   6.678   5.742   9.537 -0.3329 -0.2678 -0.6186
 7906TIP3    H147913   6.685   5.684   9.613 -0.6079 -0.6710 -0.8920
 7906TIP3    H247914   6.751   5.803   9.546 -1.8424  1.3499  1.3351
 7907TIP3   OH247915   2.006   4.727  18.098  0.4660 -0.0052  0.4686
 7907TIP3    H147916   2.010   4.633  18.083  2.0537 -0.1755  1.6470
 7907TIP3    H247917   1.928   4.756  18.052 -0.5121 -2.0280  0.7512
 7908TIP3   OH247918   1.749   1.987   9.018 -0.2772 -0.1772 -0.2101
 7908TIP3    H147919   1.695   2.055   8.976 -0.1547  0.0871  0.0502
 7908TIP3    H247920   1.691   1.911   9.024 -0.5846  0.0654 -0.0450
 7909TIP3   OH247921   4.136   6.401  10.464  0.0930 -0.5810  0.4913
 7909TIP3    H147922   4.115   6.377  10.554 -0.0970  1.0480  0.9221
 7909TIP3    H247923   4.082   6.479  10.447  0.0607 -0.9056 -1.0662
 7910TIP3   OH247924   4.444   3.040  11.554  0.0595 -0.1762  0.0769
 7910TIP3    H147925   4.449   3.045  11.649  0.0690 -1.7820  0.1777
 7910TIP3    H247926   4.361   2.996  11.537  0.2359 -0.2381 -0.6488
 7911TIP3   OH247927   5.315   5.235  10.047 -0.6819  0.0349 -0.0155
 7911TIP3    H147928   5.347   5.325  10.043 -1.0483  0.1234 -1.4924
 7911TIP3    H247929   5.393   5.182  10.060  0.0857  0.3111 -2.7929
 7912TIP3   OH247930   5.549   6.280  10.112  0.1145  0.7393 -0.0068
 7912TIP3    H147931   5.620   6.336  10.142 -0.4641  0.9925  0.9189
 7912TIP3    H247932   5.504   6.332  10.046  0.1539  0.9923  0.1654
 7913TIP3   OH247933   5.694   5.976   8.965 -0.1825 -0.4642  0.4108
 7913TIP3    H147934   5.744   5.966   9.046  1.1960 -0.9067 -0.4676
 7913TIP3    H247935   5.661   6.066   8.968  0.5336 -0.2138  1.0928
 7914TIP3   OH247936   5.693   6.121  10.827  0.0188  0.0207 -0.0604
 7914TIP3    H147937   5.612   6.166  10.853  0.2463  0.3643  0.0653
 7914TIP3    H247938   5.701   6.048  10.889  0.5163  0.7918  0.8078
 7915TIP3   OH247939   4.473   0.849  11.691 -0.2636  0.1456  0.2244
 7915TIP3    H147940   4.447   0.803  11.611 -0.5231 -0.7070  0.7818
 7915TIP3    H247941   4.460   0.784  11.761  2.0721  0.0997  0.7010
 7916TIP3   OH247942   4.771   3.603  11.046 -0.6265 -0.2728 -0.8301
 7916TIP3    H147943   4.825   3.525  11.059 -0.9743 -0.1367  2.1715
 7916TIP3    H247944   4.816   3.652  10.978  1.8678 -1.1975  0.0300
 7917TIP3   OH247945   4.143   6.027   9.149  0.3950  0.2674 -0.0907
 7917TIP3    H147946   4.216   5.969   9.130 -0.9919 -1.2198 -1.1700
 7917TIP3    H247947   4.098   5.986   9.222 -0.9390 -0.3952 -1.2439
 7918TIP3   OH247948   5.725   2.506   9.367 -0.3394 -0.4964 -0.2800
 7918TIP3    H147949   5.814   2.532   9.390  0.2927 -0.0828 -2.8540
 7918TIP3    H247950   5.730   2.412   9.353 -1.2873 -1.2410  3.2414
 7919TIP3   OH247951   3.547   0.857  10.542 -0.1490 -0.5415  0.2030
 7919TIP3    H147952   3.570   0.790  10.478  0.5278 -0.7487  0.6415
 7919TIP3    H247953   3.600   0.933  10.518  0.2848 -0.6959  0.6408
 7920TIP3   OH247954   5.606   5.581  10.258 -0.0703 -0.1305  0.3138
 7920TIP3    H147955   5.562   5.632  10.190 -0.1705 -1.3549 -0.5571
 7920TIP3    H247956   5.699   5.589  10.237 -0.0802 -0.2474  0.2281
 7921TIP3   OH247957   1.589   0.052  10.092  0.0544  0.3002 -0.3233
 7921TIP3    H147958   1.684   0.037  10.103  0.2398  1.0230 -0.8926
 7921TIP3    H247959   1.583   0.139  10.053 -0.8849  0.5808  0.4100
 7922TIP3   OH247960   5.297   3.631  10.406  0.1003 -0.4148 -0.0698
 7922TIP3    H147961   5.364   3.579  10.450 -0.3106  0.8860  2.2663
 7922TIP3    H247962   5.218   3.577  10.412  0.2292 -0.6008 -0.0113
 7923TIP3   OH247963   5.479   5.839  10.100 -0.2944 -0.4451 -0.1383
 7923TIP3    H147964   5.464   5.914  10.041 -1.3343  0.4175  1.1503
 7923TIP3    H247965   5.569   5.850  10.131  0.2084 -0.8251 -1.4268
 7924TIP3   OH247966   2.399   2.073  11.737  0.4790 -0.5624  0.1853
 7924TIP3    H147967   2.390   2.130  11.814 -0.1013 -0.5055  0.0766
 7924TIP3    H247968   2.442   1.995  11.771  0.0696 -0.6084  0.6066
 7925TIP3   OH247969   2.823   3.599  11.667 -0.3856  0.3444  0.2436
 7925TIP3    H147970   2.774   3.534  11.717  1.0210 -1.5356 -0.7214
 7925TIP3    H247971   2.905   3.610  11.716 -0.0047  0.2955 -0.3794
 7926TIP3   OH247972   1.934   2.456   8.755 -0.1045 -0.1779  0.0393
 7926TIP3    H147973   2.006   2.481   8.812  0.0746 -0.4152 -0.0832
 7926TIP3    H247974   1.866   2.423   8.814 -0.3663  0.6260  0.2135
 7927TIP3   OH247975   0.113   2.026  11.717 -0.3636 -0.2591 -0.5468
 7927TIP3    H147976   0.184   2.019  11.782 -0.4909  0.2890 -0.3432
 7927TIP3    H247977   0.157   2.029  11.633 -0.0794  1.0438 -0.3713
 7928TIP3   OH247978   3.319   5.274   9.082  0.6667 -0.0491 -0.1308
 7928TIP3    H147979   3.283   5.224   9.154  0.9282  0.3119  0.2548
 7928TIP3    H247980   3.270   5.356   9.082  1.8346  0.6914  0.7671
 7929TIP3   OH247981   1.285   0.970  12.142  0.2308  0.1476 -0.5424
 7929TIP3    H147982   1.238   1.048  12.112 -0.0470  0.0937 -0.2460
 7929TIP3    H247983   1.377   0.993  12.132  0.1666  0.7906  0.2424
 7930TIP3   OH247984   5.927   5.434   9.877  0.4547 -0.0228  0.0260
 7930TIP3    H147985   5.883   5.509   9.919  0.7714 -0.4819  1.2216
 7930TIP3    H247986   6.002   5.472   9.832  1.0478  0.3147  1.2545
 7931TIP3   OH247987   3.092   2.368   9.783  0.2247  0.3163  0.1499
 7931TIP3    H147988   3.042   2.370   9.864 -1.7510  2.7091 -1.0206
 7931TIP3    H247989   3.064   2.445   9.734  0.6451 -1.4539 -3.2475
 7932TIP3   OH247990   2.945   3.078   9.961 -0.1576 -0.4094  0.1922
 7932TIP3    H147991   2.910   3.012  10.022  3.8687 -2.0776  1.0282
 7932TIP3    H247992   2.983   3.027   9.890  0.5332  1.1928 -0.6308
 7933TIP3   OH247993   5.177   3.051  11.246 -0.1510 -0.4508  0.2449
 7933TIP3    H147994   5.148   3.020  11.331 -0.3487 -1.4316 -0.1647
 7933TIP3    H247995   5.224   3.132  11.265 -1.2470  0.0027  1.1442
 7934TIP3   OH247996   3.073   1.293   9.246 -0.4061 -0.3074  0.5156
 7934TIP3    H147997   3.066   1.383   9.278  0.6033 -0.6129  1.6830
 7934TIP3    H247998   3.131   1.250   9.309  0.8470 -1.2297 -1.2129
 7935TIP3   OH247999   3.601   4.226   9.616 -0.1715 -0.5227  0.0720
 7935TIP3    H148000   3.684   4.190   9.586  0.0625  0.9477 -1.1732
 7935TIP3    H248001   3.562   4.264   9.537 -2.3086 -1.6638  0.5010
 7936TIP3   OH248002   3.812   4.101  12.502 -0.0408 -0.3197  0.1887
 7936TIP3    H148003   3.837   4.013  12.472  1.7286  0.4646 -0.7385
 7936TIP3    H248004   3.887   4.132  12.552  0.3676  1.5749 -1.4895
 7937TIP3   OH248005   4.155   1.137  10.207 -0.1393  0.0600  0.1048
 7937TIP3    H148006   4.174   1.128  10.113  3.7267  0.0172  0.7363
 7937TIP3    H248007   4.145   1.047  10.238  0.8396 -0.0779  0.0631
 7938TIP3   OH248008   5.453   4.687  11.434  0.0132 -0.6377  0.8448
 7938TIP3    H148009   5.543   4.668  11.462  0.8900  2.4585  0.5516
 7938TIP3    H248010   5.410   4.722  11.513 -0.9286 -1.9244  0.9341
 7939TIP3   OH248011   1.200   1.145  11.626 -0.2040  0.0467 -0.1424
 7939TIP3    H148012   1.289   1.126  11.595 -0.0730  0.2513  0.0973
 7939TIP3    H248013   1.176   1.069  11.679  0.1032  0.2934  0.3630
 7940TIP3   OH248014   5.711   1.357   9.663  0.1596 -0.4190  0.2851
 7940TIP3    H148015   5.644   1.354   9.732  0.9249 -0.2415  1.0467
 7940TIP3    H248016   5.677   1.420   9.599  0.3630  0.9753  1.4982
 7941TIP3   OH248017   0.645   2.134   9.116 -0.1006  0.0145  0.4122
 7941TIP3    H148018   0.643   2.041   9.094  0.6577  0.2108 -0.5612
 7941TIP3    H248019   0.703   2.139   9.192 -0.6749 -0.3801  0.8813
 7942TIP3   OH248020   5.877   0.751  11.536 -0.5626  0.2078 -0.0548
 7942TIP3    H148021   5.884   0.692  11.462 -1.8016 -0.2657  0.1803
 7942TIP3    H248022   5.945   0.722  11.597  0.8045  0.9197 -1.1814
 7943TIP3   OH248023   4.805   6.471  12.693  0.4031  0.5944  0.4374
 7943TIP3    H148024   4.884   6.521  12.676  0.1147  0.2286 -2.7052
 7943TIP3    H248025   4.831   6.404  12.756  2.3480  1.0389  0.1567
 7944TIP3   OH248026   0.042   5.765   9.173  0.1733  0.2763 -0.4155
 7944TIP3    H148027   0.012   5.849   9.210  1.5316  0.2182  0.9062
 7944TIP3    H248028   0.116   5.788   9.117  0.3395  0.0001 -0.3126
 7945TIP3   OH248029   4.844   5.619  12.436 -0.2016  0.4490 -0.1593
 7945TIP3    H148030   4.876   5.692  12.384 -0.6383  1.0675  0.4253
 7945TIP3    H248031   4.752   5.638  12.451 -0.5833 -0.7563 -0.8824
 7946TIP3   OH248032   4.283   4.559  11.557  0.3102 -0.0431 -0.1332
 7946TIP3    H148033   4.283   4.553  11.653  0.4382 -0.8514 -0.1750
 7946TIP3    H248034   4.375   4.574  11.534  0.1548  1.0493 -0.0920
 7947TIP3   OH248035   5.107   2.721  10.844 -0.2890 -0.1493 -0.3422
 7947TIP3    H148036   5.199   2.700  10.860 -0.4952  0.3388  1.6609
 7947TIP3    H248037   5.107   2.759  10.756  1.7686  1.7822  0.4065
 7948TIP3   OH248038   5.362   6.064  10.696  0.0584 -0.1203  0.0154
 7948TIP3    H148039   5.413   6.075  10.616  2.8713 -0.6874  1.5643
 7948TIP3    H248040   5.370   5.971  10.716 -3.0579 -0.5816 -0.4630
 7949TIP3   OH248041   1.128   4.716   8.580 -0.6798 -0.1807 -0.2600
 7949TIP3    H148042   1.070   4.752   8.647 -0.5296 -1.5198  0.6274
 7949TIP3    H248043   1.097   4.627   8.566  0.9341 -0.8300  0.0166
 7950TIP3   OH248044   4.198   6.485  10.838 -0.1051 -0.1637 -0.8121
 7950TIP3    H148045   4.169   6.394  10.830 -0.7291 -0.3196  2.2642
 7950TIP3    H248046   4.129   6.529  10.886  1.5243  1.2114  0.3907
 7951TIP3   OH248047   0.101   3.968  10.998  0.4446  0.0641  0.2202
 7951TIP3    H148048   0.066   3.978  11.087  1.8224 -1.3047  0.9714
 7951TIP3    H248049   0.028   3.990  10.941 -0.1484  2.1457  1.6640
 7952TIP3   OH248050   2.782   2.359  10.483  0.7624 -0.7090 -0.5421
 7952TIP3    H148051   2.870   2.333  10.509  0.3870 -0.1268  1.5431
 7952TIP3    H248052   2.793   2.409  10.403  2.1393 -1.9103 -1.1485
 7953TIP3   OH248053   6.273   5.609  10.877 -0.2987  0.1614  0.4983
 7953TIP3    H148054   6.258   5.601  10.783 -0.2377 -1.7379  0.6101
 7953TIP3    H248055   6.198   5.659  10.909 -0.3841  0.7191 -0.5374
 7954TIP3   OH248056   1.903   0.086  12.504  0.2845  0.0592  0.3872
 7954TIP3    H148057   1.943  -0.001  12.510  0.8679  0.3625  0.9996
 7954TIP3    H248058   1.960   0.135  12.444 -2.0568 -1.0484 -3.0375
 7955TIP3   OH248059   2.099   2.331  10.184  0.6537  0.0018  0.3350
 7955TIP3    H148060   2.017   2.375  10.160  0.0061 -0.7642  1.0770
 7955TIP3    H248061   2.112   2.352  10.276  0.7992 -0.6290  0.4646
 7956TIP3   OH248062   4.699   5.704  11.641 -0.0646 -0.2053  0.2412
 7956TIP3    H148063   4.645   5.783  11.639 -1.3431 -0.9812  1.7134
 7956TIP3    H248064   4.693   5.673  11.732  2.9221 -0.3374  0.4698
 7957TIP3   OH248065   5.299   1.062  10.738 -0.1451 -0.2334 -0.6062
 7957TIP3    H148066   5.339   1.116  10.671  0.0774  0.1669 -0.1553
 7957TIP3    H248067   5.322   0.972  10.713 -1.5126 -0.2298 -2.0184
 7958TIP3   OH248068   2.921   0.729  11.019 -0.7046  0.4942  0.1252
 7958TIP3    H148069   2.891   0.819  11.025  1.1958  1.1862 -0.2003
 7958TIP3    H248070   2.953   0.720  10.929  0.2502 -0.0984  0.5034
 7959TIP3   OH248071   4.984   1.728  10.148  0.1899 -0.0396  0.3207
 7959TIP3    H148072   5.024   1.807  10.111 -0.9015  0.2677 -0.2624
 7959TIP3    H248073   5.032   1.711  10.229  0.5829  1.0910  0.3329
 7960TIP3   OH248074   5.362   5.116   9.797  0.3426 -0.4622  0.3149
 7960TIP3    H148075   5.453   5.144   9.785 -0.2857  1.5434 -0.1420
 7960TIP3    H248076   5.336   5.155   9.880 -1.0979  1.9703 -1.1792
 7961TIP3   OH248077   2.890   1.048  11.925  0.4234  0.0878 -0.5659
 7961TIP3    H148078   2.821   1.113  11.937  0.2702 -0.1098 -0.3687
 7961TIP3    H248079   2.971   1.094  11.949  0.1585 -0.2053  0.9712
 7962TIP3   OH248080   6.468   5.528  12.041 -0.4319  0.5465  0.3588
 7962TIP3    H148081   6.521   5.531  11.961 -1.1601  1.2003 -0.1221
 7962TIP3    H248082   6.470   5.618  12.074 -2.6705  1.0500 -0.6684
 7963TIP3   OH248083   0.288   2.195   8.747  0.7658  0.3468  0.4717
 7963TIP3    H148084   0.341   2.191   8.826 -0.8950 -1.4232  1.5861
 7963TIP3    H248085   0.290   2.288   8.721  1.2756  0.9862  2.6419
 7964TIP3   OH248086   4.047   4.688  12.021  0.3182  0.5403 -0.4802
 7964TIP3    H148087   4.134   4.657  12.047 -0.2301  0.4215  1.3062
 7964TIP3    H248088   4.016   4.738  12.096 -0.5777  1.8204 -1.6650
 7965TIP3   OH248089   6.615   6.080  10.629 -0.7058 -0.3808  0.3256
 7965TIP3    H148090   6.587   5.991  10.608  0.4342 -0.5789 -0.4506
 7965TIP3    H248091   6.614   6.083  10.725 -3.0991 -0.4222  0.3675
 7966TIP3   OH248092   5.112   3.830   8.995  0.3974  0.4142 -0.7716
 7966TIP3    H148093   5.182   3.822   9.059  0.5599  0.4719 -0.9409
 7966TIP3    H248094   5.096   3.740   8.966  1.6459  0.5601 -2.0531
 7967TIP3   OH248095   1.500   1.188  11.092  0.7154 -0.4022  0.4121
 7967TIP3    H148096   1.509   1.244  11.014 -0.1926 -1.8404 -0.7819
 7967TIP3    H248097   1.460   1.245  11.158  0.7539  0.6298 -0.4262
 7968TIP3   OH248098   6.524   0.866  10.031 -0.4183  0.1590 -0.6639
 7968TIP3    H148099   6.445   0.897   9.987  0.3969  0.9668 -1.6145
 7968TIP3    H248100   6.536   0.926  10.105 -1.1181 -0.4510 -0.0456
 7969TIP3   OH248101   0.553   2.507  11.713  0.0064 -0.5118 -0.1231
 7969TIP3    H148102   0.561   2.456  11.793 -0.4964  0.1208  0.3419
 7969TIP3    H248103   0.643   2.532  11.691  0.4677 -2.8476 -1.2211
 7970TIP3   OH248104   3.943   5.407   9.672  0.1651  0.7376  0.1767
 7970TIP3    H148105   4.030   5.443   9.688  0.0356  0.4738  1.6112
 7970TIP3    H248106   3.908   5.460   9.601  1.8950  0.1341 -1.2191
 7971TIP3   OH248107   0.296   1.225   9.057 -0.1239  0.3841  0.3662
 7971TIP3    H148108   0.296   1.319   9.040  1.0280  0.2609 -0.3892
 7971TIP3    H248109   0.388   1.200   9.058 -0.3969 -1.2365 -2.5035
 7972TIP3   OH248110   1.476   1.590   9.603 -0.4485  0.1033  0.7429
 7972TIP3    H148111   1.451   1.642   9.526  1.6954 -0.8115 -0.6914
 7972TIP3    H248112   1.450   1.501   9.580 -1.1138  0.0210  1.7548
 7973TIP3   OH248113   3.829   0.747  10.833  0.1886 -0.0385  0.3096
 7973TIP3    H148114   3.743   0.714  10.807  0.8262 -1.6723  0.1365
 7973TIP3    H248115   3.865   0.678  10.889  0.5000  1.6046  2.2748
 7974TIP3   OH248116   4.637   1.958  11.305 -0.0336 -0.4093 -0.3445
 7974TIP3    H148117   4.596   1.910  11.234  1.5397 -2.6117  0.1544
 7974TIP3    H248118   4.666   2.040  11.266  0.1916 -1.2834 -2.0734
 7975TIP3   OH248119   4.515   2.242  11.321 -0.1947 -0.0193  0.1831
 7975TIP3    H148120   4.580   2.215  11.256  0.3139  1.3681  0.0768
 7975TIP3    H248121   4.489   2.161  11.365 -0.2161 -0.9304 -1.4389
 7976TIP3   OH248122   5.795   2.935  11.014  0.0408 -0.5036 -0.1340
 7976TIP3    H148123   5.810   2.920  10.921 -1.6468 -0.3963 -0.4553
 7976TIP3    H248124   5.702   2.957  11.020  0.2898  0.2369  1.4924
 7977TIP3   OH248125   3.056   2.404  11.198 -0.2856 -0.4235 -0.4371
 7977TIP3    H148126   2.977   2.381  11.246  0.8431 -0.3631  1.5938
 7977TIP3    H248127   3.080   2.325  11.150 -1.3742 -0.5522 -0.7774
 7978TIP3   OH248128   6.705   2.210   9.331 -0.0193  0.5073 -0.2513
 7978TIP3    H148129   6.793   2.178   9.350  0.4468  1.8717  0.0409
 7978TIP3    H248130   6.669   2.232   9.417  0.1396  1.8336 -0.4923
 7979TIP3   OH248131   4.623   4.632   8.588  0.2120  0.0944 -0.1396
 7979TIP3    H148132   4.677   4.686   8.530  1.4107  0.5607  1.3420
 7979TIP3    H248133   4.662   4.545   8.584 -0.2860 -0.1105 -0.7285
 7980TIP3   OH248134   5.257   6.351  10.571  0.4431 -0.2075 -0.1908
 7980TIP3    H148135   5.343   6.319  10.544  0.9486  0.5523  0.4409
 7980TIP3    H248136   5.252   6.439  10.534 -0.7482 -0.8216 -1.5652
 7981TIP3   OH248137   3.970   1.491  10.762  0.0981  0.1460 -0.4111
 7981TIP3    H148138   3.893   1.446  10.796  0.8207 -1.0007 -0.2477
 7981TIP3    H248139   4.041   1.463  10.819  0.6677  1.0985 -0.6370
 7982TIP3   OH248140   0.334   5.383   9.241 -0.0739 -0.2150  0.3147
 7982TIP3    H148141   0.370   5.437   9.172  0.2904  2.8414  2.6797
 7982TIP3    H248142   0.410   5.349   9.288 -0.3154 -1.5071 -0.1959
 7983TIP3   OH248143   4.510   1.124  10.286 -0.3163 -0.2289  0.3734
 7983TIP3    H148144   4.476   1.096  10.201  1.4789 -0.0477 -0.4514
 7983TIP3    H248145   4.514   1.220  10.279 -1.7581 -0.0726  1.3258
 7984TIP3   OH248146   2.913   3.556  10.623 -0.0990  0.4770 -0.1408
 7984TIP3    H148147   2.879   3.491  10.562 -1.0729 -1.0072  1.8932
 7984TIP3    H248148   3.001   3.524  10.646  0.3544  1.1489 -0.8722
 7985TIP3   OH248149   1.863   0.123   8.548 -0.3698 -0.2635 -0.2387
 7985TIP3    H148150   1.770   0.126   8.526  0.0622 -1.4909 -2.5434
 7985TIP3    H248151   1.899   0.204   8.512 -0.1495 -0.9621 -1.6448
 7986TIP3   OH248152   1.538   3.299   9.853 -0.0776 -0.1609 -0.4091
 7986TIP3    H148153   1.552   3.291   9.758  0.7971 -0.6436 -0.2468
 7986TIP3    H248154   1.530   3.209   9.884 -1.3298  0.0168 -0.1436
 7987TIP3   OH248155   2.556   6.699   9.020 -0.2143  0.5436  0.3297
 7987TIP3    H148156   2.561   6.757   8.944 -2.0026 -0.4382 -0.5973
 7987TIP3    H248157   2.463   6.675   9.026  0.2314 -1.0395  1.5676
 7988TIP3   OH248158   5.977   6.469  10.398 -0.2975 -0.4149  0.7186
 7988TIP3    H148159   6.052   6.529  10.395  0.0784 -0.8735  0.7624
 7988TIP3    H248160   5.954   6.464  10.491 -0.7573  0.1793  0.6396
 7989TIP3   OH248161   6.691   4.946   9.787  0.0136  0.2432  0.2334
 7989TIP3    H148162   6.763   4.884   9.781  0.6008  1.0601 -2.0793
 7989TIP3    H248163   6.733   5.032   9.794 -0.7256  0.6310  0.0689
 7990TIP3   OH248164   0.406   2.155   8.996  0.1602 -0.4081 -0.1959
 7990TIP3    H148165   0.495   2.138   9.029 -0.0854  0.1287  0.7639
 7990TIP3    H248166   0.349   2.141   9.072 -0.6867 -1.5781 -0.9950
 7991TIP3   OH248167   1.050   1.867   9.873 -0.3634  0.3135  0.0429
 7991TIP3    H148168   1.088   1.797   9.926  1.2633  1.3567  0.3286
 7991TIP3    H248169   1.074   1.947   9.919  0.0946  1.1967 -1.6537
 7992TIP3   OH248170   6.014   1.244   9.029 -0.3704 -0.4406 -0.4994
 7992TIP3    H148171   6.079   1.267   9.096 -0.2958 -0.7730 -0.4543
 7992TIP3    H248172   5.974   1.328   9.004 -2.2115 -0.5053  1.8071
 7993TIP3   OH248173   5.670   5.271   9.016 -0.0421 -0.4430  0.2302
 7993TIP3    H148174   5.630   5.196   9.061 -0.1342 -0.5465 -0.0222
 7993TIP3    H248175   5.759   5.274   9.050  0.2924 -1.3025 -0.5079
 7994TIP3   OH248176   0.444   1.618  10.016  0.5169 -0.1196 -0.2645
 7994TIP3    H148177   0.392   1.662  10.084 -0.4154  0.7587 -1.5001
 7994TIP3    H248178   0.509   1.683   9.990  0.4522 -0.2139 -0.6618
 7995TIP3   OH248179   1.702   6.050  12.212 -0.0477  0.3565 -0.0034
 7995TIP3    H148180   1.616   6.090  12.221 -0.2762  0.2354 -1.5389
 7995TIP3    H248181   1.751   6.082  12.289 -0.6581  2.4565 -0.4343
 7996TIP3   OH248182   0.154   1.646   8.635  0.0290 -0.0300  0.2305
 7996TIP3    H148183   0.102   1.683   8.707  0.9856 -0.6132  1.2641
 7996TIP3    H248184   0.221   1.713   8.618  0.9800 -0.6836  1.2330
 7997TIP3   OH248185   0.353   6.180  11.488  0.5648 -0.0878 -0.2951
 7997TIP3    H148186   0.325   6.099  11.531 -0.2661  0.1280 -0.4182
 7997TIP3    H248187   0.406   6.225  11.554 -0.7619  0.2821  0.5565
 7998TIP3   OH248188   5.535   5.044  11.241  0.1075  0.2533 -0.0859
 7998TIP3    H148189   5.444   5.042  11.269  0.7435  1.5913  2.4080
 7998TIP3    H248190   5.563   5.135  11.253  1.4568  0.1600 -2.0229
 7999TIP3   OH248191   1.430   5.035  10.027  0.1360 -0.1797  0.1764
 7999TIP3    H148192   1.410   4.945  10.053  0.4579 -0.3496 -0.1508
 7999TIP3    H248193   1.349   5.083  10.044 -1.0355 -1.0981 -2.2447
 8000TIP3   OH248194   1.183   1.251   9.794 -0.2492  0.3981 -0.2615
 8000TIP3    H148195   1.177   1.160   9.822 -1.4884  0.2462 -0.9206
 8000TIP3    H248196   1.092   1.278   9.781  0.1104  1.6451 -0.3664
 8001TIP3   OH248197   4.755   4.435   9.751 -0.3052  0.1289  0.1667
 8001TIP3    H148198   4.796   4.479   9.677  1.0202  0.6122  1.1520
 8001TIP3    H248199   4.763   4.497   9.823 -1.4775 -0.3740  0.7605
 8002TIP3   OH248200   5.556   4.090  11.029 -0.4085 -0.1097  0.1754
 8002TIP3    H148201   5.587   4.081  11.120 -1.5389  1.5676  0.7832
 8002TIP3    H248202   5.520   4.004  11.008  3.8041 -2.0200 -0.3659
 8003TIP3   OH248203   4.647   1.928   9.359 -0.8104  0.6887 -0.6188
 8003TIP3    H148204   4.653   1.837   9.331 -0.0849  0.9605 -1.4226
 8003TIP3    H248205   4.714   1.937   9.426 -1.7578  0.3228  0.3924
 8004TIP3   OH248206   0.351   0.734  10.646  0.5537 -0.2471  0.1222
 8004TIP3    H148207   0.297   0.809  10.619  1.2697  0.3409  0.2881
 8004TIP3    H248208   0.369   0.687  10.564  1.7513  0.8817 -0.3036
 8005TIP3   OH248209   5.278   5.016   8.342  0.1542  0.1329  0.3882
 8005TIP3    H148210   5.214   5.018   8.413  0.5146 -1.8205  0.8065
 8005TIP3    H248211   5.244   4.951   8.281  2.0017 -1.4054  0.9207
 8006TIP3   OH248212   0.630   5.091  10.559 -0.1915 -0.0866  0.2640
 8006TIP3    H148213   0.711   5.142  10.566 -0.5408  0.7125 -1.2056
 8006TIP3    H248214   0.563   5.147  10.597 -0.2783 -0.1888  0.2618
 8007TIP3   OH248215   4.009   0.851   9.206 -0.0784  0.3831  0.5118
 8007TIP3    H148216   4.028   0.944   9.195  0.3276  0.0587 -1.9237
 8007TIP3    H248217   3.928   0.837   9.157 -0.1483 -0.5687  0.8740
 8008TIP3   OH248218   0.264   1.999  11.481 -0.1385 -0.1716  0.9542
 8008TIP3    H148219   0.292   2.091  11.490  1.8732 -0.7077  0.7119
 8008TIP3    H248220   0.199   2.001  11.412  0.8904  0.9237 -0.0442
 8009TIP3   OH248221   1.594   1.453   9.254  0.1368 -0.4623  0.2409
 8009TIP3    H148222   1.583   1.378   9.314 -0.0533 -2.0074 -1.6237
 8009TIP3    H248223   1.505   1.477   9.229  0.2492 -1.8456 -1.7167
 8010TIP3   OH248224   3.062   4.859   9.047  0.1985  0.7842 -0.3933
 8010TIP3    H148225   3.149   4.874   9.084 -0.1010  1.2998  0.1112
 8010TIP3    H248226   3.078   4.846   8.954  0.8443  0.6090 -0.2652
 8011TIP3   OH248227   1.517   4.499   9.609  0.0625 -0.0754 -0.2720
 8011TIP3    H148228   1.523   4.453   9.693  1.5052 -1.8612 -1.2894
 8011TIP3    H248229   1.507   4.591   9.633 -1.5442 -0.7192  1.8421
 8012TIP3   OH248230   0.549   6.054  12.504 -0.5288  0.1637  0.0022
 8012TIP3    H148231   0.618   6.107  12.466  2.1293 -1.8918  1.6115
 8012TIP3    H248232   0.485   6.043  12.433  2.2552 -0.3323 -2.6548
 8013TIP3   OH248233   4.083   6.194  10.292 -0.0803 -0.0487  0.0098
 8013TIP3    H148234   4.100   6.266  10.354  0.4366 -0.0120 -0.1731
 8013TIP3    H248235   4.140   6.212  10.218  1.3139 -1.5247  0.6483
 8014TIP3   OH248236   1.012   5.998   8.552  0.1206 -0.4297 -0.1004
 8014TIP3    H148237   1.037   5.906   8.561  0.3923 -0.2505  1.1259
 8014TIP3    H248238   0.931   6.007   8.602  1.4117  0.5064  1.9653
 8015TIP3   OH248239   5.108   0.786  10.260  0.0612  0.1066 -0.2790
 8015TIP3    H148240   5.042   0.718  10.247  0.7258 -0.3539 -1.4696
 8015TIP3    H248241   5.110   0.834  10.177 -0.6025  1.8071  0.6299
 8016TIP3   OH248242   2.375   6.005   9.088 -0.7476 -0.1116 -0.7315
 8016TIP3    H148243   2.295   6.056   9.078 -0.6227  0.5264  1.0494
 8016TIP3    H248244   2.379   5.985   9.182  1.0662 -0.2810 -0.8048
 8017TIP3   OH248245   1.635   5.506  10.698  0.3233  0.2805 -0.5669
 8017TIP3    H148246   1.610   5.564  10.626  1.0499 -1.0814 -1.9788
 8017TIP3    H248247   1.556   5.455  10.717 -0.0748  1.1159  0.1239
 8018TIP3   OH248248   3.915   1.676   9.427  0.1088 -0.0083 -0.3946
 8018TIP3    H148249   3.986   1.739   9.423  0.2197 -0.0890  0.2439
 8018TIP3    H248250   3.852   1.706   9.360 -0.4013  1.4646  0.6932
 8019TIP3   OH248251   1.832   3.080   9.480 -0.6941  0.9101  0.0885
 8019TIP3    H148252   1.896   3.056   9.547 -0.5957  0.9790  0.0198
 8019TIP3    H248253   1.875   3.057   9.397 -1.1191  0.1005  0.0825
 8020TIP3   OH248254   3.631   5.284   8.629  0.3201 -0.5015  0.1643
 8020TIP3    H148255   3.558   5.273   8.691 -0.1863 -1.5274 -0.5722
 8020TIP3    H248256   3.641   5.378   8.620 -0.5676 -0.3450  0.6982
 8021TIP3   OH248257   3.371   3.653  10.074 -0.2627  0.1077  0.8376
 8021TIP3    H148258   3.364   3.727  10.134 -0.8446 -0.6522  1.7332
 8021TIP3    H248259   3.456   3.615  10.093  0.1090  0.6250  0.2607
 8022TIP3   OH248260   0.280   2.437  10.451 -0.0054  0.8398 -0.1203
 8022TIP3    H148261   0.255   2.492  10.525  0.2558  1.4380 -0.4671
 8022TIP3    H248262   0.353   2.484  10.410  0.5154  0.0091 -0.1612
 8023TIP3   OH248263   0.453   0.672  10.883 -0.4933 -0.3362 -0.3507
 8023TIP3    H148264   0.399   0.707  10.813  1.0237 -1.2225 -2.0345
 8023TIP3    H248265   0.533   0.724  10.880 -0.3115 -0.5394  0.5766
 8024TIP3   OH248266   2.215   1.896  10.995  0.0589  0.4003  0.2067
 8024TIP3    H148267   2.172   1.947  11.063  2.5547  0.9299  1.4737
 8024TIP3    H248268   2.167   1.813  10.994 -0.3291  0.5493  2.2833
 8025TIP3   OH248269   2.613   4.590  10.210 -0.3441 -0.0821  0.2360
 8025TIP3    H148270   2.541   4.540  10.249  0.5562 -0.8453  0.9721
 8025TIP3    H248271   2.584   4.608  10.120 -2.0878  0.9568  0.9500
 8026TIP3   OH248272   0.678   2.186  10.694 -0.0838  0.2007  1.0699
 8026TIP3    H148273   0.691   2.211  10.786 -0.4453  1.1375  0.8795
 8026TIP3    H248274   0.762   2.148  10.668 -0.2254 -0.7808  1.9988
 8027TIP3   OH248275   4.086   6.526  10.145 -0.7313 -0.7078 -0.6572
 8027TIP3    H148276   4.155   6.586  10.173 -0.8869 -1.3533  1.3162
 8027TIP3    H248277   4.131   6.458  10.095  0.0777 -1.0464  0.4954
 8028TIP3   OH248278   0.749   0.915  10.011 -0.1855 -0.2667  0.3667
 8028TIP3    H148279   0.807   0.850  10.052  0.0141 -1.0323 -1.0509
 8028TIP3    H248280   0.808   0.974   9.965 -0.4125  0.4662  1.0046
 8029TIP3   OH248281   1.038   2.397  10.673  0.5387  0.2257 -0.0838
 8029TIP3    H148282   1.130   2.405  10.698  0.2191  0.7372  0.9720
 8029TIP3    H248283   1.017   2.305  10.688  1.2199 -0.2084 -1.6090
 8030TIP3   OH248284   5.072   5.251  10.617 -0.1922 -0.5505 -0.5099
 8030TIP3    H148285   5.149   5.245  10.560 -0.2002  0.8270 -0.6824
 8030TIP3    H248286   5.109   5.257  10.706 -0.1462 -0.9643 -0.4948
 8031TIP3   OH248287   2.689   6.349  10.753 -0.4083  0.0962  0.2652
 8031TIP3    H148288   2.777   6.313  10.752 -1.0164 -1.4801  0.0113
 8031TIP3    H248289   2.658   6.336  10.843 -1.4293 -2.2112 -0.3344
 8032TIP3   OH248290   3.030   2.624  10.508 -0.2152 -0.3025 -0.1988
 8032TIP3    H148291   3.010   2.558  10.574 -1.6707  1.4546  1.2594
 8032TIP3    H248292   2.989   2.704  10.542  2.5335  1.6897 -1.1661
 8033TIP3   OH248293   5.415   2.716   9.988  0.1436 -0.4914  0.2311
 8033TIP3    H148294   5.391   2.718  10.081 -2.0571 -1.1464 -0.2857
 8033TIP3    H248295   5.502   2.675   9.988  0.8888  0.9105  2.0937
 8034TIP3   OH248296   4.972   2.119  11.968 -0.1436 -0.4649  0.0266
 8034TIP3    H148297   4.950   2.060  11.896 -1.6598  0.2275 -0.1064
 8034TIP3    H248298   4.888   2.141  12.008  0.5465  0.3484  1.0762
 8035TIP3   OH248299   2.194   5.667  10.017 -0.2530  0.2014 -0.0988
 8035TIP3    H148300   2.155   5.630  10.097  0.3634  0.3363  0.2692
 8035TIP3    H248301   2.132   5.735   9.990 -1.3341 -0.9885 -0.7096
 8036TIP3   OH248302   0.208   6.122   9.182 -0.1831 -0.2861 -0.0055
 8036TIP3    H148303   0.148   6.186   9.144  0.2731  0.3738  0.3554
 8036TIP3    H248304   0.295   6.163   9.175  0.4064 -1.7036 -1.5854
 8037TIP3   OH248305   4.193   6.266  11.204  0.4284  0.1815  0.7631
 8037TIP3    H148306   4.273   6.221  11.176 -1.3877 -2.3830 -0.7477
 8037TIP3    H248307   4.129   6.196  11.216 -2.4055  2.2557 -0.9467
 8038TIP3   OH248308   0.176   2.114   9.747 -0.2541 -0.3660 -0.1966
 8038TIP3    H148309   0.239   2.178   9.780  0.5314 -0.6066 -1.1852
 8038TIP3    H248310   0.091   2.157   9.759  0.3259  1.5082 -2.0697
 8039TIP3   OH248311   1.021   4.780   9.785  0.0244 -0.3875  0.3673
 8039TIP3    H148312   1.037   4.871   9.762  0.1701 -0.1842  1.2285
 8039TIP3    H248313   0.981   4.741   9.707  2.9191 -0.4249 -1.2235
 8040TIP3   OH248314   1.762   4.505   9.932  0.3527  0.4662 -0.2589
 8040TIP3    H148315   1.797   4.577   9.985 -0.0211 -0.8678  1.9320
 8040TIP3    H248316   1.838   4.470   9.886  0.8060  1.2689 -0.1477
 8041TIP3   OH248317   3.805   1.487  12.075  0.7856  0.4960 -0.0962
 8041TIP3    H148318   3.804   1.580  12.096  1.6035  0.0649  2.1655
 8041TIP3    H248319   3.886   1.474  12.027 -1.5319  1.6622 -4.9392
 8042TIP3   OH248320   3.430   6.565   9.999  0.5670  0.2091 -0.5626
 8042TIP3    H148321   3.502   6.502  10.006  1.5728  1.4371  2.0089
 8042TIP3    H248322   3.468   6.647  10.032 -1.1634  1.7348 -2.1309
 8043TIP3   OH248323   4.234   6.746  10.175  0.3224  0.4078  0.0991
 8043TIP3    H148324   4.311   6.770  10.122  0.0285  1.3022  0.0500
 8043TIP3    H248325   4.268   6.738  10.264  0.7068 -0.5015 -0.1184
 8044TIP3   OH248326   2.134   2.318  10.734  0.1897  0.1640 -0.2385
 8044TIP3    H148327   2.193   2.347  10.803 -0.0095 -0.3455  0.1449
 8044TIP3    H248328   2.121   2.225  10.750 -0.9284  0.3153 -0.1576
 8045TIP3   OH248329   1.084   2.117   9.642 -0.0211  0.1506  0.0089
 8045TIP3    H148330   1.109   2.055   9.574  1.1661  0.4448  0.1617
 8045TIP3    H248331   1.094   2.069   9.724 -2.9646 -0.7229 -0.0328
 8046TIP3   OH248332   1.937   4.636  10.092 -0.2812  0.0399  0.0237
 8046TIP3    H148333   1.989   4.708  10.056  0.7407 -1.6920 -2.1616
 8046TIP3    H248334   1.975   4.618  10.178 -1.0020  2.4781  0.9444
 8047TIP3   OH248335   4.810   5.258   9.304  0.0049  0.3547 -0.1479
 8047TIP3    H148336   4.764   5.223   9.228  0.1809 -2.7776  1.0461
 8047TIP3    H248337   4.900   5.270   9.274 -0.0012 -0.5306 -0.5522
 8048TIP3   OH248338   1.459   2.346   9.150 -0.1558 -0.4679  0.7505
 8048TIP3    H148339   1.390   2.282   9.164  0.9204 -1.7687  0.4043
 8048TIP3    H248340   1.475   2.384   9.236  1.1308 -2.8018  1.6647
 8049TIP3   OH248341   3.445   4.879  11.021 -0.9085  0.2623  0.1003
 8049TIP3    H148342   3.484   4.812  10.964 -1.0612  0.9686 -0.8616
 8049TIP3    H248343   3.368   4.836  11.059  0.4998 -0.9925  1.6517
 8050TIP3   OH248344   1.455   4.110   9.530  0.0014  0.3041  0.2507
 8050TIP3    H148345   1.394   4.067   9.471  1.3921 -0.5308 -0.6210
 8050TIP3    H248346   1.503   4.038   9.572  2.9073  0.8806 -1.7964
 8051TIP3   OH248347   1.224   4.531  10.658  0.1227  0.1581 -0.0760
 8051TIP3    H148348   1.138   4.538  10.701  0.4543  0.6738  0.5299
 8051TIP3    H248349   1.232   4.613  10.609  0.3625  0.2037  0.0419
 8052TIP3   OH248350   5.041   6.506  10.349  0.4858 -0.1901 -0.3196
 8052TIP3    H148351   5.010   6.519  10.439 -0.0765 -0.3233 -0.4895
 8052TIP3    H248352   5.058   6.595  10.317  0.2877 -0.1138 -0.2189
 8053TIP3   OH248353   5.428   0.850   8.848 -0.1105 -0.0302 -0.2739
 8053TIP3    H148354   5.403   0.935   8.812  1.5065  0.2837 -0.7446
 8053TIP3    H248355   5.348   0.816   8.887 -0.8498  1.6206 -0.2530
 8054TIP3   OH248356   1.900   2.811  11.793  0.5094  0.3480  0.5527
 8054TIP3    H148357   1.840   2.863  11.847  1.0494 -0.8433  2.4154
 8054TIP3    H248358   1.878   2.720  11.814 -0.5197 -0.2611 -2.7294
 8055TIP3   OH248359   3.631   4.178  10.747 -0.7013  0.4514 -0.4832
 8055TIP3    H148360   3.608   4.152  10.658 -0.0891  1.0078 -0.8083
 8055TIP3    H248361   3.676   4.102  10.784 -1.1131  0.1564 -0.5857
 8056TIP3   OH248362   4.309   1.516   9.028 -0.6373  0.4286  0.2375
 8056TIP3    H148363   4.366   1.481   8.960  1.0600  1.6431  0.9806
 8056TIP3    H248364   4.251   1.577   8.981  0.4941  1.2277 -0.1577
 8057TIP3   OH248365   3.247   3.768   9.144 -0.8746  0.2049  0.1103
 8057TIP3    H148366   3.336   3.743   9.121 -1.0033  1.0685 -1.4828
 8057TIP3    H248367   3.227   3.718   9.223  1.4255  0.9053  1.2057
 8058TIP3   OH248368   4.448   5.693   8.840 -0.2871 -0.1371  0.4548
 8058TIP3    H148369   4.403   5.686   8.756  2.5912 -4.6433 -1.1661
 8058TIP3    H248370   4.393   5.644   8.901 -0.2154 -0.9006 -0.0775
 8059TIP3   OH248371   0.919   2.734   9.427  0.9733 -0.3545  0.3325
 8059TIP3    H148372   0.960   2.671   9.369  0.9872 -0.3939  0.3853
 8059TIP3    H248373   0.991   2.769   9.480  0.9661 -0.2940  0.3031
 8060TIP3   OH248374   0.973   4.821  10.548 -0.0339  0.2611  0.1067
 8060TIP3    H148375   0.963   4.907  10.589  0.7117  0.3044  0.2089
 8060TIP3    H248376   1.056   4.826  10.501 -0.4305 -0.0940 -0.6706
 8061TIP3   OH248377   2.507   5.888  10.641  0.3428 -0.5296 -0.3122
 8061TIP3    H148378   2.569   5.862  10.573 -0.2511 -1.8526 -0.3864
 8061TIP3    H248379   2.443   5.943  10.596  0.6687 -0.3309 -0.5359
 8062TIP3   OH248380   4.915   3.691   8.826  0.0938 -0.3126  0.4590
 8062TIP3    H148381   4.846   3.630   8.852 -0.1538  0.1149  0.8192
 8062TIP3    H248382   4.996   3.645   8.847 -0.0691 -0.8958 -0.1461
 8063TIP3   OH248383   6.682   0.391  10.301  0.3359 -0.0857 -0.1655
 8063TIP3    H148384   6.696   0.445  10.379 -0.7756  0.4669 -0.3343
 8063TIP3    H248385   6.587   0.377  10.298  0.0909  1.5246 -2.4716
 8064TIP3   OH248386   0.486   5.837  11.854  0.2416 -0.2466  0.3610
 8064TIP3    H148387   0.467   5.753  11.896  0.6387 -0.3864  0.2605
 8064TIP3    H248388   0.581   5.841  11.850  0.2213  0.1641  0.2721
 8065TIP3   OH248389   1.899   6.013   8.180 -0.4083  0.3201 -0.1511
 8065TIP3    H148390   1.847   6.056   8.112 -2.5963  0.0105  1.2515
 8065TIP3    H248391   1.960   6.081   8.210 -2.0766  1.6911  0.2693
 8066TIP3   OH248392   6.257   3.311  10.949  0.2343 -0.0912 -0.4254
 8066TIP3    H148393   6.230   3.262  10.871  1.2182  1.0206 -1.5114
 8066TIP3    H248394   6.306   3.248  11.001 -0.1373 -0.7657 -0.8765
 8067TIP3   OH248395   0.099   5.967   9.604 -0.2605  0.4686  0.6551
 8067TIP3    H148396   0.045   6.045   9.593  1.4212  1.4517 -1.4986
 8067TIP3    H248397   0.143   5.980   9.688 -2.1701  0.3503  1.7269
 8068TIP3   OH248398   4.155   4.268   9.734  0.1459  0.3660 -0.2191
 8068TIP3    H148399   4.099   4.191   9.720  1.5527 -0.5778 -0.8810
 8068TIP3    H248400   4.115   4.312   9.809 -0.2499 -1.4570  0.7157
 8069TIP3   OH248401   2.698   3.940  11.911  0.2638  0.2539 -0.0818
 8069TIP3    H148402   2.787   3.952  11.877 -0.6967  0.5752 -2.6920
 8069TIP3    H248403   2.658   3.877  11.851 -1.1628 -0.2092  1.3072
 8070TIP3   OH248404   2.033   0.878  11.307 -0.2029  1.1337 -0.1123
 8070TIP3    H148405   2.084   0.797  11.312 -1.1747  0.5270  0.0058
 8070TIP3    H248406   2.092   0.944  11.344  0.7755  0.5847 -0.6222
 8071TIP3   OH248407   0.753   3.647  11.347 -0.7742 -0.2800  0.0139
 8071TIP3    H148408   0.743   3.570  11.402 -0.9513 -0.0863  0.2615
 8071TIP3    H248409   0.749   3.721  11.409  1.2530 -0.1276  0.0125
 8072TIP3   OH248410   5.390   2.826  10.714  0.0948  0.2868 -0.7595
 8072TIP3    H148411   5.465   2.855  10.663 -0.3563  0.5299 -1.2872
 8072TIP3    H248412   5.321   2.812  10.650 -0.4999  0.6744 -0.2061
 8073TIP3   OH248413   4.492   1.841   9.014  0.1277  0.1557 -0.2994
 8073TIP3    H148414   4.583   1.849   9.041 -0.4736  1.4662  1.5081
 8073TIP3    H248415   4.451   1.789   9.082 -0.5749 -0.0518 -0.8700
 8074TIP3   OH248416   2.964   0.394  10.337 -0.2208  0.4845 -0.2293
 8074TIP3    H148417   2.956   0.312  10.387  0.4997  1.5563  1.7414
 8074TIP3    H248418   2.921   0.375  10.253 -1.9430 -1.2519  0.9657
 8075TIP3   OH248419   3.148   3.980   8.987  0.2655 -0.0286 -0.0043
 8075TIP3    H148420   3.063   3.958   8.950  0.7103 -0.9600 -0.4775
 8075TIP3    H248421   3.171   3.906   9.043  1.0103 -0.0362 -0.3017
 8076TIP3   OH248422   3.679   6.728   8.785 -0.2311  0.2027 -0.0490
 8076TIP3    H148423   3.772   6.736   8.803 -0.5623 -0.1358  2.0731
 8076TIP3    H248424   3.647   6.818   8.781  0.1236  0.3118 -0.4424
 8077TIP3   OH248425   6.708   2.989   9.801  0.5681  0.8049  0.1142
 8077TIP3    H148426   6.796   3.002   9.764  0.1724  2.0967 -0.4256
 8077TIP3    H248427   6.657   3.063   9.769 -0.6550  0.2354  0.6664
 8078TIP3   OH248428   0.185   0.041  10.435 -0.8503 -0.1566  0.0052
 8078TIP3    H148429   0.203  -0.053  10.435  0.7531  0.0719  2.1236
 8078TIP3    H248430   0.218   0.072  10.519  1.3355  2.8117 -1.7330
 8079TIP3   OH248431   2.589   2.004  11.516  0.5773 -0.0987  0.0432
 8079TIP3    H148432   2.518   2.033  11.574 -1.4602 -1.9449 -1.3784
 8079TIP3    H248433   2.668   2.013  11.569 -0.6670  1.9635  1.7372
 8080TIP3   OH248434   4.297   0.518  10.007 -0.0172 -0.2740  0.4835
 8080TIP3    H148435   4.282   0.428   9.979  0.3169 -0.8514  2.0825
 8080TIP3    H248436   4.310   0.512  10.101  1.0492  1.3229  0.4727
 8081TIP3   OH248437   1.318   1.239  10.327 -0.1113 -0.4866  0.4437
 8081TIP3    H148438   1.301   1.241  10.233  0.6761  1.4111  0.2883
 8081TIP3    H248439   1.411   1.216  10.334 -0.2568 -0.9745  0.7768
 8082TIP3   OH248440   1.058   2.134  11.595 -0.1655 -0.0028  0.5474
 8082TIP3    H148441   1.079   2.084  11.674  1.1394  2.3559  1.8172
 8082TIP3    H248442   1.000   2.204  11.626 -0.2044  0.5643 -0.7372
 8083TIP3   OH248443   2.917   5.525  10.211 -0.4826 -0.3747  0.4595
 8083TIP3    H148444   2.933   5.609  10.168 -1.0491 -1.0895 -1.2406
 8083TIP3    H248445   2.987   5.468  10.178 -0.8412 -0.9032  0.6125
 8084TIP3   OH248446   1.260   0.249  10.188 -0.4342  0.5434  0.3425
 8084TIP3    H148447   1.339   0.221  10.142 -1.3125 -0.8576 -0.4176
 8084TIP3    H248448   1.194   0.257  10.119 -1.3667  0.0394  1.1513
 8085TIP3   OH248449   0.398   5.113  10.813 -0.0358  0.3498 -0.2548
 8085TIP3    H148450   0.319   5.093  10.761  0.5001  1.1481 -1.4261
 8085TIP3    H248451   0.376   5.194  10.859  0.1656  0.6760 -0.7304
 8086TIP3   OH248452   1.561   1.991  12.265 -0.1028  0.0266  0.5761
 8086TIP3    H148453   1.559   2.022  12.174  2.1999  1.2814  0.8739
 8086TIP3    H248454   1.472   1.961  12.282 -0.4043 -1.0721 -2.3594
 8087TIP3   OH248455   2.126   3.037   9.358  0.5697 -0.7814 -0.3814
 8087TIP3    H148456   2.177   2.989   9.293  2.0238 -1.1408  0.9717
 8087TIP3    H248457   2.168   3.123   9.363  0.0960 -0.5471 -0.3133
 8088TIP3   OH248458   5.516   4.037   9.070  0.1318 -0.2071 -0.3946
 8088TIP3    H148459   5.516   4.130   9.047 -0.6200 -0.0753  0.0720
 8088TIP3    H248460   5.491   3.992   8.990  2.1621 -0.1643 -1.0886
 8089TIP3   OH248461   3.314   5.730  11.984  0.1186  0.0175 -0.3818
 8089TIP3    H148462   3.384   5.728  12.050  0.5885 -1.0617 -0.8823
 8089TIP3    H248463   3.236   5.702  12.032  0.6478 -1.7207 -0.4435
 8090TIP3   OH248464   0.725   4.839  10.838  0.2208  0.1773  0.7646
 8090TIP3    H148465   0.803   4.895  10.837 -0.0373  0.6652  2.8741
 8090TIP3    H248466   0.751   4.761  10.790  1.6441  0.7904  0.4853
 8091TIP3   OH248467   1.605   1.761   9.046  0.4238 -0.2772  0.0046
 8091TIP3    H148468   1.675   1.704   9.079 -0.6193 -2.1705 -0.8858
 8091TIP3    H248469   1.526   1.728   9.089 -0.3126  0.0164 -1.0830
 8092TIP3   OH248470   5.110   0.587  12.104 -0.2060  0.5474 -0.3104
 8092TIP3    H148471   5.199   0.555  12.114 -0.5840 -0.9317 -1.3998
 8092TIP3    H248472   5.080   0.604  12.194  0.4289 -1.0389  0.2289
 8093TIP3   OH248473   4.382   3.913  12.230 -0.3288  0.0719 -0.4391
 8093TIP3    H148474   4.320   3.974  12.270  0.4710  2.3987 -2.5183
 8093TIP3    H248475   4.382   3.838  12.289 -1.9368  1.7367  1.8851
 8094TIP3   OH248476   0.395   2.667   9.811 -0.1685  0.2622  0.0837
 8094TIP3    H148477   0.391   2.696   9.901 -1.4120 -2.6365  1.0967
 8094TIP3    H248478   0.307   2.680   9.777 -0.3112 -0.6838  0.0515
 8095TIP3   OH248479   4.089   0.082   9.440 -0.4030  0.3456  0.3197
 8095TIP3    H148480   4.140   0.054   9.364 -2.7721 -0.3162 -1.1353
 8095TIP3    H248481   4.103   0.177   9.444 -0.3751  0.4232 -1.0809
 8096TIP3   OH248482   1.974   1.564  11.918 -0.6744 -0.1798  0.4949
 8096TIP3    H148483   1.948   1.582  12.008 -2.6897 -0.6441  0.0464
 8096TIP3    H248484   1.979   1.468  11.914  3.6835 -0.2027  1.1755
 8097TIP3   OH248485   0.983   3.427  10.991  0.1776 -0.0556  0.6902
 8097TIP3    H148486   1.048   3.379  11.043  0.9122 -0.1362 -0.2686
 8097TIP3    H248487   0.980   3.380  10.907  0.6042  1.3014 -0.1202
 8098TIP3   OH248488   3.073   4.481   8.999 -0.3034  0.3241  0.2701
 8098TIP3    H148489   3.045   4.390   8.986  1.2075 -0.1976  0.4536
 8098TIP3    H248490   3.080   4.517   8.910  0.6536 -0.2622  0.0867
 8099TIP3   OH248491   3.593   0.595   9.218 -0.1311 -0.2401 -0.0890
 8099TIP3    H148492   3.675   0.602   9.169  1.0200 -0.2439  1.7455
 8099TIP3    H248493   3.533   0.653   9.171  0.3958 -1.4185 -2.3927
 8100TIP3   OH248494   2.113   2.930  10.966  0.4122 -0.4186 -0.0050
 8100TIP3    H148495   2.153   2.901  10.884  1.6578 -1.0168  0.7835
 8100TIP3    H248496   2.161   3.010  10.989 -1.1900  0.8285 -0.7813
 8101TIP3   OH248497   1.348   0.904  10.118  0.3520 -0.3252  0.3026
 8101TIP3    H148498   1.340   0.846  10.194  1.3288 -1.1330 -0.1920
 8101TIP3    H248499   1.419   0.866  10.067 -0.6096 -0.0801 -1.2690
 8102TIP3   OH248500   2.875   2.928  10.946 -0.3274 -0.5948  0.2405
 8102TIP3    H148501   2.961   2.907  10.909 -0.1625  1.6483 -0.7861
 8102TIP3    H248502   2.821   2.949  10.870 -0.9481  0.8252  1.0539
 8103TIP3   OH248503   2.378   5.064  10.659 -0.4154 -0.1784  0.2377
 8103TIP3    H148504   2.331   4.990  10.699 -1.0331  0.4951  0.7866
 8103TIP3    H248505   2.371   5.135  10.724  0.8614  0.1267  0.0725
 8104TIP3   OH248506   2.057   6.204  10.428  0.0973 -0.1989  0.1852
 8104TIP3    H148507   2.017   6.169  10.508 -0.4865 -1.4358 -0.6081
 8104TIP3    H248508   1.987   6.256  10.387  0.6846  1.2052  0.9151
 8105TIP3   OH248509   1.055   6.615   9.142 -0.5239 -0.0743  0.0250
 8105TIP3    H148510   0.997   6.663   9.201 -1.7351 -0.2792 -0.9391
 8105TIP3    H248511   1.080   6.536   9.191  0.9684  1.1712  1.3765
 8106TIP3   OH248512   5.129   5.735   9.390  0.1846 -0.3113  0.3537
 8106TIP3    H148513   5.104   5.649   9.423  1.7253 -1.2408 -0.7326
 8106TIP3    H248514   5.221   5.745   9.416  0.1789  0.7647  0.0128
 8107TIP3   OH248515   6.539   3.630  10.753 -0.0581  0.2454  0.1572
 8107TIP3    H148516   6.616   3.680  10.724 -0.9496  1.1128 -0.8190
 8107TIP3    H248517   6.501   3.683  10.823 -0.1743  0.1927  0.1346
 8108TIP3   OH248518   2.629   3.376  10.616  0.4433 -0.9964  0.3766
 8108TIP3    H148519   2.631   3.286  10.649 -0.6785 -0.7110  1.3307
 8108TIP3    H248520   2.620   3.367  10.522  0.1716 -1.8939  0.4744
 8109TIP3   OH248521   4.189   2.888  10.533  0.4719  0.1396  0.1513
 8109TIP3    H148522   4.159   2.802  10.564 -0.1610 -0.0597 -0.9605
 8109TIP3    H248523   4.125   2.949  10.570 -0.4933 -0.1348 -0.9723
 8110TIP3   OH248524   4.534   5.230  11.868 -0.1640 -0.1228 -0.1666
 8110TIP3    H148525   4.489   5.259  11.947 -0.1077  1.5414 -0.6957
 8110TIP3    H248526   4.605   5.174  11.900  0.0068  0.7066  0.9811
 8111TIP3   OH248527   2.020   0.934  10.213  0.4851  0.2497  0.2457
 8111TIP3    H148528   2.012   1.028  10.224 -1.2376 -0.0158  1.7980
 8111TIP3    H248529   1.952   0.910  10.150  0.9159  0.0335 -0.1450
 8112TIP3   OH248530   1.628   0.449   8.972  0.2012 -0.4978  0.4467
 8112TIP3    H148531   1.714   0.409   8.964  0.3034 -0.2888  0.4971
 8112TIP3    H248532   1.644   0.544   8.966 -0.2856 -0.5074 -2.0855
 8113TIP3   OH248533   2.206   0.584  11.294 -0.3932  0.1905 -0.0613
 8113TIP3    H148534   2.138   0.530  11.334 -0.8111 -0.3755 -1.4728
 8113TIP3    H248535   2.251   0.525  11.234 -0.6916  1.3039 -1.4581
 8114TIP3   OH248536   0.491   5.479   8.785  0.5350  0.0915  0.1027
 8114TIP3    H148537   0.455   5.394   8.760  0.0553  0.4092 -0.3034
 8114TIP3    H248538   0.455   5.496   8.872  2.9669 -1.4603  1.5242
 8115TIP3   OH248539   2.683   5.495  10.611 -0.0216  0.1489 -0.2175
 8115TIP3    H148540   2.595   5.525  10.632 -0.0251  1.0025 -1.3595
 8115TIP3    H248541   2.735   5.516  10.689 -1.1142 -1.8623  1.1373
 8116TIP3   OH248542   4.971   3.214   9.986 -0.0742  0.6428 -0.6028
 8116TIP3    H148543   5.003   3.270   9.916 -0.3074  1.8058  0.2017
 8116TIP3    H248544   4.897   3.167   9.947  0.4520  0.4915 -1.4374
 8117TIP3   OH248545   5.882   6.239  11.448 -0.4510  0.1870  0.3945
 8117TIP3    H148546   5.870   6.216  11.355  1.0318  0.7772  0.0264
 8117TIP3    H248547   5.855   6.161  11.496 -1.6775  0.0290 -0.5036
 8118TIP3   OH248548   2.349   5.143  10.367  0.3910  0.2244  0.5604
 8118TIP3    H148549   2.382   5.124  10.455  1.6762 -1.6260 -0.2650
 8118TIP3    H248550   2.288   5.072  10.349  0.6508  0.2047 -0.2856
 8119TIP3   OH248551   0.068   0.809  10.091  0.3704 -0.1580 -0.2020
 8119TIP3    H148552  -0.026   0.816  10.078  0.6859  0.8619 -2.2287
 8119TIP3    H248553   0.095   0.896  10.121  0.7433 -0.2980 -0.1278
 8120TIP3   OH248554   3.391   0.137  12.199  0.4982 -0.2309 -0.1686
 8120TIP3    H148555   3.412   0.051  12.162  0.2920 -0.3436 -0.0278
 8120TIP3    H248556   3.450   0.146  12.274 -0.5874 -0.9626  0.8090
 8121TIP3   OH248557   5.419   3.171  11.437 -0.0253  0.8352  0.7328
 8121TIP3    H148558   5.467   3.238  11.485  1.1335  1.8022 -1.6255
 8121TIP3    H248559   5.385   3.217  11.360  0.4841 -1.1829 -0.7626
 8122TIP3   OH248560   4.638   2.600  17.366  0.4778  0.2614  0.0704
 8122TIP3    H148561   4.542   2.602  17.366  0.4045  0.4904 -2.4721
 8122TIP3    H248562   4.663   2.655  17.440 -1.3621  0.8111  0.3364
 8123TIP3   OH248563   0.442   3.258   9.054 -0.4176  0.3143 -0.3330
 8123TIP3    H148564   0.508   3.215   9.000 -2.3583 -0.6961 -2.0078
 8123TIP3    H248565   0.432   3.345   9.016  1.5695  1.4077  1.4084
 8124TIP3   OH248566   2.512   2.320  11.545  0.0810  0.1313 -0.0667
 8124TIP3    H148567   2.598   2.324  11.586 -0.7609  1.7179  1.7478
 8124TIP3    H248568   2.513   2.240  11.493  2.6388  0.1375 -0.1637
 8125TIP3   OH248569   1.973   1.506   9.263  0.3971  0.2611 -0.3261
 8125TIP3    H148570   1.894   1.554   9.290 -0.1010 -0.3659 -0.6178
 8125TIP3    H248571   1.941   1.417   9.245  1.0904  0.1216 -0.8995
 8126TIP3   OH248572   4.423   4.208   9.443  0.4453 -0.2356 -0.3856
 8126TIP3    H148573   4.451   4.236   9.531 -1.7921 -0.5582  0.5064
 8126TIP3    H248574   4.460   4.121   9.433 -0.0533 -0.5910  0.6694
 8127TIP3   OH248575   3.415   0.571  11.150  0.4429 -0.2504 -0.1873
 8127TIP3    H148576   3.440   0.484  11.120  1.3468 -0.6031  1.5118
 8127TIP3    H248577   3.319   0.571  11.147  0.4436 -1.1507 -0.5523
 8128TIP3   OH248578   4.617   3.604   9.540  0.0104 -0.0955 -0.2744
 8128TIP3    H148579   4.562   3.683   9.547  0.8855  0.5705 -0.7395
 8128TIP3    H248580   4.705   3.638   9.527  0.5513 -1.1604  0.5624
 8129TIP3   OH248581   6.000   4.685  10.264 -0.0618  0.2043 -0.5805
 8129TIP3    H148582   5.938   4.718  10.330  1.8758 -0.4216  1.6844
 8129TIP3    H248583   6.086   4.705  10.300  1.0982 -0.6125 -2.7451
 8130TIP3   OH248584   1.530   1.051  10.303  0.4873 -0.1708 -0.0453
 8130TIP3    H148585   1.518   0.978  10.364 -0.6419  0.5145  0.5905
 8130TIP3    H248586   1.486   1.022  10.222 -1.3510  0.3905  0.7096
 8131TIP3   OH248587   1.009   4.579   9.056  0.2330  0.0783 -0.2025
 8131TIP3    H148588   1.044   4.638   9.122 -0.0951 -1.1590  1.1281
 8131TIP3    H248589   0.919   4.562   9.084 -0.8903  1.6550 -2.4892
 8132TIP3   OH248590   3.993   3.309   9.334  0.0659 -0.2489  0.3641
 8132TIP3    H148591   4.018   3.275   9.248 -1.5350  1.7700 -1.0158
 8132TIP3    H248592   4.051   3.265   9.396  2.9401 -0.0394 -1.9654
 8133TIP3   OH248593   4.832   5.172  11.280 -0.0381 -0.3767  0.5103
 8133TIP3    H148594   4.738   5.176  11.300 -0.2422 -0.8371 -0.3539
 8133TIP3    H248595   4.865   5.102  11.336 -0.3783 -0.8198  0.1608
 8134TIP3   OH248596   3.240   2.965  17.180  0.1080 -0.2923  0.0047
 8134TIP3    H148597   3.206   2.997  17.096  0.4344 -0.4643 -0.1930
 8134TIP3    H248598   3.312   3.025  17.201  0.6131 -0.7932 -0.2856
 8135TIP3   OH248599   6.091   2.815  11.209  0.1771  0.1321  0.3514
 8135TIP3    H148600   6.104   2.821  11.304 -1.0729  0.5052  0.5209
 8135TIP3    H248601   6.067   2.724  11.194  0.6179  0.0138  0.3586
 8136TIP3   OH248602   2.321   1.659  10.162 -0.3475  0.1858 -0.2999
 8136TIP3    H148603   2.411   1.635  10.187 -1.1216 -0.3727  2.2160
 8136TIP3    H248604   2.270   1.646  10.242 -2.9235 -0.7150 -1.9800
 8137TIP3   OH248605   4.890   0.452   9.973 -0.0012 -0.5303 -0.3953
 8137TIP3    H148606   4.891   0.404   9.890 -3.1482 -0.7944 -0.3756
 8137TIP3    H248607   4.873   0.543   9.948 -0.1415 -0.4714 -0.0859
 8138TIP3   OH248608   3.534   6.487   9.076  0.1173 -0.3921  0.0804
 8138TIP3    H148609   3.507   6.536   8.998  1.7460  0.0329 -0.2526
 8138TIP3    H248610   3.585   6.414   9.042 -0.6728 -1.2397  0.6826
 8139TIP3   OH248611   1.873   4.359  10.576  0.1994 -0.6340 -0.3742
 8139TIP3    H148612   1.808   4.295  10.545 -0.7148  0.1179 -0.0428
 8139TIP3    H248613   1.822   4.427  10.619  1.3427 -1.1360  1.9413
 8140TIP3   OH248614   2.262   4.655  10.074 -0.3264  0.5047 -0.0203
 8140TIP3    H148615   2.280   4.562  10.090  0.3955  0.8229  1.1158
 8140TIP3    H248616   2.312   4.676   9.995  0.4287  0.2010  0.3721
 8141TIP3   OH248617   5.567   4.563   9.753 -0.6528  0.0088 -0.2794
 8141TIP3    H148618   5.542   4.612   9.832 -0.0273 -0.3450  0.1490
 8141TIP3    H248619   5.495   4.578   9.692 -1.4527 -0.2192  0.5843
 8142TIP3   OH248620   4.497   3.869  12.674  0.1823  0.0330 -0.5021
 8142TIP3    H148621   4.421   3.891  12.620  1.3547  0.5300 -2.0216
 8142TIP3    H248622   4.505   3.942  12.735 -1.1249 -0.5036  0.3323
 8143TIP3   OH248623   5.012   2.084  10.621 -0.2997  0.1660 -0.0733
 8143TIP3    H148624   4.964   2.002  10.609 -0.8862  0.5597 -0.4543
 8143TIP3    H248625   4.987   2.113  10.709  1.1032 -0.8212  0.7067
 8144TIP3   OH248626   4.806   1.296  11.190  0.7886 -0.8900 -0.2694
 8144TIP3    H148627   4.821   1.205  11.215  1.9847 -0.7880 -0.5414
 8144TIP3    H248628   4.712   1.302  11.175  0.3871 -1.5729  1.7348
 8145TIP3   OH248629   4.832   5.698  11.390  0.1916  0.2439  0.2422
 8145TIP3    H148630   4.775   5.633  11.348  0.5431  0.2314 -0.2307
 8145TIP3    H248631   4.795   5.710  11.477  0.6738 -1.3245  0.6960
 8146TIP3   OH248632   0.055   1.385   8.775  0.4610  0.4456 -0.1258
 8146TIP3    H148633   0.015   1.467   8.747 -2.9585 -0.2449  2.1576
 8146TIP3    H248634   0.131   1.412   8.826 -0.0432  2.1566 -0.2212
 8147TIP3   OH248635   4.179   5.505  10.966  0.2537  0.7836 -0.6532
 8147TIP3    H148636   4.240   5.456  10.912  0.0066 -0.9069  0.5310
 8147TIP3    H248637   4.107   5.444  10.982  1.3101  0.2901  3.3627
 8148TIP3   OH248638   3.169   5.716  11.627  0.2715 -0.5085 -0.3211
 8148TIP3    H148639   3.103   5.738  11.560  0.7812  1.3814 -0.2563
 8148TIP3    H248640   3.123   5.729  11.710  0.2923 -0.6475 -0.2888
 8149TIP3   OH248641   4.617   0.435  11.976  0.9571 -0.0866  0.2534
 8149TIP3    H148642   4.550   0.403  12.037  0.5670  0.1258 -0.0606
 8149TIP3    H248643   4.676   0.360  11.964  0.8245 -0.2484  0.5950
 8150TIP3   OH248644   3.650   6.089   9.299 -0.3626  0.1755  0.3403
 8150TIP3    H148645   3.716   6.158   9.292 -0.2894  0.2103  1.3049
 8150TIP3    H248646   3.567   6.136   9.303 -0.2845  0.2554  1.4777
 8151TIP3   OH248647   6.214   6.557  11.509  0.8641  0.5137 -0.6874
 8151TIP3    H148648   6.266   6.516  11.578  1.9898 -0.1572 -1.8838
 8151TIP3    H248649   6.154   6.488  11.481 -1.3293  1.5200  1.2333
 8152TIP3   OH248650   1.933   3.226  11.095 -0.7742 -0.1038 -0.3764
 8152TIP3    H148651   1.877   3.299  11.122 -1.2704 -0.1666 -1.1959
 8152TIP3    H248652   1.925   3.162  11.166 -2.7095 -0.6269 -1.0147
 8153TIP3   OH248653   1.798   3.098  10.749 -0.2941  0.5405  0.4275
 8153TIP3    H148654   1.801   3.166  10.681  2.9211  0.3198  0.1925
 8153TIP3    H248655   1.760   3.022  10.704 -0.1123  0.9862 -0.5186
 8154TIP3   OH248656   2.097   0.451  10.937 -0.4872 -0.4034  0.5802
 8154TIP3    H148657   2.059   0.538  10.953  0.4932 -0.0634  1.1995
 8154TIP3    H248658   2.095   0.441  10.842 -1.1846  0.0325  0.5386
 8155TIP3   OH248659   5.339   0.090  11.459 -0.3929 -0.2794  0.0987
 8155TIP3    H148660   5.416   0.094  11.515 -0.3617  1.4700 -0.0125
 8155TIP3    H248661   5.266   0.112  11.517 -0.4769  0.5866 -0.3206
 8156TIP3   OH248662   6.449   3.355  10.444  0.2555 -0.1996  0.0761
 8156TIP3    H148663   6.442   3.356  10.539 -1.2861 -1.3629  0.0192
 8156TIP3    H248664   6.358   3.347  10.413  0.7274  0.0438 -1.4888
 8157TIP3   OH248665   5.863   0.589  10.270 -0.1727 -0.4799  0.3227
 8157TIP3    H148666   5.798   0.570  10.203 -0.0746 -1.7338  0.5562
 8157TIP3    H248667   5.813   0.619  10.345 -0.4392 -0.8877  0.3095
 8158TIP3   OH248668   2.073   1.279  11.003  0.5282 -0.1495 -0.5434
 8158TIP3    H148669   2.033   1.273  10.916  0.3533  0.8686 -0.5533
 8158TIP3    H248670   1.999   1.280  11.064  0.4338  2.1758 -0.5863
 8159TIP3   OH248671   2.912   5.752  11.496  0.5723  0.3892 -0.3514
 8159TIP3    H148672   2.852   5.725  11.426 -1.0063 -0.5010  1.2669
 8159TIP3    H248673   2.937   5.841  11.472 -2.6439  1.4205 -0.3466
 8160TIP3   OH248674   6.070   6.382   9.993 -0.2598  0.1103 -0.7171
 8160TIP3    H148675   6.122   6.310   9.958  1.2143  0.9772 -0.3794
 8160TIP3    H248676   6.029   6.346  10.072 -0.3749 -0.6495 -1.1162
 8161TIP3   OH248677   1.759   1.275  12.178 -0.5536  0.2109  0.2262
 8161TIP3    H148678   1.834   1.298  12.124 -1.0340 -0.4930 -0.7625
 8161TIP3    H248679   1.752   1.346  12.241  0.0728  0.9996 -0.5770
 8162TIP3   OH248680   2.111   6.191   8.323 -0.7034  0.1401  0.1572
 8162TIP3    H148681   2.169   6.125   8.284  0.8638  0.6529  1.5249
 8162TIP3    H248682   2.075   6.149   8.401 -0.2095  0.6534  0.6737
 8163TIP3   OH248683   5.339   0.075  10.897  0.3202  0.8928 -0.0619
 8163TIP3    H148684   5.392   0.150  10.925 -0.4300  0.5376  2.5479
 8163TIP3    H248685   5.328   0.089  10.803  0.8710  3.6329  0.1703
 8164TIP3   OH248686   2.469   1.448  11.459 -0.9448 -0.7503 -0.1844
 8164TIP3    H148687   2.562   1.429  11.450 -0.7184  1.0573 -2.3952
 8164TIP3    H248688   2.463   1.505  11.535 -0.5990 -2.5876  1.3094
 8165TIP3   OH248689   1.645   4.028   8.313  0.1037  0.2330 -0.3721
 8165TIP3    H148690   1.627   3.982   8.395  0.5908 -0.4151 -0.6215
 8165TIP3    H248691   1.560   4.032   8.269  0.3285 -2.1203 -1.1929
 8166TIP3   OH248692   5.939   5.308  10.119 -0.1478 -0.2546 -0.1958
 8166TIP3    H148693   5.927   5.392  10.163 -3.2481  0.6653 -2.4238
 8166TIP3    H248694   5.966   5.331  10.030 -0.9996 -1.5887 -0.8290
 8167TIP3   OH248695   3.728   1.844   9.857  0.3236  1.0972 -0.0247
 8167TIP3    H148696   3.746   1.871   9.767 -2.4039  0.8295 -0.7484
 8167TIP3    H248697   3.753   1.919   9.911 -2.4174  3.2646 -1.5249
 8168TIP3   OH248698   2.639   4.261  10.348 -0.3170 -0.4606 -0.0354
 8168TIP3    H148699   2.668   4.265  10.257  1.5530 -0.8301  0.4900
 8168TIP3    H248700   2.618   4.168  10.362 -0.0753 -0.5034  0.0503
 8169TIP3   OH248701   3.090   5.552  12.123 -0.8722  0.1581 -0.3354
 8169TIP3    H148702   3.077   5.631  12.174  0.5393 -0.5875  1.2656
 8169TIP3    H248703   3.034   5.487  12.164 -0.3367 -0.2364 -0.2118
 8170TIP3   OH248704   3.504   5.736   9.985 -0.3820  0.4020 -0.2885
 8170TIP3    H148705   3.551   5.740   9.901  0.9067 -0.6060  0.3527
 8170TIP3    H248706   3.480   5.644   9.994 -3.2745  0.9761 -0.9520
 8171TIP3   OH248707   5.212   0.022   9.158  0.6286  0.2869 -0.0871
 8171TIP3    H148708   5.193   0.095   9.217  0.0422 -1.3103  1.7967
 8171TIP3    H248709   5.129  -0.025   9.150  0.6175  0.5784 -2.4575
 8172TIP3   OH248710   5.510   5.293   8.768  0.0633  0.1592  0.5540
 8172TIP3    H148711   5.540   5.208   8.734 -0.3399 -0.6283  2.0948
 8172TIP3    H248712   5.521   5.286   8.862 -3.7885  0.2404  1.1403
 8173TIP3   OH248713   4.864   3.051  12.008 -0.1823  0.0371  0.2224
 8173TIP3    H148714   4.830   3.134  12.043  1.8581  0.6799  0.8224
 8173TIP3    H248715   4.922   3.018  12.077 -1.0252 -1.9704  0.0387
 8174TIP3   OH248716   0.063   3.904  10.314  0.1654  0.1120  0.0159
 8174TIP3    H148717   0.101   3.976  10.365  0.9748 -0.1888 -0.1437
 8174TIP3    H248718   0.084   3.825  10.364  0.6710 -0.1524 -0.6098
 8175TIP3   OH248719   3.213   2.216  11.031  0.2249  0.3321 -0.4425
 8175TIP3    H148720   3.252   2.174  10.955  1.0849 -0.2673  0.3169
 8175TIP3    H248721   3.147   2.154  11.062  0.8705 -0.0726  0.1435
 8176TIP3   OH248722   2.515   1.074  10.388 -0.1939 -0.1285  0.1935
 8176TIP3    H148723   2.601   1.063  10.429 -0.6514  0.3041  1.3342
 8176TIP3    H248724   2.461   1.006  10.428 -0.6647  0.3353  0.3606
 8177TIP3   OH248725   2.322   5.223   8.925  0.1781  0.1021 -0.3319
 8177TIP3    H148726   2.409   5.198   8.894  0.3896 -0.1248  0.4168
 8177TIP3    H248727   2.275   5.251   8.847  0.7831 -0.1941 -0.8051
 8178TIP3   OH248728   2.812   3.688  10.190  0.5976 -0.3143  1.0096
 8178TIP3    H148729   2.788   3.701  10.282  1.8505 -0.4480  1.3660
 8178TIP3    H248730   2.792   3.596  10.173  0.0588 -0.2082  1.0468
 8179TIP3   OH248731   1.538   4.945  10.294 -0.0193  0.5829  0.0941
 8179TIP3    H148732   1.446   4.926  10.313  0.4116 -0.3793  1.3649
 8179TIP3    H248733   1.581   4.859  10.296  0.9963  1.0717 -0.0381
 8180TIP3   OH248734   6.443   2.657  10.072  0.1887 -0.2368 -0.1104
 8180TIP3    H148735   6.367   2.714  10.060  0.8253  0.4132 -1.1596
 8180TIP3    H248736   6.517   2.716  10.082  0.8039 -0.8657 -0.8264
 8181TIP3   OH248737   3.953   1.280   9.396 -0.4223  0.0692 -0.6207
 8181TIP3    H148738   4.006   1.353   9.367 -1.1584  1.3134  0.9989
 8181TIP3    H248739   3.879   1.278   9.336 -1.1845  1.6756  0.2009
 8182TIP3   OH248740   3.694   5.808  10.381 -0.1800  0.2197  0.4560
 8182TIP3    H148741   3.770   5.779  10.432  1.6267  1.6696 -1.2196
 8182TIP3    H248742   3.663   5.886  10.427 -0.4151 -0.1246  0.8984
 8183TIP3   OH248743   0.277   3.176  11.010 -0.3014 -0.0577 -0.0507
 8183TIP3    H148744   0.344   3.241  10.993 -0.8314  0.0721 -1.7857
 8183TIP3    H248745   0.325   3.095  11.027  0.3463  0.6432  1.7714
 8184TIP3   OH248746   3.680   5.833   9.783  0.0096  0.1078  0.0420
 8184TIP3    H148747   3.745   5.898   9.811  0.8562 -0.5135 -0.4536
 8184TIP3    H248748   3.661   5.855   9.692  1.0874 -0.9361 -0.4689
 8185TIP3   OH248749   1.770   0.583  11.772  0.2588  0.3099 -0.6369
 8185TIP3    H148750   1.686   0.538  11.783  0.1149  0.6478 -0.2987
 8185TIP3    H248751   1.833   0.514  11.756 -0.1660  0.0867 -1.4091
 8186TIP3   OH248752   1.077   6.624   9.919  0.1758 -0.3330 -0.5686
 8186TIP3    H148753   0.993   6.667   9.935  0.9865  0.4661  1.9319
 8186TIP3    H248754   1.064   6.534   9.948  0.2452 -0.1453  0.0509
 8187TIP3   OH248755   1.194   0.767   8.844 -0.1667 -0.0846  0.0645
 8187TIP3    H148756   1.122   0.776   8.907  1.2627 -0.9048  1.9301
 8187TIP3    H248757   1.166   0.697   8.785 -1.7515  1.0340 -0.5788
 8188TIP3   OH248758   1.624   3.954  11.085 -0.2162  0.3895 -0.0485
 8188TIP3    H148759   1.692   3.941  11.019 -0.7834 -0.8292 -0.4338
 8188TIP3    H248760   1.542   3.931  11.040 -0.5456 -1.1798  1.2302
 8189TIP3   OH248761   5.668   2.075   9.571 -0.1711  0.1501  0.6281
 8189TIP3    H148762   5.756   2.085   9.534  0.5813 -0.0124  2.2680
 8189TIP3    H248763   5.646   1.983   9.559  0.3749 -0.0624  1.1968
 8190TIP3   OH248764   3.599   2.980   8.981 -0.2815 -0.3446 -0.1942
 8190TIP3    H148765   3.577   2.890   9.007 -0.9653  0.0672  0.6937
 8190TIP3    H248766   3.558   2.991   8.895 -0.4913 -0.7667 -0.1494
 8191TIP3   OH248767   2.024   5.041  10.527  0.9046 -0.0521  0.4312
 8191TIP3    H148768   2.055   5.053  10.437 -0.7598 -0.6391 -0.2689
 8191TIP3    H248769   1.980   4.955  10.526 -0.4004  0.5685  1.4089
 8192TIP3   OH248770   2.719   3.440   9.801  0.0963  0.1752  0.1608
 8192TIP3    H148771   2.804   3.481   9.815  0.8839 -1.7118  1.2297
 8192TIP3    H248772   2.704   3.448   9.707  1.9572 -0.3703 -0.2250
 8193TIP3   OH248773   2.735   0.519  10.463  0.5720 -0.1159  0.1781
 8193TIP3    H148774   2.668   0.461  10.428  1.1892  0.2215 -1.6859
 8193TIP3    H248775   2.816   0.469  10.455  0.9581  0.5827 -0.4830
 8194TIP3   OH248776   3.740   1.772  11.304 -0.1906 -0.0759 -0.5371
 8194TIP3    H148777   3.783   1.687  11.293  1.1607  0.7860 -2.6828
 8194TIP3    H248778   3.811   1.832  11.328 -0.3298  1.1101 -2.7366
 8195TIP3   OH248779   4.297   4.522  11.827  0.0088 -0.0812  0.2504
 8195TIP3    H148780   4.278   4.575  11.905 -1.4222  0.4898 -0.4401
 8195TIP3    H248781   4.390   4.503  11.833  0.2420  1.2359  1.3233
 8196TIP3   OH248782   3.118   1.071  10.726  0.7619  0.1019 -0.7615
 8196TIP3    H148783   3.129   1.068  10.631 -0.5533 -2.0244 -0.8989
 8196TIP3    H248784   3.071   1.153  10.742  0.1760  0.0465 -2.0484
 8197TIP3   OH248785   6.677   1.835  11.740  0.3117  0.0356 -0.1510
 8197TIP3    H148786   6.747   1.898  11.752  0.7910 -0.4748 -0.2341
 8197TIP3    H248787   6.721   1.751  11.729 -0.3333 -0.4201  0.5954
 8198TIP3   OH248788   0.436   0.462  11.349  0.2202  0.0310  0.0614
 8198TIP3    H148789   0.394   0.505  11.274  1.0160  0.4320 -0.1680
 8198TIP3    H248790   0.373   0.396  11.377  0.0172 -0.3154 -1.1374
 8199TIP3   OH248791   5.280   1.993   9.171 -0.3689  0.2426  0.0778
 8199TIP3    H148792   5.293   2.075   9.123  0.7155  0.7108  1.1341
 8199TIP3    H248793   5.341   1.997   9.244  0.2122 -1.8299 -0.2175
 8200TIP3   OH248794   2.382   0.696  11.463  0.3980  0.7283 -0.0472
 8200TIP3    H148795   2.330   0.661  11.390  0.6834 -0.5960  0.3540
 8200TIP3    H248796   2.316   0.725  11.527  0.1152  3.0631 -1.2902
 8201TIP3   OH248797   3.606   0.946  11.318 -0.1143 -0.2250 -0.8250
 8201TIP3    H148798   3.584   0.863  11.360 -1.2349  0.4863  0.0557
 8201TIP3    H248799   3.542   1.008  11.352 -0.3367  0.6593 -2.7160
 8202TIP3   OH248800   4.059   0.376  10.196 -0.4381 -0.1886 -0.3846
 8202TIP3    H148801   4.046   0.361  10.290 -1.9610  0.7857 -0.3882
 8202TIP3    H248802   4.135   0.434  10.191 -0.7681  0.3210  0.3191
 8203TIP3   OH248803   4.800   6.235  12.853 -0.4357  0.1527  0.2382
 8203TIP3    H148804   4.744   6.228  12.929 -2.8438  2.1734 -1.2188
 8203TIP3    H248805   4.758   6.180  12.787  0.7197 -0.2950 -0.1613
 8204TIP3   OH248806   1.599   4.984   9.795  0.0975  0.2932  0.2683
 8204TIP3    H148807   1.623   4.895   9.819  1.2313  0.4677 -0.1669
 8204TIP3    H248808   1.562   5.021   9.875  0.1499 -0.3828  0.6146
 8205TIP3   OH248809   5.134   0.966  10.060  0.3284 -0.0864 -0.1861
 8205TIP3    H148810   5.217   1.008  10.083 -0.4163  0.3022  1.9581
 8205TIP3    H248811   5.067   1.027  10.091 -0.7685 -1.2485 -0.1976
 8206TIP3   OH248812   0.873   1.959  11.742 -0.4030 -0.3514 -0.1254
 8206TIP3    H148813   0.959   1.982  11.776  0.1323 -2.8102  0.4111
 8206TIP3    H248814   0.812   2.012  11.793  0.6960  0.1083  0.7508
 8207TIP3   OH248815   4.968   4.881  11.206 -0.1134  0.0101  0.0293
 8207TIP3    H148816   4.923   4.939  11.145 -1.0255  0.5626  1.1946
 8207TIP3    H248817   5.028   4.938  11.254 -0.1168 -0.2384  0.3364
 8208TIP3   OH248818   3.037   3.021   8.662 -0.1165 -0.1791  0.0705
 8208TIP3    H148819   3.036   3.086   8.592  0.7193  0.1006  0.3030
 8208TIP3    H248820   3.121   3.035   8.706 -0.4501 -0.6274  0.8661
 8209TIP3   OH248821   6.426   5.121  11.063  0.0388 -0.2541 -0.1867
 8209TIP3    H148822   6.380   5.084  11.138  0.2836 -1.0382 -0.4125
 8209TIP3    H248823   6.411   5.215  11.069  0.9388 -0.1811  1.4659
 8210TIP3   OH248824   5.073   1.857   9.783  0.1213 -0.2764 -0.4317
 8210TIP3    H148825   5.089   1.779   9.731 -1.1054 -1.4204  0.8205
 8210TIP3    H248826   5.157   1.903   9.784  0.7395 -1.3165 -1.5888
 8211TIP3   OH248827   4.419   6.525  12.378  0.1488  0.3071 -0.6412
 8211TIP3    H148828   4.490   6.573  12.336  0.2926  0.5062 -0.1795
 8211TIP3    H248829   4.456   6.494  12.461 -0.4782  0.9241 -0.1212
 8212TIP3   OH248830   5.976   1.601  10.528  0.8239 -0.0933 -0.2597
 8212TIP3    H148831   6.023   1.550  10.462  1.6551  0.1670  0.1135
 8212TIP3    H248832   6.044   1.625  10.591  0.2871  0.7815 -0.0062
 8213TIP3   OH248833   2.292   6.665   8.989 -0.1400  0.0573 -0.0559
 8213TIP3    H148834   2.284   6.650   8.894 -0.1113  0.2649 -0.0917
 8213TIP3    H248835   2.202   6.667   9.020 -0.1573  0.2161 -0.1152
 8214TIP3   OH248836   2.598   3.623  12.004 -0.2148  0.2968 -0.0182
 8214TIP3    H148837   2.510   3.625  11.966 -0.1081  0.3062 -0.2702
 8214TIP3    H248838   2.638   3.544  11.968 -0.2522  0.0851  0.4019
 8215TIP3   OH248839   2.650   2.559  11.710  0.2169 -0.5568 -0.1300
 8215TIP3    H148840   2.687   2.471  11.699  0.4594 -0.4570 -0.1067
 8215TIP3    H248841   2.726   2.617  11.713  0.2199 -0.5916  2.2135
 8216TIP3   OH248842   1.819   0.362  11.501  0.2349 -0.5026  0.0340
 8216TIP3    H148843   1.808   0.285  11.446  1.3407  0.4226 -1.5751
 8216TIP3    H248844   1.898   0.404  11.467 -0.9455  1.9483  0.1096
 8217TIP3   OH248845   1.913   0.699   8.602 -0.1953  0.0475  0.5939
 8217TIP3    H148846   1.846   0.754   8.562  0.8201 -0.6164 -2.2647
 8217TIP3    H248847   1.978   0.761   8.636 -0.4881  0.6390  0.0941
 8218TIP3   OH248848   3.491   0.198   9.468  0.1320 -0.1604  0.4409
 8218TIP3    H148849   3.473   0.128   9.406 -1.8475  0.1487  0.5950
 8218TIP3    H248850   3.586   0.197   9.480  0.3158 -1.6138 -0.9344
 8219TIP3   OH248851   6.120   3.524   8.879  0.0027 -0.0622 -0.4773
 8219TIP3    H148852   6.049   3.476   8.923  0.5106  0.8398  1.4809
 8219TIP3    H248853   6.098   3.616   8.894  0.9120  0.2476 -0.9791
 8220TIP3   OH248854   2.480   4.949   9.204 -0.0886 -0.0325 -0.0140
 8220TIP3    H148855   2.402   4.914   9.161 -0.1883 -0.6372  0.6338
 8220TIP3    H248856   2.457   4.949   9.297  0.2639  0.8776  0.0748
 8221TIP3   OH248857   4.706   5.046  10.305 -0.1070  0.3312  0.1753
 8221TIP3    H148858   4.705   4.959  10.345  0.7590 -0.2621 -1.0110
 8221TIP3    H248859   4.795   5.079  10.322 -0.3979  0.9507  0.5363
 8222TIP3   OH248860   5.692   2.658   9.971  0.0600  0.5409 -0.4327
 8222TIP3    H148861   5.714   2.608  10.050  0.0121 -0.2233 -0.8924
 8222TIP3    H248862   5.737   2.611   9.900 -0.2817  0.9456 -0.9229
 8223TIP3   OH248863   4.384   2.479  10.835 -0.4946 -0.0529  0.2840
 8223TIP3    H148864   4.405   2.561  10.879  1.3241  0.3397 -1.1959
 8223TIP3    H248865   4.390   2.413  10.904 -0.2866  0.8467  1.1560
 8224TIP3   OH248866   3.800   3.025  11.216  0.0235 -0.0465 -0.3533
 8224TIP3    H148867   3.768   3.085  11.149 -0.7227 -0.9710 -0.8581
 8224TIP3    H248868   3.721   2.993  11.260  0.3267 -1.2657 -0.6487
 8225TIP3   OH248869   2.912   4.348  10.399  0.2954  0.0228  0.1944
 8225TIP3    H148870   2.899   4.390  10.314 -2.9884  0.6675  0.8856
 8225TIP3    H248871   2.827   4.312  10.421  1.9416 -3.4030  1.6148
 8226TIP3   OH248872   3.452   1.814  11.758  0.1022 -0.5862 -0.0076
 8226TIP3    H148873   3.412   1.886  11.806  0.4199 -0.3847 -0.0428
 8226TIP3    H248874   3.542   1.842  11.743 -0.0676 -0.5216 -0.9635
 8227TIP3   OH248875   2.556   5.296  12.504 -0.4675 -0.5341  0.2752
 8227TIP3    H148876   2.638   5.268  12.464 -0.7990 -0.8695 -0.1887
 8227TIP3    H248877   2.495   5.302  12.431 -1.0069 -0.8527  0.6897
 8228TIP3   OH248878   5.348   2.015   9.775 -0.5951  1.0027  0.0630
 8228TIP3    H148879   5.399   1.966   9.840 -2.1396 -0.7473  0.0499
 8228TIP3    H248880   5.382   1.985   9.691  0.4170  2.1776  0.0301
 8229TIP3   OH248881   5.872   4.238  10.414 -0.3856  0.2575 -0.4723
 8229TIP3    H148882   5.830   4.322  10.432  1.7704  1.1695  0.6735
 8229TIP3    H248883   5.800   4.178  10.400 -2.0208  2.0581 -0.2324
 8230TIP3   OH248884   0.534   3.301  10.558  0.1985  0.0560 -0.0895
 8230TIP3    H148885   0.520   3.330  10.468  0.9244 -0.7892 -0.4900
 8230TIP3    H248886   0.586   3.370  10.599  0.4256  0.1361 -0.5122
 8231TIP3   OH248887   4.415   6.607   9.459  0.3784 -0.0394 -0.5231
 8231TIP3    H148888   4.392   6.597   9.551  0.7808  0.3833 -0.3727
 8231TIP3    H248889   4.412   6.702   9.444 -1.1664 -0.1801 -1.3325
 8232TIP3   OH248890   5.842   2.502  11.942 -0.7034 -0.6272 -0.2918
 8232TIP3    H148891   5.874   2.441  12.009 -1.6921 -0.2384  0.5520
 8232TIP3    H248892   5.751   2.520  11.966 -0.6855  0.5365 -1.0046
 8233TIP3   OH248893   4.522   6.317   9.094  0.0498  0.2029  0.2384
 8233TIP3    H148894   4.591   6.351   9.152 -0.4362  0.8839  0.4236
 8233TIP3    H248895   4.502   6.230   9.130  1.5348 -0.4499 -0.4442
 8234TIP3   OH248896   3.759   0.040  10.375 -0.6439  0.0031  0.5566
 8234TIP3    H148897   3.706   0.024  10.297  0.4791 -2.6604  0.2044
 8234TIP3    H248898   3.843   0.072  10.342 -0.7682  0.5821  0.8026
 8235TIP3   OH248899   1.351   0.146   9.433 -0.0598  0.1068  0.0459
 8235TIP3    H148900   1.432   0.189   9.461 -1.7582  3.2038  0.6287
 8235TIP3    H248901   1.344   0.168   9.340 -0.3812  0.1703  0.0830
 8236TIP3   OH248902   3.068   4.450   9.763 -0.0669  0.4664  0.4241
 8236TIP3    H148903   3.100   4.377   9.710  0.8033  1.1709 -0.0468
 8236TIP3    H248904   3.080   4.527   9.707 -0.2788  1.0705  1.1943
 8237TIP3   OH248905   5.254   2.604   8.882 -0.6293 -0.4240 -0.1565
 8237TIP3    H148906   5.280   2.519   8.846  1.6020  0.2436 -0.2251
 8237TIP3    H248907   5.302   2.612   8.964 -0.7724  0.8120 -0.1730
 8238TIP3   OH248908   6.143   4.940   8.785  0.2427  0.0914  0.5107
 8238TIP3    H148909   6.163   4.858   8.831  0.1970  0.1089  0.5616
 8238TIP3    H248910   6.200   5.005   8.824 -0.3729  0.2823  1.1049
 8239TIP3   OH248911   4.485   3.911  11.697  0.8633  0.2371  0.4048
 8239TIP3    H148912   4.492   3.939  11.789 -0.1774  0.5264  0.4072
 8239TIP3    H248913   4.411   3.850  11.697  1.4191 -0.4448 -0.0918
 8240TIP3   OH248914   0.733   0.750  11.176 -0.5858 -0.1185  0.6737
 8240TIP3    H148915   0.661   0.806  11.206 -0.9841 -0.8234  1.0666
 8240TIP3    H248916   0.689   0.668  11.150 -0.1575  0.1411 -0.9786
 8241TIP3   OH248917   3.016   4.607  11.680  0.1210 -0.2842 -0.3199
 8241TIP3    H148918   3.086   4.547  11.654 -1.2171 -1.7405 -0.7224
 8241TIP3    H248919   3.029   4.619  11.774 -0.4754 -2.5385  0.1216
 8242TIP3   OH248920   1.942   6.072   9.326 -0.0710 -0.3727  0.2620
 8242TIP3    H148921   1.996   6.057   9.249  1.2224  0.5425  0.9529
 8242TIP3    H248922   1.854   6.090   9.291  0.2682 -0.9440 -0.9248
 8243TIP3   OH248923   3.905   2.872   9.090  0.3623 -0.2698 -0.1274
 8243TIP3    H148924   3.931   2.839   9.176  0.6487 -0.4711 -0.2897
 8243TIP3    H248925   3.830   2.929   9.107  0.2671 -0.5031  0.2256
 8244TIP3   OH248926   0.992   0.407  11.069  0.0481  0.8661  0.0316
 8244TIP3    H148927   1.012   0.488  11.115 -1.0067  0.4768  1.2217
 8244TIP3    H248928   0.898   0.393  11.084  0.1629 -0.4474 -0.3452
 8245TIP3   OH248929   6.556   1.720   9.828  0.2988 -0.3324 -0.0391
 8245TIP3    H148930   6.509   1.796   9.860 -1.1419 -1.1664 -0.0752
 8245TIP3    H248931   6.559   1.732   9.733 -0.3019 -0.4992 -0.0869
 8246TIP3   OH248932   0.042   2.621  11.729  0.0663  0.1091 -0.0976
 8246TIP3    H148933   0.081   2.669  11.801  1.7209 -0.4878 -0.5498
 8246TIP3    H248934   0.112   2.565  11.696 -0.9455 -0.4051 -1.5010
 8247TIP3   OH248935   6.051   3.947  10.861 -0.5963  0.0256  0.3213
 8247TIP3    H148936   6.083   3.867  10.819 -0.2654 -0.2002  1.0008
 8247TIP3    H248937   6.047   3.926  10.954 -1.7593  0.3803  0.3633
 8248TIP3   OH248938   6.197   6.221   8.894  0.6085 -0.1442  0.2038
 8248TIP3    H148939   6.233   6.133   8.882  0.4203 -0.2576  0.4421
 8248TIP3    H248940   6.273   6.279   8.891  0.7385 -0.3205  0.0854
 8249TIP3   OH248941   2.227   5.387   9.978 -0.1802 -0.1140 -0.0897
 8249TIP3    H148942   2.237   5.334   9.899 -3.8188  0.5484 -1.1922
 8249TIP3    H248943   2.241   5.477   9.949 -0.1996  0.0263  0.3261
 8250TIP3   OH248944   6.405   2.787  10.601  0.8567 -0.2637  0.0819
 8250TIP3    H148945   6.312   2.764  10.609  1.2869 -1.7741  1.3459
 8250TIP3    H248946   6.405   2.881  10.584 -0.9455 -0.5494 -1.8972
 8251TIP3   OH248947   5.743   0.578   8.978 -0.5090 -0.1669  0.5274
 8251TIP3    H148948   5.692   0.519   8.923  2.2865 -0.4128 -2.0845
 8251TIP3    H248949   5.717   0.666   8.950  1.0880 -0.2853 -1.5852
 8252TIP3   OH248950   3.446   3.883  10.215  0.5488  0.2193  0.0629
 8252TIP3    H148951   3.472   3.967  10.179  1.4859  0.0064  0.2243
 8252TIP3    H248952   3.480   3.882  10.304  0.1126 -0.1307  0.2323
 8253TIP3   OH248953   4.497   6.490  12.898  0.0241  0.7156  0.0645
 8253TIP3    H148954   4.565   6.557  12.897 -0.2182  1.0797 -3.2308
 8253TIP3    H248955   4.476   6.476  12.806 -3.3095 -0.4833  0.8583
 8254TIP3   OH248956   1.561   4.775   9.302 -0.2510  0.2155 -0.3834
 8254TIP3    H148957   1.522   4.777   9.215  0.4401 -0.2600 -0.7135
 8254TIP3    H248958   1.635   4.837   9.296 -0.3794  0.4032 -0.0483
 8255TIP3   OH248959   6.077   6.601   9.152  0.2521 -0.2198 -0.1737
 8255TIP3    H148960   6.055   6.666   9.085 -1.1968  1.1502  1.5352
 8255TIP3    H248961   6.058   6.517   9.110  0.7864  0.4881 -1.9612
 8256TIP3   OH248962   2.980   3.337   8.641 -0.2200 -0.1629  0.0023
 8256TIP3    H148963   3.016   3.420   8.610  1.0687 -0.9742 -0.8115
 8256TIP3    H248964   3.049   3.301   8.696 -0.8355 -0.6168  0.4859
 8257TIP3   OH248965   3.662   0.260  10.826  0.0114  0.3090  0.1864
 8257TIP3    H148966   3.752   0.229  10.836 -0.1097 -0.3258 -0.5910
 8257TIP3    H248967   3.656   0.285  10.734 -0.9557 -0.7939 -0.0611
 8258TIP3   OH248968   0.905   4.674   9.561 -0.4860  0.4557 -0.1344
 8258TIP3    H148969   1.000   4.660   9.555 -0.3980  0.0391  1.6318
 8258TIP3    H248970   0.882   4.719   9.480  0.9308 -0.9456 -1.3759
 8259TIP3   OH248971   6.489   4.476  11.058 -0.0034 -0.1040  0.0115
 8259TIP3    H148972   6.440   4.435  10.986  0.7570  0.7561 -1.0393
 8259TIP3    H248973   6.530   4.553  11.018  1.3326 -0.2047  1.1167
 8260TIP3   OH248974   5.518   0.022  11.140  0.0237 -0.4536 -0.2785
 8260TIP3    H148975   5.502   0.090  11.076  1.3436 -1.3928 -1.6825
 8260TIP3    H248976   5.433   0.008  11.182 -0.9811 -0.0290 -2.0571
 8261TIP3   OH248977   0.991   3.667  10.507  0.3688 -0.4046  0.8170
 8261TIP3    H148978   0.959   3.577  10.505  1.5242 -0.9000 -2.4366
 8261TIP3    H248979   0.960   3.705  10.425  0.6790  1.9139  1.6876
 8262TIP3   OH248980   5.266   5.912  11.058  0.7469  0.1153 -0.5426
 8262TIP3    H148981   5.232   5.886  10.972  1.1845 -1.1662 -0.3415
 8262TIP3    H248982   5.339   5.853  11.074  0.4209  0.0664  0.8915
 8263TIP3   OH248983   6.563   2.477   8.856  0.0841 -0.0991  0.0216
 8263TIP3    H148984   6.608   2.393   8.847  1.0819  0.3068  0.9198
 8263TIP3    H248985   6.635   2.541   8.861 -0.5964  0.6052  1.2003
 8264TIP3   OH248986   1.748   5.913  11.610  0.0312 -0.6944  0.0146
 8264TIP3    H148987   1.759   5.833  11.662  0.8998 -1.2421 -0.9617
 8264TIP3    H248988   1.718   5.979  11.672  0.5943 -1.4432  1.1107
 8265TIP3   OH248989   3.784   4.753   8.781 -0.0334 -0.1732 -0.1825
 8265TIP3    H148990   3.798   4.847   8.779  2.9297 -0.4564  1.3795
 8265TIP3    H248991   3.731   4.738   8.860 -1.7953  0.2389 -1.2432
 8266TIP3   OH248992   4.110   4.283  10.407 -0.5661 -0.4877  0.0175
 8266TIP3    H148993   4.203   4.258  10.403 -0.8653 -1.8859  0.9647
 8266TIP3    H248994   4.074   4.254  10.324  0.1254  1.4069 -0.9855
 8267TIP3   OH248995   1.370   3.054   8.950 -0.0662 -0.0926  0.5714
 8267TIP3    H148996   1.330   2.985   8.897 -0.6540  1.3862 -1.0375
 8267TIP3    H248997   1.457   3.065   8.912 -0.0401  0.1550  0.7019
 8268TIP3   OH248998   0.378   3.247  10.027  1.0883  0.0182  0.1002
 8268TIP3    H148999   0.459   3.199  10.010 -0.2438 -2.0144 -0.8787
 8268TIP3    H249000   0.373   3.253  10.123  1.7161 -1.0912  0.2167
 8269TIP3   OH249001   1.925   0.716   9.680  0.1680  0.3258  0.0383
 8269TIP3    H149002   2.002   0.674   9.644 -1.1256 -1.4628 -0.7976
 8269TIP3    H249003   1.851   0.671   9.639 -1.3510  1.0343  1.8039
 8270TIP3   OH249004   6.334   3.663   9.889  0.1159 -0.4246 -0.4598
 8270TIP3    H149005   6.404   3.613   9.846 -0.0124 -0.2885 -0.8366
 8270TIP3    H249006   6.338   3.635   9.980  0.1673 -0.9842 -0.6255
 8271TIP3   OH249007   0.193   2.886   9.664  0.0092  0.3934 -0.2567
 8271TIP3    H149008   0.172   2.796   9.689 -2.4345  0.5048 -1.5093
 8271TIP3    H249009   0.265   2.878   9.602 -0.4169 -0.7486 -0.6249
 8272TIP3   OH249010   4.471   6.007  10.508 -0.6208  0.0278  0.0728
 8272TIP3    H149011   4.386   5.989  10.550 -0.9899 -1.0865 -1.0702
 8272TIP3    H249012   4.449   6.057  10.430 -0.5414 -2.1275 -1.4400
 8273TIP3   OH249013   3.417   6.252   9.308 -0.0507  0.1835  0.0469
 8273TIP3    H149014   3.385   6.304   9.235  0.7388  0.7657  0.0939
 8273TIP3    H249015   3.445   6.317   9.373  0.4164 -0.3014  0.3462
 8274TIP3   OH249016   4.827   4.114   9.382 -0.2208 -0.3605 -0.0853
 8274TIP3    H149017   4.846   4.072   9.298  0.1108  0.0987 -0.2446
 8274TIP3    H249018   4.817   4.207   9.361  0.1447 -0.2017  0.4252
 8275TIP3   OH249019   5.999   4.326   9.118 -0.0381  0.0773 -0.2922
 8275TIP3    H149020   5.939   4.399   9.103 -0.2608 -0.0744 -0.1558
 8275TIP3    H249021   5.954   4.250   9.082  1.2976  0.3797 -2.8454
 8276TIP3   OH249022   0.736   0.160   8.968 -0.3398  0.1006  0.6837
 8276TIP3    H149023   0.678   0.232   8.943 -0.1215  0.8128  2.1905
 8276TIP3    H249024   0.815   0.174   8.916 -0.1879  1.1109  1.1667
 8277TIP3   OH249025   1.243   3.663  11.211  0.0493  0.6010  0.0157
 8277TIP3    H149026   1.224   3.675  11.119 -1.6496  2.3350  0.5390
 8277TIP3    H249027   1.161   3.684  11.256  0.7421 -0.4936  1.9173
 8278TIP3   OH249028   0.081   3.439   9.720  0.1273  0.3488  0.6471
 8278TIP3    H149029   0.108   3.411   9.633 -1.1822 -2.8853  1.1532
 8278TIP3    H249030   0.162   3.446   9.770  0.6761 -0.8184 -0.0546
 8279TIP3   OH249031   5.586   6.618  11.754  0.1959  0.3165 -0.3439
 8279TIP3    H149032   5.587   6.627  11.659 -1.9801 -0.7294 -0.5303
 8279TIP3    H249033   5.621   6.531  11.771 -0.9203 -0.1522 -0.3435
 8280TIP3   OH249034   3.360   4.689   9.748 -0.2794  0.4204 -0.8110
 8280TIP3    H149035   3.295   4.726   9.808  0.3231 -0.7473  0.6190
 8280TIP3    H249036   3.327   4.602   9.728  0.9576 -0.3003  0.1626
 8281TIP3   OH249037   5.915   1.667   9.496 -0.3311 -0.6556 -0.4533
 8281TIP3    H149038   6.010   1.674   9.492 -0.2817  0.4805  1.3740
 8281TIP3    H249039   5.897   1.575   9.478  1.0121 -0.6969 -1.7931
 8282TIP3   OH249040   0.622   6.034   9.331 -0.0930 -0.2250  0.3719
 8282TIP3    H149041   0.588   6.108   9.281  1.2708  0.8838  1.0316
 8282TIP3    H249042   0.544   5.995   9.372 -1.0154 -0.1237 -1.1913
 8283TIP3   OH249043   5.643   1.700  11.083  0.0603 -0.3123  0.1366
 8283TIP3    H149044   5.679   1.614  11.104 -1.1493 -0.5017  1.5819
 8283TIP3    H249045   5.613   1.735  11.167  0.2881  1.4208 -0.4659
 8284TIP3   OH249046   2.689   6.277  11.035 -0.2279  0.4675 -0.7667
 8284TIP3    H149047   2.595   6.293  11.043 -0.1741  0.1606  0.9295
 8284TIP3    H249048   2.698   6.182  11.043  0.2271  0.4989 -0.8949
 8285TIP3   OH249049   6.151   0.795   9.664  0.8326  0.4349 -0.0730
 8285TIP3    H149050   6.210   0.755   9.601  0.8912 -0.7613  0.7077
 8285TIP3    H249051   6.102   0.721   9.702  1.4240  0.9918  1.9162
 8286TIP3   OH249052   3.482   4.341  11.708 -0.0695 -0.1026 -0.2074
 8286TIP3    H149053   3.415   4.294  11.660 -1.2020  0.9384  0.3074
 8286TIP3    H249054   3.565   4.311  11.670 -0.8730 -0.0724 -2.0883
 8287TIP3   OH249055   3.897   0.994  10.941 -0.2083 -0.5467  0.1416
 8287TIP3    H149056   3.984   0.995  10.900  0.7445  0.7942  2.0250
 8287TIP3    H249057   3.866   0.904  10.931  0.6921 -0.6696 -1.9548
 8288TIP3   OH249058   2.659   2.726  11.041 -0.3296 -0.0530 -0.7242
 8288TIP3    H149059   2.733   2.786  11.040 -1.0023  0.9375  1.2219
 8288TIP3    H249060   2.582   2.784  11.050 -0.8371 -0.9840  4.8249
 8289TIP3   OH249061   2.663   3.670  10.693  0.0284  0.2547 -0.1674
 8289TIP3    H149062   2.611   3.610  10.747  0.4306  1.8231  2.1165
 8289TIP3    H249063   2.731   3.614  10.654  0.6715 -0.7961  2.2489
 8290TIP3   OH249064   0.907   5.464  11.844 -0.3663  0.2871 -0.2710
 8290TIP3    H149065   0.823   5.505  11.822 -0.0444  1.9615  1.3680
 8290TIP3    H249066   0.972   5.531  11.821  0.3776 -0.2616  0.2052
 8291TIP3   OH249067   4.748   0.191   9.022  0.0920  0.6889 -0.2048
 8291TIP3    H149068   4.814   0.188   8.953 -0.3564  1.6763 -0.7004
 8291TIP3    H249069   4.792   0.157   9.100  0.6173 -0.4203 -0.9556
 8292TIP3   OH249070   6.332   2.644   9.446 -1.0125 -0.6398 -0.0468
 8292TIP3    H149071   6.386   2.605   9.377 -1.9705 -1.3838 -0.3916
 8292TIP3    H249072   6.368   2.607   9.527 -0.3375 -0.3100 -0.1851
 8293TIP3   OH249073   5.431   4.694  11.789  0.0370  0.5476  0.3009
 8293TIP3    H149074   5.433   4.611  11.741 -0.2837 -0.2284  1.5850
 8293TIP3    H249075   5.422   4.668  11.881 -0.3753  2.0155  0.6921
 8294TIP3   OH249076   3.585   4.629  11.429  0.0346  0.3434  0.0956
 8294TIP3    H149077   3.538   4.611  11.347 -0.4837  1.5922  0.0975
 8294TIP3    H249078   3.563   4.720  11.449 -0.2993 -0.1176  1.9295
 8295TIP3   OH249079   0.879   0.863   9.457 -0.1140 -0.1015  0.0586
 8295TIP3    H149080   0.874   0.768   9.466 -0.4355 -0.0740  0.1708
 8295TIP3    H249081   0.940   0.891   9.525 -0.2282 -0.1999  0.2004
 8296TIP3   OH249082   6.724   4.879   9.186 -0.5055  0.2878  0.0206
 8296TIP3    H149083   6.664   4.877   9.261 -1.8518 -0.2127 -1.0264
 8296TIP3    H249084   6.748   4.787   9.173 -1.1817  0.2193 -0.8341
 8297TIP3   OH249085   4.893   4.401  10.429 -0.0071 -0.3318 -0.0073
 8297TIP3    H149086   4.826   4.466  10.409  0.0836 -0.9000 -2.3948
 8297TIP3    H249087   4.847   4.335  10.481 -0.8029  0.2548  0.0540
 8298TIP3   OH249088   2.768   6.099   8.834  0.2279  0.5006 -0.2078
 8298TIP3    H149089   2.689   6.137   8.796  0.2359 -0.0966 -0.8406
 8298TIP3    H249090   2.824   6.174   8.853  0.0072  0.8459 -0.8906
 8299TIP3   OH249091   0.007   5.869   8.591  0.1343  0.1321  0.3253
 8299TIP3    H149092   0.074   5.805   8.569  0.8861  1.3725 -1.1190
 8299TIP3    H249093   0.036   5.950   8.550 -1.5681  1.0411  0.8201
 8300TIP3   OH249094   6.612   1.145   9.940  0.4767 -0.2225  0.1024
 8300TIP3    H149095   6.629   1.065   9.890 -0.3778 -0.0973 -0.4209
 8300TIP3    H249096   6.649   1.215   9.887  0.6602 -0.2068  0.2504
 8301TIP3   OH249097   4.999   3.003  10.428  0.3096  0.2599 -0.0737
 8301TIP3    H149098   5.035   3.032  10.344 -0.7839  1.8523 -0.0294
 8301TIP3    H249099   4.905   2.999  10.414  0.3061 -2.7636  0.1394
 8302TIP3   OH249100   4.289   3.780  10.120  0.2629  0.1234 -0.4378
 8302TIP3    H149101   4.373   3.748  10.151  0.1969  1.3323  1.1640
 8302TIP3    H249102   4.294   3.875  10.131  0.0206  0.6410 -3.8469
 8303TIP3   OH249103   2.435   2.599  10.713 -0.2908 -0.2980 -0.4270
 8303TIP3    H149104   2.396   2.550  10.785 -1.4086 -0.3237 -1.0357
 8303TIP3    H249105   2.528   2.577  10.717 -0.4837 -1.0060  0.4477
 8304TIP3   OH249106   1.276   6.250  12.063  0.1695  0.2408  0.0680
 8304TIP3    H149107   1.248   6.281  12.149 -1.3577  2.1484 -1.0468
 8304TIP3    H249108   1.231   6.165  12.053  0.3757 -0.0065  1.1301
 8305TIP3   OH249109   3.419   1.504   9.960 -0.0715 -0.1857 -0.1871
 8305TIP3    H149110   3.381   1.590   9.978 -0.8015 -0.6675  0.6193
 8305TIP3    H249111   3.464   1.515   9.876 -1.2933  0.6072 -0.7540
 8306TIP3   OH249112   4.255   5.890  10.631 -0.0837 -0.2010  0.7682
 8306TIP3    H149113   4.238   5.882  10.725 -1.9097 -1.1856  0.4036
 8306TIP3    H249114   4.174   5.927  10.594  0.6629  0.3406 -0.4038
 8307TIP3   OH249115   0.841   6.706  10.022 -0.0773  0.3421  0.2018
 8307TIP3    H149116   0.834   6.767  10.095  1.6644 -0.2259  0.9063
 8307TIP3    H249117   0.807   6.623  10.057 -0.3882  0.3724 -0.0305
 8308TIP3   OH249118   5.260   3.057   9.147 -0.1116 -0.4486  0.0712
 8308TIP3    H149119   5.220   3.141   9.122 -2.2727 -0.7937  2.0052
 8308TIP3    H249120   5.299   3.074   9.232 -0.1217 -1.2699  0.2435
 8309TIP3   OH249121   3.955   0.848   8.912 -0.6313 -0.0960 -0.3833
 8309TIP3    H149122   3.916   0.900   8.842 -0.3178  0.3991 -0.1972
 8309TIP3    H249123   4.034   0.896   8.936 -1.9495  1.0351  1.9532
 8310TIP3   OH249124   5.002   6.552   9.185  0.7214  0.4566  0.2455
 8310TIP3    H149125   4.925   6.496   9.188 -0.6774  2.3352  1.4509
 8310TIP3    H249126   5.046   6.529   9.103  0.9296 -3.1881  1.2172
 8311TIP3   OH249127   6.547   4.143  10.976  0.4378 -0.1398 -0.2080
 8311TIP3    H149128   6.585   4.205  11.038 -0.1238 -0.1261  0.1289
 8311TIP3    H249129   6.491   4.087  11.029 -0.8057  0.4792 -0.8310
 8312TIP3   OH249130   6.138   5.493   9.623  0.9463  0.0202 -0.0914
 8312TIP3    H149131   6.098   5.536   9.547 -0.5118 -0.6514  0.2641
 8312TIP3    H249132   6.150   5.563   9.687 -1.2170  0.0041  0.4069
 8313TIP3   OH249133   0.390   6.432  10.489 -0.4017 -0.0270 -0.3868
 8313TIP3    H149134   0.424   6.486  10.561 -1.9523  2.4630 -1.3813
 8313TIP3    H249135   0.459   6.432  10.424  0.0982 -0.3378  0.1317
 8314TIP3   OH249136   0.619   3.099   8.894 -0.8209 -0.0582  0.4388
 8314TIP3    H149137   0.632   3.056   8.978 -0.6150 -3.1689 -1.0559
 8314TIP3    H249138   0.555   3.045   8.849 -1.8444  2.2134 -0.9942
 8315TIP3   OH249139   3.829   5.009  12.368 -0.8766 -0.1638 -0.1567
 8315TIP3    H149140   3.879   5.081  12.407 -1.2657  0.3742 -0.6291
 8315TIP3    H249141   3.742   5.017  12.409 -0.8827 -0.4495 -0.1144
 8316TIP3   OH249142   4.096   5.134  11.086  0.3143  0.5578  0.5600
 8316TIP3    H149143   4.109   5.060  11.028  0.5049  0.2127  1.0361
 8316TIP3    H249144   4.022   5.110  11.141  1.9002 -0.4069  2.4254
 8317TIP3   OH249145   0.294   2.470   8.659 -0.1251  0.1801 -0.0130
 8317TIP3    H149146   0.259   2.488   8.572 -0.3774 -0.1624  0.0138
 8317TIP3    H249147   0.309   2.557   8.698 -0.5423  0.3303 -0.1865
 8318TIP3   OH249148   4.910   1.489   9.505 -0.3761  0.2869 -0.0205
 8318TIP3    H149149   4.999   1.467   9.532  0.2346  1.5403 -0.9523
 8318TIP3    H249150   4.869   1.404   9.488  1.1615 -0.2585 -1.2114
 8319TIP3   OH249151   5.493   4.284   8.974 -0.0948  0.2166  0.0935
 8319TIP3    H149152   5.560   4.343   8.941 -1.8731  0.6007 -3.3756
 8319TIP3    H249153   5.421   4.341   9.002 -0.6481 -0.2095 -0.4122
 8320TIP3   OH249154   1.391   1.767   9.401 -0.3670  0.2427  0.1764
 8320TIP3    H149155   1.349   1.706   9.340 -1.1240  0.0833  0.8372
 8320TIP3    H249156   1.460   1.808   9.350  0.5791 -1.6196 -0.1194
 8321TIP3   OH249157   4.753   0.827  10.529 -0.1923  0.7997  0.1833
 8321TIP3    H149158   4.824   0.840  10.591 -0.1939 -0.6217  0.5177
 8321TIP3    H249159   4.789   0.852  10.445  0.2952  1.2739  0.5272
 8322TIP3   OH249160   2.234   4.440   9.767 -0.4420 -0.0791  0.4138
 8322TIP3    H149161   2.297   4.383   9.812  0.3625  0.0741 -0.4767
 8322TIP3    H249162   2.245   4.418   9.674 -0.6743  0.9657  0.1267
 8323TIP3   OH249163   2.003   4.211  10.789  0.2756 -0.1697  0.4164
 8323TIP3    H149164   2.060   4.196  10.713 -1.0246  0.9649 -0.8211
 8323TIP3    H249165   1.919   4.173  10.765 -0.1623  0.2017  1.2917
 8324TIP3   OH249166   4.924   0.910   8.884  0.1384 -0.6559 -0.1745
 8324TIP3    H149167   4.877   0.827   8.888  1.0664 -1.1527  0.7816
 8324TIP3    H249168   4.979   0.911   8.962 -0.7271  1.3903  0.4922
 8325TIP3   OH249169   3.181   1.095   8.909 -0.0909  0.2416  0.2591
 8325TIP3    H149170   3.236   1.167   8.878 -1.1265  1.3517  0.8849
 8325TIP3    H249171   3.092   1.123   8.888 -0.4785 -1.2392 -0.2096
 8326TIP3   OH249172   1.501   3.956  10.006 -0.0342  0.3502  0.1526
 8326TIP3    H149173   1.431   3.988   9.950 -0.4598 -1.5462 -0.4979
 8326TIP3    H249174   1.510   3.863   9.981  2.2574  0.3842  0.6741
 8327TIP3   OH249175   5.944   5.166   9.120 -0.0035 -0.4419  0.3053
 8327TIP3    H149176   6.011   5.214   9.071 -1.5370  1.4763 -0.0548
 8327TIP3    H249177   5.916   5.097   9.060  0.2703 -0.0232 -0.3263
 8328TIP3   OH249178   3.444   2.701  12.152 -0.2730  0.0556  0.1802
 8328TIP3    H149179   3.438   2.610  12.178 -0.8779  0.0906  0.1692
 8328TIP3    H249180   3.516   2.703  12.089  0.3662 -0.2433  0.8858
 8329TIP3   OH249181   5.837   3.060   9.429 -0.0659  0.3537 -0.0237
 8329TIP3    H149182   5.814   2.969   9.411 -0.3542  0.5378 -0.5906
 8329TIP3    H249183   5.927   3.056   9.459  0.2161 -0.0239 -0.9045
 8330TIP3   OH249184   5.729   4.456  10.372  0.0239 -0.1708  0.0316
 8330TIP3    H149185   5.677   4.503  10.307  1.0689  0.1765 -0.5865
 8330TIP3    H249186   5.737   4.517  10.445  3.0691  1.5838 -1.5463
 8331TIP3   OH249187   5.385   0.573  10.637 -0.2946  0.3032  0.0512
 8331TIP3    H149188   5.344   0.495  10.675  0.8082 -0.9344 -1.1856
 8331TIP3    H249189   5.315   0.639  10.636 -1.6470 -1.0762 -0.0815
 8332TIP3   OH249190   0.313   4.902   9.077  0.2845 -0.3980 -0.2505
 8332TIP3    H149191   0.254   4.944   9.016  0.1375  0.2845  0.3496
 8332TIP3    H249192   0.366   4.973   9.113 -0.5497 -0.5780  1.4161
 8333TIP3   OH249193   5.705   5.481  11.426  0.3555 -0.0057  0.0437
 8333TIP3    H149194   5.799   5.461  11.423  0.5089  0.5454  1.0002
 8333TIP3    H249195   5.701   5.574  11.445 -0.3976 -0.2639  1.2265
 8334TIP3   OH249196   0.817   0.317  12.131 -0.3132  0.5950 -0.3366
 8334TIP3    H149197   0.854   0.404  12.118  0.0447  0.4059 -0.6035
 8334TIP3    H249198   0.761   0.325  12.208  0.9429  0.6827  0.5845
 8335TIP3   OH249199   2.224   3.175  11.018  0.2998 -0.0261  0.1537
 8335TIP3    H149200   2.133   3.201  11.035  0.6064  2.1320 -1.2083
 8335TIP3    H249201   2.277   3.247  11.052  1.2851  0.4672 -2.2239
 8336TIP3   OH249202   0.161   0.964  20.332  0.0232 -0.3235 -0.3241
 8336TIP3    H149203   0.193   0.913  20.257  0.4217 -1.3334  0.5143
 8336TIP3    H249204   0.206   1.048  20.325  1.7354 -1.1720 -0.0352
 8337TIP3   OH249205   4.420   6.278   9.656 -0.3331  0.1473  0.0582
 8337TIP3    H149206   4.415   6.235   9.741 -3.3284 -0.4169 -0.3221
 8337TIP3    H249207   4.415   6.207   9.593  0.8447  0.6463 -0.6356
 8338TIP3   OH249208   0.855   2.570   9.827 -0.2750  0.0291 -0.3293
 8338TIP3    H149209   0.798   2.603   9.757  0.0046  2.1299  0.3426
 8338TIP3    H249210   0.941   2.562   9.786  0.2643  2.8010  0.0373
 8339TIP3   OH249211   4.098   1.301   9.885  0.1810  0.3265 -0.0645
 8339TIP3    H149212   4.126   1.212   9.863  2.9860  0.7902  1.1811
 8339TIP3    H249213   4.106   1.349   9.802 -0.3678 -0.3362 -0.5134
 8340TIP3   OH249214   4.979   6.168   9.270 -0.3884  0.2200 -0.3963
 8340TIP3    H149215   4.957   6.116   9.348  1.4789  0.7535  0.5528
 8340TIP3    H249216   5.070   6.146   9.252 -0.3018  1.3441 -1.4379
 8341TIP3   OH249217   3.051   3.912  11.249 -0.2760 -0.3269  0.1438
 8341TIP3    H149218   3.022   3.821  11.239  1.4108 -0.8585 -0.1153
 8341TIP3    H249219   3.111   3.910  11.323 -1.1751  0.8375  0.9397
 8342TIP3   OH249220   4.251   4.254   9.240  0.3289 -0.0656  0.0495
 8342TIP3    H149221   4.312   4.251   9.314  1.7179 -0.8200 -1.0672
 8342TIP3    H249222   4.276   4.332   9.191 -0.1637  0.0890  0.0446
 8343TIP3   OH249223   2.682   2.582   9.367 -0.2328  0.0393  0.0148
 8343TIP3    H149224   2.633   2.559   9.446 -0.2415  0.8670  0.2541
 8343TIP3    H249225   2.758   2.525   9.369  1.1838  1.8534  2.0548
 8344TIP3   OH249226   1.901   3.297   9.766 -0.2497 -0.8564  0.1242
 8344TIP3    H149227   1.930   3.373   9.716 -0.2967 -1.1692 -0.3881
 8344TIP3    H249228   1.846   3.333   9.835 -1.4218 -0.5223 -0.9466
 8345TIP3   OH249229   3.675   0.028  10.100  0.3349  0.1677 -0.7150
 8345TIP3    H149230   3.674   0.017  10.005 -0.3480 -0.2464 -0.6690
 8345TIP3    H249231   3.600   0.084  10.118 -1.8073 -2.6740 -0.1218
 8346TIP3   OH249232   4.476   2.301  11.028 -0.6335  0.0764 -0.2247
 8346TIP3    H149233   4.523   2.237  10.974 -1.4814 -2.7640  2.1160
 8346TIP3    H249234   4.543   2.361  11.059  0.0772  0.9423 -3.1709
 8347TIP3   OH249235   6.398   3.102  10.590 -0.0370  0.4336  0.1382
 8347TIP3    H149236   6.317   3.110  10.641  0.2434 -1.5896  0.9798
 8347TIP3    H249237   6.454   3.171  10.624 -1.0688  1.2892  0.1682
 8348TIP3   OH249238   1.660   0.381  19.334  0.0209  0.0548  0.0339
 8348TIP3    H149239   1.680   0.411  19.423 -1.7533  1.8451 -0.0962
 8348TIP3    H249240   1.745   0.379  19.290  0.9007 -0.5885  1.6566
 8349TIP3   OH249241   4.960   5.549  10.195 -0.6208 -0.0787  0.0379
 8349TIP3    H149242   4.950   5.498  10.275 -0.7764 -0.6074 -0.3103
 8349TIP3    H249243   4.912   5.499  10.128  2.2223 -1.4678 -1.1587
 8350TIP3   OH249244   0.071   5.692  10.087 -0.0578  0.2323  0.4018
 8350TIP3    H149245   0.156   5.689  10.131 -0.0523  0.7573  0.4327
 8350TIP3    H249246   0.034   5.777  10.112 -1.3338 -0.6659  1.7530
 8351TIP3   OH249247   3.512   6.023  10.075  0.1601 -0.5607 -0.5285
 8351TIP3    H149248   3.606   6.042  10.067  0.1218 -0.9053 -2.2116
 8351TIP3    H249249   3.506   5.928  10.062 -0.2925 -0.7940  1.1782
 8352TIP3   OH249250   1.776   3.439  11.169 -0.4279 -0.4335 -0.5328
 8352TIP3    H149251   1.786   3.511  11.231  0.3461 -0.0379 -1.0929
 8352TIP3    H249252   1.732   3.479  11.093 -0.2788 -0.6263 -0.7213
 8353TIP3   OH249253   3.933   4.155  10.204  0.0336 -0.2049 -0.7304
 8353TIP3    H149254   3.843   4.123  10.208 -0.3297  0.7685  3.4089
 8353TIP3    H249255   3.986   4.078  10.182 -1.4589 -1.9595  1.4400
 8354TIP3   OH249256   5.726   0.151  11.271  0.2391 -0.1061 -0.3172
 8354TIP3    H149257   5.689   0.237  11.289  0.4662  0.1974 -1.2311
 8354TIP3    H249258   5.655   0.102  11.229  0.5448  0.1392 -1.1449
 8355TIP3   OH249259   2.502   3.623   9.269 -0.4603  0.3214  0.2512
 8355TIP3    H149260   2.555   3.555   9.311  0.0140  0.0512 -0.7685
 8355TIP3    H249261   2.499   3.598   9.177  1.3333  2.6830 -0.5444
 8356TIP3   OH249262   3.452   5.404  10.195  0.2553  0.0260  0.6741
 8356TIP3    H149263   3.432   5.419  10.103  0.2156 -1.6236  0.3846
 8356TIP3    H249264   3.438   5.489  10.237 -2.0888  0.2494 -0.4138
 8357TIP3   OH249265   3.001   6.675   9.629  0.0706  0.0629  0.7598
 8357TIP3    H149266   2.986   6.595   9.579 -0.0151 -0.5264  1.6944
 8357TIP3    H249267   2.944   6.740   9.589  2.3525  0.5583 -1.9967
 8358TIP3   OH249268   5.700   3.767   9.664  0.0004 -0.0888 -0.5578
 8358TIP3    H149269   5.732   3.850   9.631  0.9966  0.2185  1.0489
 8358TIP3    H249270   5.607   3.767   9.644  0.3627  0.4454 -2.4558
 8359TIP3   OH249271   1.654   2.625   9.104  0.1948  0.2729  0.4890
 8359TIP3    H149272   1.693   2.555   9.050 -0.0182  0.6825 -0.2096
 8359TIP3    H249273   1.586   2.580   9.155  0.9006 -0.2609  0.9831
 8360TIP3   OH249274   0.366   3.393   9.803  0.1358 -0.6248 -0.1418
 8360TIP3    H149275   0.351   3.336   9.879 -0.4070 -1.9231 -1.1875
 8360TIP3    H249276   0.452   3.367   9.771  0.8525  0.6759  0.6267
 8361TIP3   OH249277   1.640   3.091   9.222 -0.1008  0.4123 -0.3021
 8361TIP3    H149278   1.649   3.087   9.127  0.3219 -0.6974 -0.2358
 8361TIP3    H249279   1.671   3.006   9.252 -0.4233  0.6755  0.8190
 8362TIP3   OH249280   4.302   1.225  11.746  0.0851 -0.0605 -0.1595
 8362TIP3    H149281   4.277   1.219  11.838  2.4225 -0.7686  0.4877
 8362TIP3    H249282   4.266   1.147  11.706  2.0767 -1.6748  1.0069
 8363TIP3   OH249283   4.853   6.347   9.983 -0.4303  0.2815  0.3072
 8363TIP3    H149284   4.934   6.378   9.942 -0.5137  1.9720  1.3536
 8363TIP3    H249285   4.821   6.422  10.033 -2.1923 -0.6363  0.6194
 8364TIP3   OH249286   2.429   2.227   8.694  0.2233 -0.2769  0.2301
 8364TIP3    H149287   2.414   2.238   8.600  0.1352  1.4547  0.4263
 8364TIP3    H249288   2.350   2.183   8.725  0.1711 -0.6957 -0.4530
 8365TIP3   OH249289   4.202   3.814  10.424  0.6584  0.3752  0.6086
 8365TIP3    H149290   4.247   3.872  10.362  1.2189 -1.1225 -0.4275
 8365TIP3    H249291   4.110   3.821  10.399  1.0126 -1.5165 -1.6599
 8366TIP3   OH249292   1.085   0.732   9.233 -0.2388  0.5676 -0.1712
 8366TIP3    H149293   1.063   0.648   9.274  0.1453  0.2215 -0.6757
 8366TIP3    H249294   1.035   0.797   9.284 -0.4900  0.0451  0.2567
 8367TIP3   OH249295   2.431   5.768   8.989  0.3745 -0.0740 -0.4750
 8367TIP3    H149296   2.408   5.860   9.000  0.5777 -0.1331  0.5894
 8367TIP3    H249297   2.347   5.722   8.988  0.3136 -0.0465  0.8958
 8368TIP3   OH249298   4.655   3.223  10.020  0.0777  0.3660  0.2054
 8368TIP3    H149299   4.680   3.315  10.010 -0.9145  0.6422  0.1821
 8368TIP3    H249300   4.572   3.225  10.068 -0.9692 -0.3981 -1.4627
 8369TIP3   OH249301   2.705   5.279  12.216 -0.4162  0.5802  0.4708
 8369TIP3    H149302   2.784   5.306  12.263  0.4891  0.1859 -0.7682
 8369TIP3    H249303   2.738   5.227  12.143 -1.7225  1.6642 -0.9537
 8370TIP3   OH249304   4.262   0.127  11.808 -0.5030 -0.5235 -0.1416
 8370TIP3    H149305   4.300   0.166  11.729  0.5955  1.7033  1.3839
 8370TIP3    H249306   4.246   0.201  11.866 -0.3096 -2.1558  2.1399
 8371TIP3   OH249307   4.938   2.381   9.578  0.0889  0.3760  0.0223
 8371TIP3    H149308   5.020   2.418   9.610  1.1204 -1.7364  0.0047
 8371TIP3    H249309   4.879   2.456   9.569  1.8063  1.8594  0.6443
 8372TIP3   OH249310   5.241   2.159  10.188  0.4918  0.3080 -0.2322
 8372TIP3    H149311   5.328   2.141  10.152  1.0402  0.4268  0.9878
 8372TIP3    H249312   5.240   2.254  10.199  0.5193  0.2275  0.5039
 8373TIP3   OH249313   5.927   5.449  10.519 -0.2677 -0.2937  0.1178
 8373TIP3    H149314   5.964   5.451  10.430  1.1545 -0.3314  0.6847
 8373TIP3    H249315   5.832   5.445  10.505 -0.1893  1.7255 -1.3848
 8374TIP3   OH249316   3.894   5.549  10.693  0.3293  0.0580 -0.4088
 8374TIP3    H149317   3.908   5.590  10.607  0.8731 -0.1968 -0.4464
 8374TIP3    H249318   3.946   5.468  10.689  0.4479  0.1039  0.2049
 8375TIP3   OH249319   1.699   0.171  11.360  0.0859 -0.2864 -0.0617
 8375TIP3    H149320   1.651   0.108  11.306  0.0699 -1.2354  1.0410
 8375TIP3    H249321   1.633   0.206  11.420  0.2832  0.1420 -0.0910
 8376TIP3   OH249322   4.078   3.816  10.960 -0.1068 -0.4937 -0.0472
 8376TIP3    H149323   4.079   3.906  10.925 -0.7974 -0.0916  0.9201
 8376TIP3    H249324   4.091   3.761  10.883 -1.2100  0.3854 -0.9127
 8377TIP3   OH249325   1.795   5.649  10.871 -0.2053  0.3017 -0.0167
 8377TIP3    H149326   1.875   5.601  10.848 -0.3761  0.5014 -1.0700
 8377TIP3    H249327   1.725   5.596  10.833 -0.6596 -0.3074  1.5942
 8378TIP3   OH249328   0.689   5.688   9.003  0.6956  0.2514  0.3791
 8378TIP3    H149329   0.703   5.702   8.909 -1.1364 -0.3836 -0.0180
 8378TIP3    H249330   0.745   5.612   9.024  2.4615  1.4522  0.2299
 8379TIP3   OH249331   6.019   5.979   9.677 -0.1025  0.1879  0.0407
 8379TIP3    H149332   6.030   6.055   9.621 -3.3032  0.1403 -0.8355
 8379TIP3    H249333   6.030   6.013   9.766  1.5033  0.9918 -0.4296
 8380TIP3   OH249334   3.710   4.377   8.928 -0.3689  0.1234 -0.0762
 8380TIP3    H149335   3.765   4.429   8.869  0.4840  0.0075  0.5862
 8380TIP3    H249336   3.675   4.307   8.874 -1.8548  1.5799 -1.0871
 8381TIP3   OH249337   4.909   3.031  11.118  0.3606 -0.3185  0.9138
 8381TIP3    H149338   4.904   2.943  11.080  1.7184  0.3755 -1.0640
 8381TIP3    H249339   4.991   3.032  11.167  0.5590 -0.0522  0.5852
 8382TIP3   OH249340   3.728   4.600  11.153 -0.1734  0.5413 -0.1050
 8382TIP3    H149341   3.724   4.537  11.082  2.6389  0.0449  0.0642
 8382TIP3    H249342   3.741   4.685  11.109  1.4654  0.2475 -0.2687
 8383TIP3   OH249343   1.284   3.662  11.676 -0.3440  0.1008 -0.1122
 8383TIP3    H149344   1.359   3.709  11.713  0.0768  0.4129 -1.3192
 8383TIP3    H249345   1.315   3.629  11.592 -0.4324 -2.9107  0.9362
 8384TIP3   OH249346   4.016   0.884  11.515 -0.2800  0.2055  0.4882
 8384TIP3    H149347   3.969   0.808  11.482 -0.3057  1.1874 -1.8919
 8384TIP3    H249348   3.962   0.959  11.489  0.1470  1.1255  2.0790
 8385TIP3   OH249349   2.027   5.326  10.143 -0.0407 -0.4551 -0.2615
 8385TIP3    H149350   1.966   5.310  10.072  0.7029 -1.8741 -0.6128
 8385TIP3    H249351   2.103   5.367  10.101 -0.9891  2.0321  0.2847
 8386TIP3   OH249352   2.336   3.891  10.489 -0.4915  0.3695  0.1288
 8386TIP3    H149353   2.349   3.813  10.436  0.8657  1.4495 -1.1923
 8386TIP3    H249354   2.421   3.906  10.531 -1.0626  0.5076  1.2673
 8387TIP3   OH249355   2.357   3.256  11.563 -0.4273  0.4796  0.1016
 8387TIP3    H149356   2.280   3.212  11.598  0.8290 -1.5655  0.4724
 8387TIP3    H249357   2.406   3.283  11.641  0.1880 -0.0510 -0.0925
 8388TIP3   OH249358   2.652   4.288  11.942 -0.0000 -0.2697 -0.1632
 8388TIP3    H149359   2.747   4.284  11.952 -0.1960 -2.0020  2.0103
 8388TIP3    H249360   2.625   4.196  11.941 -1.8144  0.1325  2.1644
 8389TIP3   OH249361   6.234   1.015  11.157 -0.2526  0.0887 -0.2891
 8389TIP3    H149362   6.301   1.074  11.191 -0.5063  1.9143 -2.6674
 8389TIP3    H249363   6.258   1.001  11.065 -1.7335 -1.2845 -0.5211
 8390TIP3   OH249364   0.853   4.187   9.043  0.0457 -0.1745 -0.2646
 8390TIP3    H149365   0.925   4.225   9.094 -0.6381  1.5706 -0.5047
 8390TIP3    H249366   0.826   4.259   8.985 -1.7491 -0.8595 -0.3208
 8391TIP3   OH249367   5.432   1.367  11.014 -0.9437 -0.1923  0.2760
 8391TIP3    H149368   5.369   1.419  10.964 -1.2417  0.3929  1.2173
 8391TIP3    H249369   5.399   1.370  11.104  0.5109  0.2834  0.8259
 8392TIP3   OH249370   6.682   2.147  11.993 -0.1118  0.9138  0.0445
 8392TIP3    H149371   6.775   2.158  12.010 -0.2332 -0.7077  2.1171
 8392TIP3    H249372   6.639   2.212  12.048 -0.2724 -0.6625  1.9107
 8393TIP3   OH249373   1.143   5.792   9.517  0.5947  0.4091 -0.3295
 8393TIP3    H149374   1.084   5.867   9.524  1.3716  1.1406 -1.3128
 8393TIP3    H249375   1.129   5.758   9.428  1.9680  0.8983 -0.7623
 8394TIP3   OH249376   2.885   5.497  11.127  0.4651 -0.3232 -0.4431
 8394TIP3    H149377   2.947   5.538  11.188  2.8646 -1.0562 -2.2357
 8394TIP3    H249378   2.887   5.404  11.150  1.3570 -0.5977 -1.5713
 8395TIP3   OH249379   0.403   0.023  10.144 -0.0741  0.0582 -0.0678
 8395TIP3    H149380   0.390  -0.057  10.194  1.7044  0.1286  0.5863
 8395TIP3    H249381   0.397  -0.003  10.053  0.5130 -0.8440  0.1418
 8396TIP3   OH249382   3.526   1.996  10.086  0.1587 -0.1176 -0.0008
 8396TIP3    H149383   3.472   2.037  10.019 -1.0991 -1.6329  0.0420
 8396TIP3    H249384   3.613   2.032  10.071 -0.4883  1.0651 -1.1816
 8397TIP3   OH249385   1.291   6.399  11.322  0.0786 -0.3089 -0.1453
 8397TIP3    H149386   1.260   6.489  11.317  0.2005 -0.2971 -0.8143
 8397TIP3    H249387   1.310   6.375  11.231 -0.8899 -1.3319 -0.1068
 8398TIP3   OH249388   3.044   1.191  11.459 -0.2317  0.3158 -0.1408
 8398TIP3    H149389   3.049   1.109  11.509  1.0579  0.8006  0.5704
 8398TIP3    H249390   2.972   1.239  11.500 -0.1491  0.0835  0.2871
 8399TIP3   OH249391   6.408   3.147  11.139 -0.3696  0.0866  0.1655
 8399TIP3    H149392   6.422   3.055  11.165 -1.4038  0.1329  0.9593
 8399TIP3    H249393   6.435   3.197  11.216  1.4004  0.5636 -0.6997
 8400TIP3   OH249394   2.548   5.647   9.316 -0.3188 -0.6210 -0.3136
 8400TIP3    H149395   2.505   5.567   9.287 -0.0629 -0.7412 -0.3652
 8400TIP3    H249396   2.625   5.617   9.364 -0.0194 -0.4038 -0.6487
 8401TIP3   OH249397   3.721   2.263   9.414  0.0195 -0.3718 -0.4632
 8401TIP3    H149398   3.772   2.339   9.441 -0.1448 -0.4641  0.1042
 8401TIP3    H249399   3.784   2.192   9.410  0.3890  0.0005 -2.0163
 8402TIP3   OH249400   0.378   4.636  10.627 -0.7123 -0.0497 -0.1100
 8402TIP3    H149401   0.388   4.683  10.710 -0.5608  2.4202 -1.4389
 8402TIP3    H249402   0.284   4.637  10.610 -0.6012  0.8811 -0.7213
 8403TIP3   OH249403   3.110   6.335   8.655 -0.0723  0.7847  0.3444
 8403TIP3    H149404   3.043   6.325   8.722  0.0310  0.3582  0.3856
 8403TIP3    H249405   3.068   6.307   8.574  0.9112 -2.4995  0.8111
 8404TIP3   OH249406   0.621   1.728   9.407 -0.2739 -1.1152  0.6807
 8404TIP3    H149407   0.656   1.651   9.451  2.7614  0.1794  0.7504
 8404TIP3    H249408   0.628   1.798   9.471  1.9365  0.2754 -0.9388
 8405TIP3   OH249409   6.264   0.061   9.739 -0.6769  0.6353  0.1204
 8405TIP3    H149410   6.349   0.067   9.783 -0.7979  0.7164  0.3370
 8405TIP3    H249411   6.231  -0.026   9.763 -0.5035  0.4683 -0.2339
 8406TIP3   OH249412   1.585   3.223   9.584  0.0705 -0.2935 -0.0689
 8406TIP3    H149413   1.664   3.180   9.553 -0.5643 -1.7807  0.2524
 8406TIP3    H249414   1.553   3.273   9.509 -0.1549 -1.9084 -1.0905
 8407TIP3   OH249415   2.942   3.692   9.563  0.0307  0.0737  0.8392
 8407TIP3    H149416   3.022   3.704   9.614  0.8670  0.1249 -0.4363
 8407TIP3    H249417   2.871   3.707   9.626  1.0130  0.2409  1.9458
 8408TIP3   OH249418   0.331   2.265  10.064  0.1657  0.1094  0.0921
 8408TIP3    H149419   0.249   2.247  10.110 -0.1807  0.5914 -0.3282
 8408TIP3    H249420   0.306   2.321   9.991  1.0158  1.1889  0.5957
 8409TIP3   OH249421   5.627   2.424  10.140  0.0046  0.5922  0.6229
 8409TIP3    H149422   5.568   2.415  10.215  0.7561 -0.0879  1.1495
 8409TIP3    H249423   5.715   2.420  10.178  0.3954  0.6816 -0.2517
 8410TIP3   OH249424   2.566   2.466  11.068 -0.1978 -0.0148 -0.0092
 8410TIP3    H149425   2.596   2.556  11.053  0.6745 -0.3323 -0.2381
 8410TIP3    H249426   2.526   2.469  11.155 -1.1356  0.8219 -0.4496
 8411TIP3   OH249427   4.472   0.167   9.100  0.8277 -0.7009  0.2899
 8411TIP3    H149428   4.486   0.249   9.148 -0.7448 -0.2864  0.0982
 8411TIP3    H249429   4.555   0.151   9.055  1.0257  1.0432 -0.0393
 8412TIP3   OH249430   1.822   2.327  10.955  0.1207  0.1141 -0.2825
 8412TIP3    H149431   1.843   2.366  11.040 -0.4934  0.1419 -0.1332
 8412TIP3    H249432   1.867   2.242  10.955 -0.4073 -0.1789  0.3521
 8413TIP3   OH249433   6.001   2.638   9.581 -0.2783  0.1848  0.2326
 8413TIP3    H149434   6.003   2.675   9.669 -0.5687  0.3961  0.1501
 8413TIP3    H249435   6.053   2.558   9.588 -0.3648  0.1606  0.6155
 8414TIP3   OH249436   1.979   1.778   8.850  0.6673  0.3568  0.5710
 8414TIP3    H149437   1.948   1.831   8.923  0.8065 -0.6128  1.3483
 8414TIP3    H249438   2.019   1.841   8.790 -1.8660  1.5653 -0.0246
 8415TIP3   OH249439   2.547   6.530  10.599 -0.5010  0.1249 -0.2115
 8415TIP3    H149440   2.454   6.532  10.622  0.2214  1.5913  3.2340
 8415TIP3    H249441   2.584   6.460  10.652  0.6555  0.9334  0.1058
 8416TIP3   OH249442   6.302   0.871  10.849 -0.3846 -0.2507 -0.2196
 8416TIP3    H149443   6.280   0.919  10.769 -2.9316  0.8443  1.0165
 8416TIP3    H249444   6.283   0.780  10.829  0.2270 -0.1630 -1.2390
 8417TIP3   OH249445   6.037   0.897  10.128  0.0723 -0.2056  0.0326
 8417TIP3    H149446   6.043   0.966  10.063 -1.7165  0.2464  0.3031
 8417TIP3    H249447   5.944   0.877  10.134  0.4932 -2.2636  0.3650
 8418TIP3   OH249448   5.659   0.753  10.410 -0.0917 -0.0189 -0.0587
 8418TIP3    H149449   5.632   0.802  10.332 -1.6303  0.4258  0.7039
 8418TIP3    H249450   5.676   0.819  10.476  0.6380 -0.4148  0.1564
 8419TIP3   OH249451   2.046   0.555   9.121 -0.7586  0.6413 -0.1593
 8419TIP3    H149452   2.030   0.587   9.032  2.1705 -1.5944 -1.7079
 8419TIP3    H249453   1.987   0.480   9.130  0.4663 -0.5050 -1.2033
 8420TIP3   OH249454   2.610   0.510   9.596  0.7569 -0.9285  0.4892
 8420TIP3    H149455   2.619   0.528   9.502 -0.0976 -0.5949  0.4573
 8420TIP3    H249456   2.683   0.556   9.636  0.2974  0.1803  0.1127
 8421TIP3   OH249457   5.042   4.287   9.959 -0.7238 -0.1946 -0.4670
 8421TIP3    H149458   5.073   4.339  10.034  1.9424 -1.2750 -0.7152
 8421TIP3    H249459   4.949   4.310   9.952 -0.5012  1.8231  1.6066
 8422TIP3   OH249460   4.579   1.957  10.034  0.2999  0.1422  0.2147
 8422TIP3    H149461   4.566   1.997  10.120 -0.0759 -0.6695  0.5415
 8422TIP3    H249462   4.660   1.908  10.043  0.6843  0.7056 -0.1437
 8423TIP3   OH249463   3.104   0.051   9.874 -0.1348  0.6976  0.3132
 8423TIP3    H149464   3.105  -0.024   9.934 -1.3195  1.8297  1.7980
 8423TIP3    H249465   3.061   0.017   9.795 -1.3910 -0.0092  1.2551
 8424TIP3   OH249466   3.341   6.619  11.053 -0.0073 -0.0212 -0.1608
 8424TIP3    H149467   3.297   6.691  11.098 -0.6315 -0.7069  0.3354
 8424TIP3    H249468   3.271   6.559  11.030  0.4578 -0.2665 -0.9766
 8425TIP3   OH249469   0.814   1.302  10.344 -0.0389 -0.1694 -0.0167
 8425TIP3    H149470   0.892   1.351  10.371  0.4022 -0.8362 -0.0672
 8425TIP3    H249471   0.829   1.213  10.376 -1.3388 -0.0389  1.0609
 8426TIP3   OH249472   4.949   5.876  10.980 -0.0669  0.2139  0.1861
 8426TIP3    H149473   4.930   5.783  10.988  1.0187 -0.0077  0.3492
 8426TIP3    H249474   4.991   5.885  10.895  0.6098  0.4018  0.5260
 8427TIP3   OH249475   0.778   3.488  10.437 -0.6986  0.2793  0.1381
 8427TIP3    H149476   0.795   3.551  10.367 -1.9891  0.5141  0.0165
 8427TIP3    H249477   0.775   3.403  10.393  0.5872  0.1653  0.2354
 8428TIP3   OH249478   1.145   6.047  11.112 -0.1521  0.5478  0.6900
 8428TIP3    H149479   1.158   6.016  11.202 -2.2654 -2.2731  0.1391
 8428TIP3    H249480   1.133   5.968  11.061 -0.5412  2.1532 -1.8623
 8429TIP3   OH249481   5.212   3.310  10.363 -0.1172  0.1061  0.2644
 8429TIP3    H149482   5.167   3.256  10.298 -0.5911  2.0886 -1.1335
 8429TIP3    H249483   5.142   3.351  10.414  0.1273  1.4547 -0.4442
 8430TIP3   OH249484   4.387   5.109  10.474 -0.1447  0.0124  0.1915
 8430TIP3    H149485   4.376   5.050  10.399  1.0981 -0.9837  0.7635
 8430TIP3    H249486   4.466   5.078  10.518 -1.3516 -0.0524  2.4866
 8431TIP3   OH249487   0.054   1.127   8.888 -0.0713 -0.3227  0.3434
 8431TIP3    H149488   0.030   1.200   8.831  0.9436 -0.0897  0.1877
 8431TIP3    H249489   0.141   1.150   8.920  0.3277 -1.5398  0.1648
 8432TIP3   OH249490   0.723   5.484  10.275 -0.5787  0.5082 -0.1121
 8432TIP3    H149491   0.750   5.516  10.188 -1.4598  3.0164  0.4410
 8432TIP3    H249492   0.802   5.494  10.329 -0.3490  0.0503 -0.3622
 8433TIP3   OH249493   5.140   2.826  10.576  0.2519  0.0821 -0.4884
 8433TIP3    H149494   5.087   2.748  10.556 -0.4098  0.2606  0.5038
 8433TIP3    H249495   5.102   2.895  10.523  1.1698 -0.3561 -1.7778
 8434TIP3   OH249496   5.048   3.741   9.715  0.5086  0.6360 -0.2431
 8434TIP3    H149497   4.956   3.766   9.720 -0.7472 -3.2456 -0.2516
 8434TIP3    H249498   5.089   3.783   9.791 -1.6785  1.1278  0.7476
 8435TIP3   OH249499   1.771   5.627   9.288  0.3852 -0.0053  0.2963
 8435TIP3    H149500   1.834   5.661   9.352  1.8422 -2.1443  0.1020
 8435TIP3    H249501   1.740   5.544   9.326  1.4634 -1.4651 -1.7673
 8436TIP3   OH249502   2.661   5.442   9.666  1.0618 -0.1636  0.2764
 8436TIP3    H149503   2.687   5.350   9.669 -0.2854 -0.5548  0.8299
 8436TIP3    H249504   2.712   5.483   9.735 -0.3240 -1.0894  1.9524
 8437TIP3   OH249505   1.862   3.406  10.360  0.2583 -0.0784  0.0184
 8437TIP3    H149506   1.935   3.390  10.300 -0.3438 -0.3223 -0.6652
 8437TIP3    H249507   1.903   3.440  10.439  1.2735 -1.6971  0.2293
 8438TIP3   OH249508   1.287   5.268  11.405  0.1584 -0.1170  0.2775
 8438TIP3    H149509   1.357   5.309  11.353  0.4710 -0.5044  0.3883
 8438TIP3    H249510   1.222   5.338  11.416  0.1248  0.0021 -0.5527
 8439TIP3   OH249511   5.125   4.505   9.262  0.1829  0.1072  0.4136
 8439TIP3    H149512   5.083   4.425   9.232 -0.3303 -0.2104  1.9260
 8439TIP3    H249513   5.054   4.569   9.267  0.7437  0.9902 -1.7393
 8440TIP3   OH249514   2.139   1.593   9.693 -0.0894 -0.3330 -0.0931
 8440TIP3    H149515   2.214   1.644   9.663 -0.4627 -0.1341 -0.7015
 8440TIP3    H249516   2.128   1.525   9.627 -0.0366 -0.7684  0.3424
 8441TIP3   OH249517   0.803   2.635  11.675  0.4744 -0.2156  0.1860
 8441TIP3    H149518   0.821   2.640  11.769 -0.4504  0.4085  0.3432
 8441TIP3    H249519   0.863   2.698  11.636 -0.3644  0.8455  0.5609
 8442TIP3   OH249520   5.508   2.689  11.141 -0.4352 -0.0968  0.0371
 8442TIP3    H149521   5.563   2.747  11.193  0.0926  0.7929 -1.4481
 8442TIP3    H249522   5.434   2.743  11.115 -0.3837 -0.3338 -0.6342
 8443TIP3   OH249523   4.537   4.215  11.615 -1.0804  0.0219 -0.1961
 8443TIP3    H149524   4.551   4.132  11.570 -0.6551  0.8507 -1.6500
 8443TIP3    H249525   4.446   4.212  11.643 -1.1622 -0.7901 -0.5187
 8444TIP3   OH249526   6.617   3.594   9.831  0.2790  0.6260 -0.0039
 8444TIP3    H149527   6.662   3.610   9.914 -1.9727 -0.7081  1.5655
 8444TIP3    H249528   6.682   3.551   9.776  1.6943  1.1655  1.1811
 8445TIP3   OH249529   6.191   4.913  10.313  0.2772  0.2668 -0.3506
 8445TIP3    H149530   6.245   4.915  10.234  0.2216  0.5910 -0.3806
 8445TIP3    H249531   6.141   4.994  10.310  0.0290  0.1224 -0.1527
 8446TIP3   OH249532   2.490   4.452  11.760  0.7027  0.0964 -0.1254
 8446TIP3    H149533   2.516   4.368  11.798  0.9185  0.3268  0.2444
 8446TIP3    H249534   2.397   4.460  11.782  1.0186  0.6057  1.0791
 8447TIP3   OH249535   0.419   4.207   8.570 -0.3781 -0.1293  0.1960
 8447TIP3    H149536   0.469   4.150   8.629 -1.0261  0.7872  1.6883
 8447TIP3    H249537   0.343   4.154   8.545 -0.8366 -0.0591  1.3534
 8448TIP3   OH249538   6.464   5.878   8.566  0.0430 -0.1500 -0.2592
 8448TIP3    H149539   6.559   5.893   8.559  0.0563 -0.3894 -0.5936
 8448TIP3    H249540   6.426   5.932   8.496 -0.0234 -0.4921 -0.4896
 8449TIP3   OH249541   6.028   2.433  11.715 -0.0168  0.5809 -0.3201
 8449TIP3    H149542   6.101   2.491  11.735 -0.5228  1.0089  0.3358
 8449TIP3    H249543   5.951   2.478  11.751 -0.4652 -0.3235 -0.1154
 8450TIP3   OH249544   0.236   0.811  11.318 -0.4241 -0.0640 -0.3180
 8450TIP3    H149545   0.171   0.850  11.259 -0.4210 -0.5275 -0.6291
 8450TIP3    H249546   0.222   0.716  11.310  0.4416 -0.1731 -0.5507
 8451TIP3   OH249547   3.422   5.345   8.814 -0.2031  0.0884  0.4155
 8451TIP3    H149548   3.392   5.431   8.846  0.2271  0.5833 -0.4600
 8451TIP3    H249549   3.422   5.289   8.891 -1.8859  0.4783  0.7482
 8452TIP3   OH249550   2.640   1.983  10.971  0.1041 -0.1669  0.0738
 8452TIP3    H149551   2.662   2.045  11.041 -0.1221  2.1553 -1.7730
 8452TIP3    H249552   2.724   1.944  10.946  0.7815  1.6749 -0.7021
 8453TIP3   OH249553   0.811   5.734   9.330  0.2394 -0.3149 -0.0430
 8453TIP3    H149554   0.828   5.793   9.404 -0.2277 -0.2693  0.0291
 8453TIP3    H249555   0.717   5.719   9.332  0.2282 -0.3437 -0.6121
 8454TIP3   OH249556   2.895   2.138   9.789 -0.1582  0.0160 -0.4615
 8454TIP3    H149557   2.957   2.110   9.857 -0.3283  0.8351  0.0389
 8454TIP3    H249558   2.884   2.060   9.734  0.9756 -0.2764 -0.3068
 8455TIP3   OH249559   0.500   5.025   9.750 -0.0416  0.1063 -0.0794
 8455TIP3    H149560   0.579   4.979   9.776 -0.1520  0.7130  1.4459
 8455TIP3    H249561   0.509   5.113   9.789 -1.1501  0.4036 -0.4326
 8456TIP3   OH249562   3.867   6.368  11.299  0.1723 -0.0058  0.0027
 8456TIP3    H149563   3.823   6.339  11.379 -1.8548  0.5346 -0.8390
 8456TIP3    H249564   3.887   6.288  11.252 -1.9224 -0.2612 -0.5592
 8457TIP3   OH249565   1.147   6.405   9.470 -0.6146  0.0206  0.4458
 8457TIP3    H149566   1.221   6.464   9.455 -1.4513  0.8545 -0.6416
 8457TIP3    H249567   1.167   6.361   9.552  0.8098  0.6432  0.4587
 8458TIP3   OH249568   0.588   0.667   9.401 -0.1535 -0.6284  0.0701
 8458TIP3    H149569   0.510   0.612   9.410  0.1116 -0.8503  1.1220
 8458TIP3    H249570   0.567   0.746   9.451 -0.1079 -0.2255 -0.5313
 8459TIP3   OH249571   3.878   0.543  11.011  0.3560  0.2339 -0.1665
 8459TIP3    H149572   3.816   0.603  11.052 -0.7647 -1.2858  0.4516
 8459TIP3    H249573   3.940   0.521  11.081 -1.1624 -1.8258  0.6654
 8460TIP3   OH249574   1.173   5.572  10.113 -0.2169 -0.1555 -0.8620
 8460TIP3    H149575   1.252   5.604  10.070 -0.1885  0.7881 -0.1531
 8460TIP3    H249576   1.204   5.501  10.169  0.0629 -0.0677 -0.9036
 8461TIP3   OH249577   5.205   1.700   9.402  0.3284 -0.0462 -0.0952
 8461TIP3    H149578   5.142   1.655   9.345  0.4116  0.6746 -0.7750
 8461TIP3    H249579   5.175   1.681   9.490 -0.7036  0.0753 -0.4089
 8462TIP3   OH249580   6.658   3.695   8.849 -0.0459  0.4034 -0.4983
 8462TIP3    H149581   6.596   3.672   8.919 -0.4476  1.5047 -0.4795
 8462TIP3    H249582   6.693   3.610   8.821  0.0626 -0.0815  0.9734
 8463TIP3   OH249583   6.354   0.169  12.653  0.0308  0.0611 -0.1544
 8463TIP3    H149584   6.275   0.145  12.702  1.7944 -0.6472  2.5396
 8463TIP3    H249585   6.377   0.256  12.686  0.8975 -0.1506 -0.1779
 8464TIP3   OH249586   2.105   4.360  10.445  0.1334  0.2013  0.0732
 8464TIP3    H149587   2.148   4.281  10.478 -0.6469 -0.9889 -1.6113
 8464TIP3    H249588   2.024   4.366  10.497  0.5549  0.3478  0.7271
 8465TIP3   OH249589   4.368   0.768  10.355  0.0822 -0.3909  0.2965
 8465TIP3    H149590   4.383   0.838  10.418  1.7126 -0.9658  0.5879
 8465TIP3    H249591   4.451   0.759  10.309 -0.3232 -1.6395 -0.2401
 8466TIP3   OH249592   3.082   4.800   9.694 -0.3514  0.4214  0.3397
 8466TIP3    H149593   3.172   4.830   9.682  0.1029 -0.2934  1.7308
 8466TIP3    H249594   3.035   4.877   9.725 -0.3475  0.9109 -0.8051
 8467TIP3   OH249595   0.155   2.072   9.479 -0.0519 -0.3629 -0.2972
 8467TIP3    H149596   0.075   2.020   9.491  0.7178 -1.5340 -0.0367
 8467TIP3    H249597   0.172   2.108   9.566 -0.4001  0.0528 -0.3984
 8468TIP3   OH249598   5.025   0.259  10.743 -0.3862  0.1174  0.1376
 8468TIP3    H149599   4.990   0.345  10.719  0.4980  0.5243  0.2291
 8468TIP3    H249600   5.041   0.216  10.659 -3.6986 -1.2306  0.0750
 8469TIP3   OH249601   1.762   0.985   9.621  0.0139 -0.1611 -0.1320
 8469TIP3    H149602   1.794   0.908   9.668 -0.4792  0.3241  1.0589
 8469TIP3    H249603   1.837   1.046   9.620 -0.0575 -0.0561  0.3254
 8470TIP3   OH249604   4.864   5.821  10.302 -0.1090 -0.0228  0.2526
 8470TIP3    H149605   4.905   5.753  10.249 -1.0019  0.9434 -1.7622
 8470TIP3    H249606   4.922   5.897  10.295  0.2469 -0.1578  1.4674
 8471TIP3   OH249607   5.654   4.389  12.015 -0.0990  0.1875  0.1826
 8471TIP3    H149608   5.583   4.348  11.965  0.0779  0.2628 -0.1328
 8471TIP3    H249609   5.631   4.482  12.017 -0.9372 -0.0352  1.6188
 8472TIP3   OH249610   2.440   6.696   8.624 -0.1807  0.6840 -0.5531
 8472TIP3    H149611   2.480   6.753   8.691 -1.2634  0.9848 -0.1468
 8472TIP3    H249612   2.350   6.685   8.653 -0.2557 -0.4268 -1.1783
 8473TIP3   OH249613   1.270   5.009  12.185 -0.3766  0.2183 -0.3295
 8473TIP3    H149614   1.348   5.058  12.159 -0.4805  0.3163 -0.4624
 8473TIP3    H249615   1.206   5.076  12.210 -0.8929  0.2117 -1.5534
 8474TIP3   OH249616   4.195   2.103   9.698  0.1511  0.5876 -0.1112
 8474TIP3    H149617   4.221   2.087   9.789 -0.5478  0.4584  0.0723
 8474TIP3    H249618   4.274   2.085   9.647  0.2655 -0.3561  0.3755
 8475TIP3   OH249619   5.658   3.647  11.416 -0.1546 -0.2519  0.3224
 8475TIP3    H149620   5.649   3.712  11.486  0.0502 -1.4448  1.4998
 8475TIP3    H249621   5.752   3.636  11.405 -0.1703 -1.3511  1.1275
 8476TIP3   OH249622   2.976   3.790  10.009  0.5468  0.4887 -0.1188
 8476TIP3    H149623   3.023   3.855  10.061  0.4776  0.1448  0.3853
 8476TIP3    H249624   2.897   3.771  10.059  0.9022 -0.4935  0.1097
 8477TIP3   OH249625   4.135   2.376   9.824 -0.0372 -0.8556  0.6431
 8477TIP3    H149626   4.108   2.311   9.759 -1.6703  0.2359  0.1709
 8477TIP3    H249627   4.218   2.410   9.790 -0.4086 -0.9469 -0.4139
 8478TIP3   OH249628   1.090   1.110   9.452 -0.4013 -0.1809  0.0148
 8478TIP3    H149629   0.999   1.126   9.428  0.0336  1.8485 -0.4666
 8478TIP3    H249630   1.085   1.061   9.535 -1.9200  0.4924  0.3473
 8479TIP3   OH249631   3.740   5.185  11.885 -0.2478  0.4708  0.2833
 8479TIP3    H149632   3.710   5.253  11.826  2.5921  0.1404 -1.7538
 8479TIP3    H249633   3.729   5.222  11.972 -2.4207  1.8965 -0.5151
 8480TIP3   OH249634   5.050   5.657  11.901  0.3491  0.2086 -0.2944
 8480TIP3    H149635   5.052   5.689  11.991  1.5092  1.6602 -0.8024
 8480TIP3    H249636   5.110   5.582  11.902  0.6398  0.4397  0.0690
 8481TIP3   OH249637   3.811   5.217   9.861  0.6624  0.3774  0.3785
 8481TIP3    H149638   3.797   5.286   9.926 -0.0238  0.7480 -0.1425
 8481TIP3    H249639   3.868   5.257   9.795  1.0898  0.1099  0.5819
 8482TIP3   OH249640   1.446   1.912  10.801 -0.2094  0.0120  0.4875
 8482TIP3    H149641   1.509   1.857  10.753  1.5028  1.0303  1.4459
 8482TIP3    H249642   1.466   2.001  10.774 -1.0023  0.3875  1.0976
 8483TIP3   OH249643   4.071   2.713   9.604 -0.0613 -0.2276 -0.5285
 8483TIP3    H149644   4.095   2.625   9.575  0.8421  0.0345 -0.6051
 8483TIP3    H249645   4.154   2.760   9.611 -0.4944  0.4904 -0.0514
 8484TIP3   OH249646   4.042   3.993  11.338  0.3947  0.0706 -0.1492
 8484TIP3    H149647   4.093   4.044  11.401 -0.0097  2.4200 -1.5879
 8484TIP3    H249648   4.085   4.011  11.254 -0.9475 -0.4139 -0.9623
 8485TIP3   OH249649   6.074   5.840  10.069 -0.2152  0.2559 -0.2142
 8485TIP3    H149650   6.039   5.765  10.116  0.3360  0.8100  1.1510
 8485TIP3    H249651   6.113   5.895  10.138  1.0625  0.8654 -1.3711
 8486TIP3   OH249652   1.295   1.465   9.940 -0.6957  0.3345  0.5336
 8486TIP3    H149653   1.244   1.403   9.888 -0.5979  0.7273 -0.0419
 8486TIP3    H249654   1.358   1.410   9.987  0.7859  0.1440 -1.5538
 8487TIP3   OH249655   5.159   5.721   8.879 -0.3244  0.4218 -0.0085
 8487TIP3    H149656   5.155   5.749   8.970 -0.2269  0.1725  0.0733
 8487TIP3    H249657   5.230   5.657   8.876 -0.6827  0.0182 -0.1445
 8488TIP3   OH249658   1.762   1.387  11.037  0.3422  0.4039  0.1677
 8488TIP3    H149659   1.767   1.409  11.130 -0.7067  0.2253  0.2790
 8488TIP3    H249660   1.705   1.454  11.000  0.4095  0.2237 -0.2669
 8489TIP3   OH249661   0.299   3.659   9.799 -0.3399  0.0476 -0.2731
 8489TIP3    H149662   0.314   3.566   9.811  1.8310  0.4202  0.3211
 8489TIP3    H249663   0.354   3.683   9.725  0.4874  1.1478  0.6622
 8490TIP3   OH249664   0.218   1.390  10.302 -0.2944 -0.2620  0.5563
 8490TIP3    H149665   0.260   1.334  10.367  0.1167 -0.4968  0.0918
 8490TIP3    H249666   0.262   1.369  10.220 -0.3857  0.4818  0.3109
 8491TIP3   OH249667   6.210   4.521  10.537  0.2178 -0.1761 -0.2859
 8491TIP3    H149668   6.179   4.479  10.617 -0.1020  0.7701  0.1107
 8491TIP3    H249669   6.247   4.451  10.485 -2.0419 -1.2876 -0.5101
 8492TIP3   OH249670   6.681   4.265  11.182  0.0089  0.3321  0.8332
 8492TIP3    H149671   6.732   4.220  11.249 -0.1046 -0.5236  0.3575
 8492TIP3    H249672   6.611   4.309  11.231 -0.9484 -1.4769  1.1738
 8493TIP3   OH249673   0.475   6.665  11.768  0.3682 -0.4008 -0.2085
 8493TIP3    H149674   0.541   6.696  11.829 -0.6991 -1.1183  1.3856
 8493TIP3    H249675   0.476   6.728  11.696 -0.4854  2.3544  2.0241
 8494TIP3   OH249676   1.956   2.048  10.866 -0.5224 -0.3523  0.2610
 8494TIP3    H149677   2.038   2.043  10.818 -0.2737  0.7590  0.5563
 8494TIP3    H249678   1.942   1.959  10.899  0.7875 -0.4477  0.6026
 8495TIP3   OH249679   2.296   4.411  10.195  0.5474  0.1428 -0.3790
 8495TIP3    H149680   2.341   4.432  10.277 -1.8890 -0.1167  1.0961
 8495TIP3    H249681   2.261   4.323  10.208 -1.7133  0.9347 -0.8257
 8496TIP3   OH249682   5.634   5.044   9.428 -0.0333  0.8704 -0.2752
 8496TIP3    H149683   5.679   5.125   9.451  1.4025  0.4920 -1.6345
 8496TIP3    H249684   5.585   5.065   9.349 -0.2633  0.6001 -0.2071
 8497TIP3   OH249685   3.911   0.628   9.820  0.7689  0.1613 -0.6609
 8497TIP3    H149686   3.936   0.700   9.878 -0.9484  0.0713  0.2544
 8497TIP3    H249687   3.901   0.668   9.734 -1.9636  1.5067  0.1642
 8498TIP3   OH249688   0.892   2.085   9.976  0.0391 -0.4048  0.0489
 8498TIP3    H149689   0.824   2.152   9.977 -0.8307 -1.2642  0.9106
 8498TIP3    H249690   0.959   2.120   9.918 -0.0584  1.5190  1.0144
 8499TIP3   OH249691   1.636   6.325  11.473 -0.3602  0.0123  0.1021
 8499TIP3    H149692   1.723   6.284  11.473 -0.4930 -0.2717 -0.3018
 8499TIP3    H249693   1.627   6.363  11.386 -1.0054 -0.7488 -0.1797
 8500TIP3   OH249694   6.739   4.722  11.757 -0.3397 -0.0290  0.3335
 8500TIP3    H149695   6.723   4.810  11.793 -0.7294  0.0141  0.0684
 8500TIP3    H249696   6.660   4.703  11.707 -0.1761 -0.4580  0.2378
 8501TIP3   OH249697   2.996   4.078  10.437  0.0248 -0.1358 -0.0898
 8501TIP3    H149698   3.042   4.057  10.356  0.5862 -1.3087  0.5005
 8501TIP3    H249699   2.987   4.173  10.437 -0.3671 -0.1531 -1.7254
 8502TIP3   OH249700   5.076   4.588  11.926  0.4406 -0.5495  0.0256
 8502TIP3    H149701   5.126   4.526  11.978 -0.2254 -1.5036 -0.4451
 8502TIP3    H249702   5.015   4.534  11.875  0.9187  0.3639 -1.5789
 8503TIP3   OH249703   6.160   3.236  10.455 -0.3567 -0.1129  0.0676
 8503TIP3    H149704   6.221   3.164  10.470 -0.7298 -0.5410 -0.4013
 8503TIP3    H249705   6.079   3.192  10.429 -1.1089  0.3954  1.4338
 8504TIP3   OH249706   3.396   3.198  11.060  0.1498  0.0814 -0.5911
 8504TIP3    H149707   3.304   3.173  11.067  0.1815  0.2776  0.8120
 8504TIP3    H249708   3.396   3.271  10.999 -0.7067  0.4132 -0.2125
 8505TIP3   OH249709   2.347   2.407  10.902  0.2689  0.2341 -0.4236
 8505TIP3    H149710   2.295   2.418  10.981  0.0917  3.6327 -0.8781
 8505TIP3    H249711   2.438   2.416  10.931  0.3585 -0.9599 -0.2984
 8506TIP3   OH249712   3.817   6.094  10.162  0.4507  0.4389  0.2082
 8506TIP3    H149713   3.746   6.081  10.225  0.8579  1.8717  0.9945
 8506TIP3    H249714   3.893   6.118  10.215  1.6465 -1.2739 -0.5891
 8507TIP3   OH249715   6.697   6.243   9.065  0.1042  0.0119  0.4995
 8507TIP3    H149716   6.607   6.246   9.034  1.2212 -0.6627 -3.4989
 8507TIP3    H249717   6.717   6.333   9.090 -0.9227  0.8116 -1.3577
 8508TIP3   OH249718   1.765   3.928  10.130 -0.1523 -0.1994  0.5262
 8508TIP3    H149719   1.809   3.962  10.052 -0.6200 -0.4262  0.1599
 8508TIP3    H249720   1.671   3.935  10.110 -0.2648 -1.7677  0.4107
 8509TIP3   OH249721   3.170   3.483  10.645  0.2831 -0.0852 -0.4876
 8509TIP3    H149722   3.204   3.510  10.560 -1.2169 -0.4428 -1.2336
 8509TIP3    H249723   3.216   3.402  10.665  0.5064 -0.1020 -1.0585
 8510TIP3   OH249724   6.257   5.905  11.953  0.5059 -0.4814  0.6929
 8510TIP3    H149725   6.276   5.876  12.042 -1.4377  1.1152  1.7299
 8510TIP3    H249726   6.200   5.837  11.917 -0.9847  0.1766  1.7295
 8511TIP3   OH249727   6.611   3.284   9.457 -0.0735 -0.4674 -0.0165
 8511TIP3    H149728   6.525   3.324   9.469 -0.6558 -1.7593  0.2150
 8511TIP3    H249729   6.621   3.279   9.362 -1.0250 -1.8461 -0.0841
 8512TIP3   OH249730   4.283   4.021  10.248 -0.1724 -1.2422  0.2697
 8512TIP3    H149731   4.282   4.076  10.170  0.5258 -2.0928 -0.3526
 8512TIP3    H249732   4.347   4.062  10.306 -2.7023  1.0351  1.6622
 8513TIP3   OH249733   3.258   2.744   9.047 -0.0766  0.1672 -0.4351
 8513TIP3    H149734   3.192   2.691   9.091 -2.1043  1.9921 -1.1134
 8513TIP3    H249735   3.316   2.774   9.117  0.2385 -1.6459  0.1394
 8514TIP3   OH249736   0.565   1.765  12.086 -0.5703  0.0464 -0.0366
 8514TIP3    H149737   0.542   1.803  12.170  0.7854  0.1563  0.3010
 8514TIP3    H249738   0.568   1.839  12.026 -1.3185 -0.0049 -0.1558
 8515TIP3   OH249739   3.972   0.378   9.569 -0.4676 -0.0612 -0.1584
 8515TIP3    H149740   3.900   0.432   9.600 -0.3733 -0.4895  0.8619
 8515TIP3    H249741   4.051   0.424   9.597 -0.3842 -1.4142  2.1099
 8516TIP3   OH249742   1.589   4.099   9.018  0.1575  0.1423  0.4777
 8516TIP3    H149743   1.602   4.126   9.109 -0.1228  1.7298  0.0645
 8516TIP3    H249744   1.673   4.118   8.975 -0.9272  3.2726 -0.4775
 8517TIP3   OH249745   5.404   6.614  10.340  0.1547 -0.1300  0.3546
 8517TIP3    H149746   5.346   6.648  10.271 -1.3764  0.2926  1.8077
 8517TIP3    H249747   5.454   6.545  10.297 -1.9612 -1.0319 -0.7774
 8518TIP3   OH249748   6.350   2.935   9.362 -0.2417  0.7147 -0.0378
 8518TIP3    H149749   6.360   2.904   9.272 -0.6155 -0.6031  0.3549
 8518TIP3    H249750   6.325   2.858   9.412  2.2493  0.8933  1.6567
 8519TIP3   OH249751   5.550   0.474   9.836 -0.0697  0.6315  0.3268
 8519TIP3    H149752   5.543   0.483   9.931 -1.2163  0.7038  0.2452
 8519TIP3    H249753   5.594   0.555   9.807 -0.6928  1.1095  0.6926
 8520TIP3   OH249754   4.652   4.208   8.851  0.3531 -0.1695  0.4554
 8520TIP3    H149755   4.669   4.118   8.823  0.8665  0.5237 -1.6381
 8520TIP3    H249756   4.556   4.214   8.857  0.3335 -0.9635  1.0734
 8521TIP3   OH249757   2.613   2.063   9.865  0.2869  0.5859  0.4686
 8521TIP3    H149758   2.575   2.124   9.930  0.6988 -0.7589  2.0288
 8521TIP3    H249759   2.702   2.048   9.896  1.0358  1.1051 -1.3225
 8522TIP3   OH249760   3.424   4.053  11.363  0.5721  0.3519 -0.1068
 8522TIP3    H149761   3.437   4.009  11.279  0.1051  1.1127 -0.5934
 8522TIP3    H249762   3.447   4.144  11.346 -2.4053  1.1965 -0.2622
 8523TIP3   OH249763   2.508   5.109  11.732  0.2356  0.0720  0.2150
 8523TIP3    H149764   2.592   5.064  11.722 -0.2749 -0.9780  0.5261
 8523TIP3    H249765   2.443   5.048  11.696 -0.7188 -0.4090  2.5194
 8524TIP3   OH249766   0.525   4.342   8.992 -0.1335  0.6624 -0.5827
 8524TIP3    H149767   0.528   4.249   8.969 -1.0185  0.3461  0.5105
 8524TIP3    H249768   0.466   4.380   8.927  0.4535  0.5316 -1.2091
 8525TIP3   OH249769   5.721   1.010  11.094 -0.0969 -0.0913 -0.3181
 8525TIP3    H149770   5.780   1.077  11.060  0.7712 -0.6023  0.1710
 8525TIP3    H249771   5.634   1.041  11.070  0.3325  0.9166 -0.6161
 8526TIP3   OH249772   3.694   4.887  11.776  0.1156  0.1279  0.1853
 8526TIP3    H149773   3.735   4.963  11.817  0.5995 -0.5113  0.9225
 8526TIP3    H249774   3.729   4.812  11.824  0.6413 -0.6514 -1.3360
 8527TIP3   OH249775   2.824   4.741   9.042 -0.0511 -0.1757  0.7453
 8527TIP3    H149776   2.909   4.786   9.039  1.8144 -3.3661  1.0470
 8527TIP3    H249777   2.769   4.791   8.982  2.7528  0.7090 -1.3429
 8528TIP3   OH249778   1.681   1.290   9.515  0.5692 -0.1194  0.0397
 8528TIP3    H149779   1.597   1.310   9.555 -0.2707 -0.9981 -1.2066
 8528TIP3    H249780   1.745   1.303   9.585 -0.5588  0.8320  0.9347
 8529TIP3   OH249781   2.077   1.936   8.657  0.4385 -0.0673 -0.2834
 8529TIP3    H149782   2.017   2.006   8.630  2.2200  0.7989 -2.3416
 8529TIP3    H249783   2.149   1.982   8.700  0.8918 -0.7974 -0.2403
 8530TIP3   OH249784   6.554   1.923  10.808  0.0688  0.0411 -0.4852
 8530TIP3    H149785   6.471   1.961  10.779 -1.1462 -1.2827  1.0104
 8530TIP3    H249786   6.592   1.990  10.865 -0.9266 -0.0330  0.3038
 8531TIP3   OH249787   0.184   5.767   8.925  0.1879 -0.0994  0.7563
 8531TIP3    H149788   0.101   5.727   8.899 -0.0263  0.4206  0.6437
 8531TIP3    H249789   0.228   5.787   8.843  0.0999  0.3077  0.8086
 8532TIP3   OH249790   3.873   0.779   9.576  0.2606 -0.4263 -0.3341
 8532TIP3    H149791   3.808   0.790   9.507 -0.2063  0.2090  0.1959
 8532TIP3    H249792   3.917   0.864   9.582  0.2664 -0.4588  0.1769
 8533TIP3   OH249793   3.823   5.425  11.595  0.6804  0.0830 -0.0371
 8533TIP3    H149794   3.899   5.465  11.637  0.6585 -0.3985  0.4799
 8533TIP3    H249795   3.855   5.340  11.564  0.1676 -0.4681  0.8865
 8534TIP3   OH249796   0.359   0.818  12.557  0.0372  0.4106  0.3313
 8534TIP3    H149797   0.406   0.791  12.636  0.4817  2.9292  1.0174
 8534TIP3    H249798   0.269   0.788  12.572  0.6025 -1.1996  0.6859
 8535TIP3   OH249799   5.108   2.989  11.806  1.1635  0.4387  0.5597
 8535TIP3    H149800   5.150   3.026  11.884 -0.1817  0.6726  1.2192
 8535TIP3    H249801   5.033   2.940  11.841  1.4296 -0.7580 -0.4866
 8536TIP3   OH249802   2.006   0.803  10.987  0.3549  0.7339  0.5733
 8536TIP3    H149803   2.008   0.865  11.060 -1.9597  1.6824 -0.0625
 8536TIP3    H249804   2.085   0.821  10.937  0.6241  1.9445  1.4034
 8537TIP3   OH249805   0.004   2.259  10.536  0.2478 -0.5954  0.1505
 8537TIP3    H149806  -0.062   2.227  10.598  0.0801 -2.1530 -0.7748
 8537TIP3    H249807   0.086   2.222  10.569  0.2833 -0.7176 -0.0755
 8538TIP3   OH249808   5.216   1.711  10.688  0.0812  0.0036  0.1912
 8538TIP3    H149809   5.249   1.799  10.666  1.6340  0.2748  3.1258
 8538TIP3    H249810   5.131   1.728  10.729  0.3363  0.1696  0.6689
 8539TIP3   OH249811   2.316   6.438   9.681  0.0141 -0.0186 -1.0277
 8539TIP3    H149812   2.360   6.439   9.766  1.1113  0.6623 -1.5711
 8539TIP3    H249813   2.353   6.513   9.634 -0.2157 -0.6491 -2.2728
 8540TIP3   OH249814   0.749   2.952   9.103  0.7706  0.2800 -0.1901
 8540TIP3    H149815   0.787   2.951   9.191  0.3221 -1.0251  0.0214
 8540TIP3    H249816   0.679   2.887   9.107  1.1052 -0.2141 -1.6790
 8541TIP3   OH249817   4.819   3.219   9.694 -0.6950  0.8457  0.1760
 8541TIP3    H149818   4.832   3.301   9.741  1.1311  1.4461 -1.2403
 8541TIP3    H249819   4.754   3.240   9.627 -0.8825  0.8943  0.3729
 8542TIP3   OH249820   4.330   1.562  11.134  0.2507 -0.7640 -0.3024
 8542TIP3    H149821   4.389   1.504  11.181  1.6803 -0.3118 -1.4592
 8542TIP3    H249822   4.318   1.637  11.192 -0.2545 -1.4270  0.4797
 8543TIP3   OH249823   5.492   0.127  11.741  0.2507  0.2196  0.1053
 8543TIP3    H149824   5.478   0.153  11.832 -0.7133  1.2833 -0.3298
 8543TIP3    H249825   5.524   0.037  11.747  0.5860  0.4023  1.5081
 8544TIP3   OH249826   5.341   0.608  10.272 -0.3455 -0.4377 -0.4950
 8544TIP3    H149827   5.292   0.541  10.319 -1.2870 -0.1816 -1.0927
 8544TIP3    H249828   5.274   0.664  10.233  0.4140  0.8458 -0.0225
 8545TIP3   OH249829   3.014   5.011  11.620  0.2023 -0.7758  0.1227
 8545TIP3    H149830   3.041   5.092  11.663  0.7854 -0.7930 -0.1915
 8545TIP3    H249831   2.931   4.988  11.660  1.0858 -1.2042  1.8073
 8546TIP3   OH249832   2.587   4.176   9.523 -0.5523  0.3910 -0.1961
 8546TIP3    H149833   2.665   4.215   9.563 -2.2592  1.4508  2.3598
 8546TIP3    H249834   2.585   4.086   9.557  1.1446 -0.7594 -2.8030
 8547TIP3   OH249835   0.532   5.284  10.274 -0.1781  0.0703  0.1544
 8547TIP3    H149836   0.577   5.367  10.259  0.6285 -0.4313 -0.2326
 8547TIP3    H249837   0.586   5.238  10.338 -0.0035 -0.6271 -0.4789
 8548TIP3   OH249838   5.332   4.622   9.606  0.0357  0.8343  0.0730
 8548TIP3    H149839   5.268   4.693   9.600 -1.6266 -0.6406 -0.5695
 8548TIP3    H249840   5.279   4.542   9.608  1.8666 -0.4499 -0.2240
 8549TIP3   OH249841   5.546   5.620   9.968 -0.8667  0.4461  0.4094
 8549TIP3    H149842   5.461   5.576   9.966 -1.1885  1.0798 -0.9126
 8549TIP3    H249843   5.525   5.711   9.991 -0.6732  0.8189 -0.8257
 8550TIP3   OH249844   6.435   3.773  17.668 -0.4531 -0.3745  0.6946
 8550TIP3    H149845   6.421   3.755  17.575  0.3333 -2.8031  0.9738
 8550TIP3    H249846   6.346   3.779  17.705 -0.8277  2.3703 -0.4014
 8551TIP3   OH249847   2.649   2.899   9.406  0.0478  0.3297  0.2283
 8551TIP3    H149848   2.709   2.879   9.335 -0.0224  1.3574 -0.1462
 8551TIP3    H249849   2.565   2.864   9.377 -0.1682  1.4764 -0.5992
 8552TIP3   OH249850   6.201   2.833  10.104 -0.2915  0.2503  0.4171
 8552TIP3    H149851   6.193   2.792  10.191  0.6133 -0.4560  0.1793
 8552TIP3    H249852   6.112   2.832  10.069 -0.7055  0.7044  1.3983
 8553TIP3   OH249853   6.591   0.977  10.268  0.0576  0.2619  0.0975
 8553TIP3    H149854   6.544   1.046  10.315 -2.1402 -0.3724 -1.0471
 8553TIP3    H249855   6.638   0.929  10.336  1.5682  2.7408  0.9444
 8554TIP3   OH249856   6.572   6.581  10.403  0.5176  0.5122  0.5950
 8554TIP3    H149857   6.526   6.526  10.340  1.2928  1.1076 -0.5090
 8554TIP3    H249858   6.526   6.665  10.400  0.7918  0.6605  0.5506
 8555TIP3   OH249859   2.771   0.515  10.984  0.1159 -0.1246 -0.0459
 8555TIP3    H149860   2.784   0.478  10.896  0.1200 -0.9431  0.2949
 8555TIP3    H249861   2.815   0.600  10.980  3.2068 -1.5699  0.1815
 8556TIP3   OH249862   2.481   4.294  11.201 -0.0849  0.0043  0.6902
 8556TIP3    H149863   2.426   4.216  11.201  0.6647 -0.5887 -1.2479
 8556TIP3    H249864   2.570   4.261  11.212  0.0923  0.7613  1.6541
 8557TIP3   OH249865   3.947   6.003   8.922 -0.3008 -0.5344  0.4607
 8557TIP3    H149866   3.996   6.049   8.991 -0.3514 -1.5176  1.1652
 8557TIP3    H249867   3.869   5.970   8.966 -0.6787 -0.5691 -0.2333
 8558TIP3   OH249868   6.221   1.286   9.246  0.5118 -0.1182 -0.0745
 8558TIP3    H149869   6.243   1.371   9.207 -0.0348  0.2439  0.3912
 8558TIP3    H249870   6.304   1.253   9.281  0.6584  0.4030  0.0774
 8559TIP3   OH249871   4.606   3.371  10.820 -0.2365 -0.0084 -0.0447
 8559TIP3    H149872   4.666   3.316  10.769 -1.8712 -1.2501 -0.7539
 8559TIP3    H249873   4.639   3.366  10.910  0.0336 -1.6852 -0.2007
 8560TIP3   OH249874   2.015   5.508  10.769 -0.2748 -0.1734 -0.0261
 8560TIP3    H149875   2.011   5.424  10.814  0.0753 -0.6874 -0.9274
 8560TIP3    H249876   1.987   5.489  10.679 -1.1606  0.8615  0.0025
 8561TIP3   OH249877   4.252   6.550  11.911 -0.0429  0.3480  0.0476
 8561TIP3    H149878   4.278   6.616  11.846  0.2773  1.3527  1.1749
 8561TIP3    H249879   4.242   6.598  11.992 -1.1671 -0.7721  0.6145
 8562TIP3   OH249880   2.780   3.103  18.847 -0.0825  0.7237  0.2674
 8562TIP3    H149881   2.873   3.128  18.847 -0.1316  0.9242  0.7343
 8562TIP3    H249882   2.782   3.008  18.842  0.1089  0.7897 -1.3509
 8563TIP3   OH249883   1.821   2.174  10.010  0.1373 -0.3847  0.8898
 8563TIP3    H149884   1.778   2.199   9.928  0.2054 -1.1992  0.5885
 8563TIP3    H249885   1.864   2.090   9.989 -1.1895 -1.4364  2.2113
 8564TIP3   OH249886   6.343   1.359  10.944  0.0160  0.6581  0.1455
 8564TIP3    H149887   6.373   1.271  10.919  0.4410  1.0092 -0.5879
 8564TIP3    H249888   6.416   1.395  10.994 -0.0290  0.7288  0.1600
 8565TIP3   OH249889   1.401   5.800   8.474 -0.0050 -0.6376  0.0155
 8565TIP3    H149890   1.377   5.886   8.441 -0.6070 -1.5063 -1.9605
 8565TIP3    H249891   1.420   5.814   8.567  1.4526  1.8865 -0.5729
 8566TIP3   OH249892   3.729   0.714  12.148  0.1138  0.6371  0.2568
 8566TIP3    H149893   3.643   0.722  12.190  0.7096  0.5805  1.5424
 8566TIP3    H249894   3.756   0.625  12.167  0.5191  0.7024 -0.0201
 8567TIP3   OH249895   0.274   4.318   8.828  0.1964 -0.0519  0.6493
 8567TIP3    H149896   0.205   4.373   8.791  1.6054  1.7188  0.4939
 8567TIP3    H249897   0.315   4.276   8.752 -0.2439 -0.5162  0.6717
 8568TIP3   OH249898   1.825   3.095  11.350 -0.2597  0.0335 -0.2084
 8568TIP3    H149899   1.852   3.083  11.441  0.1119 -1.7578 -0.5175
 8568TIP3    H249900   1.842   3.011  11.309 -0.0368  0.9288 -2.0519
 8569TIP3   OH249901   1.556   1.304  10.599  0.0912 -0.0299  0.7877
 8569TIP3    H149902   1.600   1.243  10.540 -0.5664 -1.7899  2.0174
 8569TIP3    H249903   1.507   1.362  10.541 -0.2161 -1.4339 -0.4302
 8570TIP3   OH249904   5.317   3.784  10.164  0.2740 -0.1435 -0.0420
 8570TIP3    H149905   5.247   3.846  10.179 -0.4083  0.0870 -3.3452
 8570TIP3    H249906   5.315   3.726  10.240 -1.9231  1.2666  1.0693
 8571TIP3   OH249907   0.040   2.330  11.175  0.0527 -0.8345 -0.4444
 8571TIP3    H149908  -0.007   2.412  11.166  0.6696 -0.4204  0.0725
 8571TIP3    H249909   0.132   2.355  11.184  0.0459 -1.4215  2.0582
 8572TIP3   OH249910   2.205   1.444  11.444 -0.0583  0.3763  0.6198
 8572TIP3    H149911   2.186   1.526  11.400  1.2558  0.3350 -0.0864
 8572TIP3    H249912   2.300   1.436  11.440 -0.0228 -0.3680  2.1632
 8573TIP3   OH249913   3.444   0.708  10.266  0.1099  0.2895  0.3933
 8573TIP3    H149914   3.401   0.664  10.193 -0.0602 -0.1927  0.7772
 8573TIP3    H249915   3.526   0.742  10.229 -0.1613  0.4012 -0.1136
 8574TIP3   OH249916   3.948   0.126  11.449 -0.1239  0.2874 -0.4710
 8574TIP3    H149917   3.915   0.050  11.498  0.8215  0.1399 -0.0135
 8574TIP3    H249918   3.897   0.128  11.369  0.5067 -1.4706 -0.9678
 8575TIP3   OH249919   0.773   0.329   9.523  0.1612  0.1254  0.0892
 8575TIP3    H149920   0.844   0.277   9.560  0.2378 -0.2887 -0.6056
 8575TIP3    H249921   0.724   0.362   9.598  0.7791 -0.0263  0.5602
 8576TIP3   OH249922   3.355   4.501   9.239  0.1501 -0.7012 -0.4896
 8576TIP3    H149923   3.264   4.513   9.267  0.0561 -2.2382 -0.0288
 8576TIP3    H249924   3.348   4.451   9.157  0.5516  0.6741 -1.4089
 8577TIP3   OH249925   0.351   4.784   9.611  0.0332 -0.7312  0.4870
 8577TIP3    H149926   0.269   4.803   9.565  0.6056 -0.9262 -0.6276
 8577TIP3    H249927   0.392   4.870   9.623  1.2360 -0.8819 -1.9632
 8578TIP3   OH249928   4.670   2.625  12.039  0.5357 -0.0021  0.3550
 8578TIP3    H149929   4.642   2.534  12.032 -0.0170  0.1726  0.2389
 8578TIP3    H249930   4.685   2.638  12.133 -0.2543  0.0377  0.4824
 8579TIP3   OH249931   5.421   6.489  11.982 -0.1482 -0.3048 -0.2374
 8579TIP3    H149932   5.496   6.547  11.998  0.3908 -1.6590  2.8191
 8579TIP3    H249933   5.454   6.425  11.919  0.4989  0.3946 -0.6458
 8580TIP3   OH249934   4.562   3.998   9.360 -1.1608 -0.3830 -0.3317
 8580TIP3    H149935   4.655   4.011   9.339 -1.0113  0.5129  0.7500
 8580TIP3    H249936   4.520   3.982   9.276  0.0533 -1.3398 -0.7820
 8581TIP3   OH249937   3.879   4.508   8.710  0.5102 -0.0467  0.6053
 8581TIP3    H149938   3.966   4.500   8.749  1.1676  1.3222 -0.4546
 8581TIP3    H249939   3.872   4.601   8.687 -0.4906 -0.4752 -0.9814
 8582TIP3   OH249940   5.003   2.661  10.143  0.1516  0.1095  0.0756
 8582TIP3    H149941   4.949   2.589  10.176 -0.7183  0.3416 -0.7943
 8582TIP3    H249942   4.951   2.739  10.159  0.5879  0.4215 -0.0310
 8583TIP3   OH249943   5.572   0.033   8.782  0.5409 -0.0802  0.2348
 8583TIP3    H149944   5.666   0.017   8.790  0.5137 -1.1559 -1.2511
 8583TIP3    H249945   5.531  -0.048   8.812  0.1403 -0.1661 -0.5214
 8584TIP3   OH249946   0.109   5.609  10.458  0.5193 -0.6082  0.5328
 8584TIP3    H149947   0.120   5.516  10.440  0.0262 -0.8290  1.3422
 8584TIP3    H249948   0.159   5.653  10.388  0.4230 -1.4640 -0.0905
 8585TIP3   OH249949   6.538   1.255   9.310 -0.2884 -0.4266  0.0255
 8585TIP3    H149950   6.578   1.215   9.232  0.3036  0.1453  0.0237
 8585TIP3    H249951   6.557   1.193   9.381  3.1262  1.0608  0.6130
 8586TIP3   OH249952   1.128   0.878  10.388 -0.3814  0.1789 -0.3810
 8586TIP3    H149953   1.216   0.888  10.423 -0.1355  0.2291 -0.9926
 8586TIP3    H249954   1.121   0.784  10.368 -0.2904  0.2540 -0.7739
 8587TIP3   OH249955   5.618   6.744  11.492  0.1457 -0.4010 -0.0740
 8587TIP3    H149956   5.680   6.786  11.433  1.2723 -0.9828  0.6521
 8587TIP3    H249957   5.573   6.679  11.437 -0.9319  1.0463 -0.9669
 8588TIP3   OH249958   2.932   6.390  10.289 -0.2760  0.2077 -0.1373
 8588TIP3    H149959   2.945   6.381  10.384  0.6857  1.0352 -0.1746
 8588TIP3    H249960   2.868   6.323  10.267  0.6598 -1.0695  0.8575
 8589TIP3   OH249961   2.143   6.557  11.305  0.5869 -0.1287 -0.1049
 8589TIP3    H149962   2.154   6.469  11.271  0.6123 -0.3906  0.5703
 8589TIP3    H249963   2.072   6.551  11.368  2.2188 -0.2353  1.8445
 8590TIP3   OH249964   6.259   4.755   9.020  0.2053  0.6905  0.5542
 8590TIP3    H149965   6.171   4.733   9.052  0.0370  0.2749 -0.1752
 8590TIP3    H249966   6.291   4.820   9.082  0.0131 -0.3155  1.7643
 8591TIP3   OH249967   3.786   4.962  10.139  0.2073  0.5661  0.2032
 8591TIP3    H149968   3.785   4.908  10.060  1.1067  1.3529 -0.3612
 8591TIP3    H249969   3.729   5.036  10.119 -0.1471  0.4009  0.5730
 8592TIP3   OH249970   3.147   1.207  10.159  0.1394 -0.4769 -0.4840
 8592TIP3    H149971   3.056   1.235  10.148 -0.1183 -0.6299  1.0482
 8592TIP3    H249972   3.159   1.138  10.093  0.1173  1.5706 -2.7966
 8593TIP3   OH249973   1.992   3.832  11.408  0.2567 -0.1139 -0.0750
 8593TIP3    H149974   2.015   3.863  11.321 -2.2769  0.5786 -0.5764
 8593TIP3    H249975   1.931   3.760  11.393  2.8912 -2.8100  1.1457
 8594TIP3   OH249976   1.565   0.984  12.124  0.6770  0.0970  0.3768
 8594TIP3    H149977   1.573   0.920  12.053  0.2863 -1.0098  1.2966
 8594TIP3    H249978   1.640   0.965  12.182  1.6805  1.7690 -0.3088
 8595TIP3   OH249979   0.124   6.617  11.470  0.3180 -0.2963 -0.1386
 8595TIP3    H149980   0.189   6.660  11.414  0.4888 -1.1211 -0.5978
 8595TIP3    H249981   0.138   6.524  11.454 -1.7404 -0.4896 -1.1350
 8596TIP3   OH249982   1.490   4.433  10.661 -0.0031  0.2166  0.5822
 8596TIP3    H149983   1.405   4.474  10.680 -1.9636 -2.9225 -0.5482
 8596TIP3    H249984   1.484   4.409  10.568  1.3205 -1.7280  0.9401
 8597TIP3   OH249985   1.766   2.086   9.613  0.3035 -0.2065 -0.7549
 8597TIP3    H149986   1.760   1.997   9.649  1.0007 -0.2315 -0.6686
 8597TIP3    H249987   1.763   2.143   9.690  0.0813 -0.1692 -0.7921
 8598TIP3   OH249988   2.763   1.061   9.528 -0.1231 -0.0619 -0.6998
 8598TIP3    H149989   2.752   1.060   9.623 -2.4020 -2.9025 -0.8623
 8598TIP3    H249990   2.857   1.070   9.515  0.3811 -0.8135  1.8816
 8599TIP3   OH249991   4.323   5.803   9.157  0.0378 -0.4923  0.2849
 8599TIP3    H149992   4.305   5.756   9.076 -1.8894  0.2196  0.2235
 8599TIP3    H249993   4.271   5.757   9.224  2.4686 -1.7643  1.4193
 8600TIP3   OH249994   2.288   4.714   9.524 -0.2266 -0.1497  0.4670
 8600TIP3    H149995   2.259   4.639   9.472  1.1326 -0.1258 -0.3658
 8600TIP3    H249996   2.207   4.764   9.540 -0.7705 -0.3536 -1.3148
 8601TIP3   OH249997   1.664   1.581  11.680 -0.5693  0.1898 -0.0571
 8601TIP3    H149998   1.687   1.526  11.755  0.5725  0.7418  0.0124
 8601TIP3    H249999   1.742   1.582  11.625 -1.1137  0.4649 -0.8538
 8602TIP3   OH250000   6.520   0.685  11.295  0.0237 -0.3095 -0.1719
 8602TIP3    H150001   6.468   0.621  11.246 -0.6086  0.9860 -1.2439
 8602TIP3    H250002   6.463   0.709  11.369  0.1933 -0.8317  0.1374
 8603TIP3   OH250003   0.067   5.775  10.958 -0.4046 -0.3837  0.2858
 8603TIP3    H150004   0.114   5.732  10.886 -0.6258  1.5757 -1.1085
 8603TIP3    H250005  -0.018   5.731  10.960 -0.3091 -0.6273 -0.5127
 8604TIP3   OH250006   0.775   0.122  10.241  0.2241  0.1179  0.0012
 8604TIP3    H150007   0.796   0.211  10.214 -0.5965  0.1879 -0.4379
 8604TIP3    H250008   0.854   0.091  10.287  1.5406  0.1484 -2.0936
 8605TIP3   OH250009   2.151   3.185   9.676  0.1486  0.0207  0.3862
 8605TIP3    H150010   2.147   3.238   9.596 -1.0641  0.4468  0.7048
 8605TIP3    H250011   2.083   3.118   9.665  1.7046 -1.5438 -0.0322
 8606TIP3   OH250012   2.619   0.640  10.712 -0.0468 -0.3454 -0.2986
 8606TIP3    H150013   2.662   0.613  10.630 -0.1654 -0.8008 -0.2162
 8606TIP3    H250014   2.526   0.638  10.692 -0.0270  1.1151 -0.6167
 8607TIP3   OH250015   3.088   0.654   9.560 -0.3597 -0.0089  0.3877
 8607TIP3    H150016   3.146   0.658   9.484 -0.4822  1.7181  0.3542
 8607TIP3    H250017   3.145   0.630   9.633 -0.5534 -3.8375 -0.4651
 8608TIP3   OH250018   4.035   6.480   9.690  0.6148  0.0513 -0.2892
 8608TIP3    H150019   4.050   6.495   9.596  0.0841  0.5978 -0.2984
 8608TIP3    H250020   3.958   6.533   9.710 -0.9233 -2.1159 -0.1165
 8609TIP3   OH250021   3.858   6.255   9.269 -0.1456 -0.1645 -0.5416
 8609TIP3    H150022   3.827   6.345   9.277 -0.6228 -0.3015 -0.8115
 8609TIP3    H250023   3.941   6.263   9.221 -0.2874  0.1148 -0.7468
 8610TIP3   OH250024   3.740   2.103   9.925  0.5866  0.0061 -0.1299
 8610TIP3    H150025   3.673   2.132   9.864  0.0715  0.2938  0.5532
 8610TIP3    H250026   3.784   2.183   9.953  0.2361 -0.0236  0.5301
 8611TIP3   OH250027   0.569   4.587  11.329 -0.1767  0.6459 -0.3062
 8611TIP3    H150028   0.654   4.543  11.323 -0.5439 -0.0558 -0.4563
 8611TIP3    H250029   0.567   4.645  11.253  0.7351  1.7196  0.4415
 8612TIP3   OH250030   4.664   0.070  11.332  0.1417 -0.2074 -0.8953
 8612TIP3    H150031   4.613   0.096  11.409  0.0171  2.4198 -1.7765
 8612TIP3    H250032   4.609   0.005  11.288 -0.5722 -0.4368  0.2875
 8613TIP3   OH250033   2.668   5.558  12.185 -0.0902 -0.0930 -0.4717
 8613TIP3    H150034   2.627   5.476  12.214 -0.0615 -0.0035 -0.1706
 8613TIP3    H250035   2.690   5.543  12.093 -0.9935 -0.0692 -0.6995
 8614TIP3   OH250036   3.177   0.401  11.663 -0.2048  0.4784  0.2180
 8614TIP3    H150037   3.266   0.370  11.674  0.2394  1.3165 -0.7601
 8614TIP3    H250038   3.186   0.495  11.647 -1.2788  0.6237  0.3523
 8615TIP3   OH250039   5.478   0.100  10.000 -0.3784  0.1391  0.4430
 8615TIP3    H150040   5.544   0.041   9.962 -0.6739  1.2671 -2.0131
 8615TIP3    H250041   5.528   0.175  10.031 -0.4504  1.1409 -1.7119
 8616TIP3   OH250042   1.438   3.619   9.738 -0.7011 -0.2184 -0.1807
 8616TIP3    H150043   1.374   3.565   9.692  0.4010 -2.7009  0.9658
 8616TIP3    H250044   1.429   3.593   9.830  1.0715  0.2665  0.1717
 8617TIP3   OH250045   0.346   1.064  10.809  0.1321  0.1614  0.1312
 8617TIP3    H150046   0.409   1.085  10.878  0.8113  0.7646 -0.6412
 8617TIP3    H250047   0.267   1.036  10.855  1.0662 -0.9218  1.1278
 8618TIP3   OH250048   3.529   3.783   9.208  0.1989 -0.0171 -0.7098
 8618TIP3    H150049   3.623   3.777   9.223 -0.1706 -0.4266  1.8945
 8618TIP3    H250050   3.499   3.853   9.266 -0.9506  1.1430 -2.5782
 8619TIP3   OH250051   4.211   5.054  10.708 -0.1903  0.2102  0.4391
 8619TIP3    H150052   4.159   5.131  10.731  2.2306  1.7361  1.1633
 8619TIP3    H250053   4.237   5.069  10.617  0.6423  0.4915  0.7154
 8620TIP3   OH250054   1.400   6.188   9.200 -0.4404 -0.3809 -0.5424
 8620TIP3    H150055   1.398   6.195   9.295 -0.5271  0.1807 -0.5864
 8620TIP3    H250056   1.361   6.102   9.182 -0.1447 -0.6217 -0.0612
 8621TIP3   OH250057   2.660   1.887   8.964 -0.0368  0.3620 -0.7086
 8621TIP3    H150058   2.707   1.834   8.899  1.2684  1.3596 -0.6211
 8621TIP3    H250059   2.648   1.828   9.039  0.3836 -0.1503 -1.0408
 8622TIP3   OH250060   4.693   6.047   9.082  0.5063  0.3463  0.0841
 8622TIP3    H150061   4.743   6.020   9.159 -1.2120  1.0860  1.5271
 8622TIP3    H250062   4.719   6.137   9.065  2.2451 -0.3710 -1.4091
 8623TIP3   OH250063   3.862   6.245  11.816  0.3250  0.1394  0.6238
 8623TIP3    H150064   3.934   6.184  11.831 -0.1987 -0.8313 -0.5533
 8623TIP3    H250065   3.871   6.269  11.723 -0.2537  0.8406  0.7402
 8624TIP3   OH250066   5.296   5.259   9.069  0.1797 -0.0414  0.0966
 8624TIP3    H150067   5.319   5.350   9.052 -0.4054 -0.2981 -2.4432
 8624TIP3    H250068   5.203   5.261   9.092 -0.1032 -0.0689 -0.9987
 8625TIP3   OH250069   5.287   5.111  10.366 -0.1573  0.0560  0.0129
 8625TIP3    H150070   5.376   5.080  10.383 -0.1985  0.3778  0.8916
 8625TIP3    H250071   5.281   5.194  10.415 -0.9926 -0.0549  0.1143
 8626TIP3   OH250072   5.670   6.540  10.219 -0.2958 -0.3810  0.2637
 8626TIP3    H150073   5.735   6.596  10.178 -1.8832  3.1087  2.0702
 8626TIP3    H250074   5.709   6.514  10.303  0.3733 -1.9560 -0.5014
 8627TIP3   OH250075   3.980   4.425  10.922 -0.0389 -0.2332  0.3762
 8627TIP3    H150076   4.056   4.475  10.952 -0.6832  1.8570 -1.2013
 8627TIP3    H250077   3.992   4.415  10.828 -1.3904 -0.3977  0.1915
 8628TIP3   OH250078   1.351   3.251  10.752 -0.2883 -0.7379  0.1138
 8628TIP3    H150079   1.409   3.192  10.799  1.1791  1.7021  1.6035
 8628TIP3    H250080   1.374   3.238  10.660  0.4469 -1.9657  0.4432
 8629TIP3   OH250081   3.701   1.067  10.464 -0.3606 -0.5452 -0.3220
 8629TIP3    H150082   3.696   1.122  10.385 -0.1026  0.0495  0.0676
 8629TIP3    H250083   3.683   1.128  10.536 -0.9274 -1.1521  0.0527
 8630TIP3   OH250084   1.063   1.127   8.632 -0.3133 -0.2675 -1.2312
 8630TIP3    H150085   1.038   1.127   8.540 -0.1498 -1.3476 -1.2825
 8630TIP3    H250086   0.980   1.134   8.680 -0.4965 -0.9424 -1.4448
 8631TIP3   OH250087   5.881   5.466   9.296  0.4894 -0.0789  0.7720
 8631TIP3    H150088   5.959   5.469   9.352  0.7358 -0.4226  0.4495
 8631TIP3    H250089   5.849   5.556   9.295  1.2900  0.2062  0.3319
 8632TIP3   OH250090   1.733   0.073  10.666 -0.0121  0.0707 -0.8384
 8632TIP3    H150091   1.661   0.132  10.688  1.6232  1.6446  0.6005
 8632TIP3    H250092   1.701  -0.014  10.690 -1.3290  0.7560  0.0227
 8633TIP3   OH250093   6.285   6.364   9.172  0.0853 -0.6296 -0.3723
 8633TIP3    H150094   6.200   6.321   9.160 -0.0567 -0.2300 -0.8217
 8633TIP3    H250095   6.304   6.404   9.087  0.0461  0.4979  0.1358
 8634TIP3   OH250096   2.524   2.507   9.607  0.0967  0.0006  0.3367
 8634TIP3    H150097   2.507   2.547   9.692  0.9689  0.3412  0.3688
 8634TIP3    H250098   2.513   2.413   9.622  0.3129  0.0535  0.8473
 8635TIP3   OH250099   4.456   3.708  11.317 -0.5896 -0.0238  0.1073
 8635TIP3    H150100   4.417   3.632  11.273 -1.9670 -0.1255  1.4168
 8635TIP3    H250101   4.492   3.761  11.246  0.4911 -1.9269 -0.8464
 8636TIP3   OH250102   0.000   2.232   8.862  0.3758 -0.8322 -0.2197
 8636TIP3    H150103   0.082   2.198   8.826  1.0867 -1.7074  2.0606
 8636TIP3    H250104  -0.063   2.162   8.849  0.2389 -0.5736 -1.0163
 8637TIP3   OH250105   1.832   6.403  10.313  0.3095  0.1345  0.6835
 8637TIP3    H150106   1.829   6.483  10.366 -0.6850 -0.3762  1.4218
 8637TIP3    H250107   1.835   6.435  10.222 -1.4576  1.0230  0.9029
 8638TIP3   OH250108   0.087   0.732  10.909  0.4006 -0.0644  0.1738
 8638TIP3    H150109   0.051   0.727  10.997  0.8889 -0.5800  0.3479
 8638TIP3    H250110   0.084   0.642  10.876 -0.7253  0.2752 -0.7245
 8639TIP3   OH250111   2.448   4.801   8.845 -0.1572 -0.2860  0.1203
 8639TIP3    H150112   2.526   4.844   8.880 -0.3410 -0.0992  0.3084
 8639TIP3    H250113   2.479   4.716   8.814  0.4176  0.3830 -1.2193
 8640TIP3   OH250114   6.471   1.808  11.925 -0.3533 -0.5795  0.4469
 8640TIP3    H150115   6.535   1.813  11.854 -0.4373  0.2426  0.4201
 8640TIP3    H250116   6.493   1.728  11.972  0.7897 -0.2369  0.5209
 8641TIP3   OH250117   4.298   0.466  10.549  0.1257 -0.7996  0.0457
 8641TIP3    H150118   4.358   0.531  10.514  0.1766 -2.0721 -2.4053
 8641TIP3    H250119   4.214   0.511  10.554  0.4491 -0.1527 -0.2400
 8642TIP3   OH250120   0.047   2.653   8.850  0.4277 -0.2463  0.5802
 8642TIP3    H150121   0.026   2.716   8.781  1.7441 -2.0436 -1.6064
 8642TIP3    H250122   0.105   2.701   8.909  1.0984  0.7133 -0.8051
 8643TIP3   OH250123   5.385   3.253  10.907  0.1730 -0.3712  0.0184
 8643TIP3    H150124   5.401   3.290  10.820  0.9312  3.6935  1.6984
 8643TIP3    H250125   5.291   3.235  10.908 -0.0482  0.5313 -1.3065
 8644TIP3   OH250126   3.354   2.197   9.995  0.0139  0.5286 -0.1468
 8644TIP3    H150127   3.329   2.236  10.079  2.6275  1.0523  0.4539
 8644TIP3    H250128   3.397   2.267   9.947 -0.3626 -0.1001 -1.4502
 8645TIP3   OH250129   2.995   3.043  11.376 -0.1416  0.2998 -0.4019
 8645TIP3    H150130   2.912   3.058  11.329 -0.3127  0.5572 -0.0271
 8645TIP3    H250131   3.003   3.119  11.434  0.6274  0.5400 -0.8143
 8646TIP3   OH250132   6.370   3.391   8.865 -0.3099  0.3854  0.0926
 8646TIP3    H150133   6.339   3.334   8.795 -0.5784  0.1911  0.3691
 8646TIP3    H250134   6.295   3.447   8.885 -1.2157 -1.4640  2.2021
 8647TIP3   OH250135   3.973   1.050   9.571 -0.3738 -0.0015 -0.0733
 8647TIP3    H150136   3.986   1.105   9.493 -3.2219 -2.6009 -2.6568
 8647TIP3    H250137   3.918   1.102   9.629 -0.3502  1.0445 -0.9603
 8648TIP3   OH250138   4.165   1.876  10.296  0.6927 -0.1254  0.5106
 8648TIP3    H150139   4.218   1.811  10.250  0.1907 -0.2753  0.1469
 8648TIP3    H250140   4.119   1.923  10.228 -0.8931 -1.0665  0.8809
 8649TIP3   OH250141   5.224   3.307   9.042 -0.2515 -0.3619 -0.2990
 8649TIP3    H150142   5.271   3.335   9.121 -1.2088 -0.4261  0.3054
 8649TIP3    H250143   5.290   3.310   8.973  0.1496  1.4893  0.1241
 8650TIP3   OH250144   4.842   5.259  10.805  0.2652 -0.3439  0.4564
 8650TIP3    H150145   4.760   5.293  10.768 -0.5885 -0.9437  1.7447
 8650TIP3    H250146   4.892   5.230  10.729  0.4223  2.3925 -0.6059
 8651TIP3   OH250147   0.896   2.324  11.734 -0.7568  0.3756 -0.3202
 8651TIP3    H150148   0.985   2.350  11.755 -0.7395 -0.2680  0.4587
 8651TIP3    H250149   0.843   2.402  11.751 -0.7562 -0.0988  2.3093
 8652TIP3   OH250150   4.754   6.470  11.458 -0.7594  0.1291  0.4325
 8652TIP3    H150151   4.816   6.525  11.505 -0.4700 -0.2202  0.4690
 8652TIP3    H250152   4.809   6.413  11.404 -1.0442 -0.1983  0.4813
 8653TIP3   OH250153   6.463   1.270  10.663 -0.0219  0.5885  0.2847
 8653TIP3    H150154   6.463   1.221  10.581  0.5553 -1.7116  1.5656
 8653TIP3    H250155   6.373   1.268  10.692 -0.0559  0.5708  0.1795
 8654TIP3   OH250156   0.733   6.442  10.060  0.1174 -0.4106 -0.1845
 8654TIP3    H150157   0.779   6.365  10.026  2.3842  0.1983  1.2786
 8654TIP3    H250158   0.673   6.408  10.126  1.1293 -0.9741  0.4770
 8655TIP3   OH250159   4.344   5.342  10.765  0.3228 -0.5576  0.0517
 8655TIP3    H150160   4.290   5.266  10.743 -0.0572 -0.7564  1.5557
 8655TIP3    H250161   4.306   5.413  10.714 -0.3462 -1.0357 -0.1380
 8656TIP3   OH250162   4.846   2.370   8.853 -0.5355  0.4373  0.2015
 8656TIP3    H150163   4.879   2.313   8.922  0.0231  1.4048  0.7616
 8656TIP3    H250164   4.762   2.401   8.887  0.6849  2.6189  1.5156
 8657TIP3   OH250165   4.489   4.267  10.217 -0.4382  0.2617  0.4239
 8657TIP3    H150166   4.443   4.344  10.250  0.4937  1.5853 -1.1845
 8657TIP3    H250167   4.581   4.295  10.212 -0.2374 -0.5707 -1.2000
 8658TIP3   OH250168   3.077   5.105  11.018  0.5775  0.6830  0.5578
 8658TIP3    H150169   3.159   5.143  11.049  0.6722 -0.0258  1.2192
 8658TIP3    H250170   3.102   5.043  10.949  0.8982 -1.3206  2.3538
 8659TIP3   OH250171   5.036   6.118  10.003 -0.0925 -0.5142  0.4753
 8659TIP3    H150172   5.038   6.100  10.097  0.2549  2.3848  1.1236
 8659TIP3    H250173   4.951   6.160   9.989  0.7685  1.1857  0.0312
 8660TIP3   OH250174   0.776   2.763  10.013 -0.3063 -0.5940 -0.0230
 8660TIP3    H150175   0.770   2.713  10.094  0.8765 -1.5612 -0.5055
 8660TIP3    H250176   0.824   2.706   9.953 -0.5400  0.3882 -1.1853
 8661TIP3   OH250177   2.097   2.372  12.039 -0.1040 -0.4854  0.2290
 8661TIP3    H150178   2.045   2.318  11.980  0.1203 -0.5476  0.0873
 8661TIP3    H250179   2.077   2.338  12.126  0.1242 -0.8749  0.1305
 8662TIP3   OH250180   6.128   3.093   9.689  0.0924  0.3567  0.2641
 8662TIP3    H150181   6.060   3.094   9.757 -0.4063 -0.6602 -0.2071
 8662TIP3    H250182   6.210   3.103   9.737 -0.2507 -0.4313  1.0301
 8663TIP3   OH250183   4.380   0.705  11.465  0.4401 -0.2934  0.4008
 8663TIP3    H150184   4.355   0.686  11.375  2.6950 -1.5776 -0.0387
 8663TIP3    H250185   4.333   0.640  11.518 -2.1133  1.4303  0.4295
 8664TIP3   OH250186   3.041   5.083  10.497  0.3032 -0.4201  0.1054
 8664TIP3    H150187   3.031   5.000  10.451  0.8437 -0.8348  0.7218
 8664TIP3    H250188   2.953   5.102  10.531  0.2306 -0.8493  0.1529
 8665TIP3   OH250189   6.367   5.158   9.254  0.3031  0.1766  0.5999
 8665TIP3    H150190   6.364   5.253   9.266  1.5360  0.3122  0.0194
 8665TIP3    H250191   6.455   5.133   9.284 -0.1202 -0.8378  1.0513
 8666TIP3   OH250192   3.176   6.354  11.363  0.1673 -0.7288  0.3046
 8666TIP3    H150193   3.167   6.275  11.416 -0.2077 -0.0478  1.2807
 8666TIP3    H250194   3.253   6.398  11.400  0.4032 -0.6546 -0.2646
 8667TIP3   OH250195   2.393   0.929   9.147 -0.3359  0.0486 -0.7455
 8667TIP3    H150196   2.487   0.923   9.165 -0.3277  1.6417 -0.1383
 8667TIP3    H250197   2.351   0.886   9.221 -0.1404  2.0168  0.5780
 8668TIP3   OH250198   6.555   2.292  10.765  0.1727  0.2680 -0.2555
 8668TIP3    H150199   6.508   2.374  10.779 -2.1175 -0.9593 -0.4230
 8668TIP3    H250200   6.602   2.277  10.848  0.2404  1.4708 -0.0576
 8669TIP3   OH250201   6.460   1.703   8.916  0.2578 -0.1130 -0.0611
 8669TIP3    H150202   6.410   1.647   8.857  2.4489 -0.9106 -1.2736
 8669TIP3    H250203   6.547   1.662   8.920  1.1411  1.7450  1.1277
 8670TIP3   OH250204   1.495   3.666  11.071  0.0254  0.3532 -0.2663
 8670TIP3    H150205   1.420   3.723  11.090  0.2204  0.1118  1.4129
 8670TIP3    H250206   1.461   3.577  11.086  0.1307  0.1076 -1.4104
 8671TIP3   OH250207   4.414   4.827  11.420  0.4496  0.1226 -0.3787
 8671TIP3    H150208   4.324   4.837  11.450  0.2170 -0.6324 -0.7884
 8671TIP3    H250209   4.466   4.882  11.479 -0.2943  0.7057 -0.2579
 8672TIP3   OH250210   4.853   2.361  11.843 -0.2570 -0.1650  0.6807
 8672TIP3    H150211   4.899   2.295  11.895 -0.4211  0.1796  1.2702
 8672TIP3    H250212   4.794   2.404  11.905 -0.1349  0.5544  0.3081
 8673TIP3   OH250213   1.892   2.953  10.525  0.4558 -0.4058  0.2482
 8673TIP3    H150214   1.914   3.013  10.453 -0.2734  0.4287  0.6970
 8673TIP3    H250215   1.852   2.878  10.482  1.0060 -0.3915 -0.3013
 8674TIP3   OH250216   2.715   5.982  11.107  0.0509 -0.0330  0.2001
 8674TIP3    H150217   2.660   5.918  11.152  1.1000 -0.1163  1.4045
 8674TIP3    H250218   2.743   5.937  11.027  1.3964 -1.4009  1.3903
 8675TIP3   OH250219   6.612   6.572   8.882 -0.0300  0.1021 -0.0615
 8675TIP3    H150220   6.694   6.611   8.853 -0.8519  1.7073 -0.3005
 8675TIP3    H250221   6.623   6.560   8.976  0.3577  0.6458 -0.0332
 8676TIP3   OH250222   0.733   5.122   9.389  0.2213  0.6642 -0.3725
 8676TIP3    H150223   0.769   5.165   9.467  1.8804  2.2361 -1.9092
 8676TIP3    H250224   0.808   5.083   9.346 -0.7367 -0.5522 -1.0003
 8677TIP3   OH250225   5.420   5.303  11.762  0.3722 -0.1657  0.0034
 8677TIP3    H150226   5.497   5.303  11.820  0.2505 -0.4955  0.1708
 8677TIP3    H250227   5.376   5.220  11.781  0.2908 -0.2432 -0.5156
 8678TIP3   OH250228   1.367   0.543  10.562 -0.2108  0.0412 -0.9628
 8678TIP3    H150229   1.339   0.494  10.485  0.7652 -0.7266 -0.8566
 8678TIP3    H250230   1.439   0.491  10.598 -0.2286  0.7211  0.0983
 8679TIP3   OH250231   2.355   1.414   9.203 -0.6189 -0.1401 -0.3372
 8679TIP3    H150232   2.308   1.332   9.194  0.1655 -0.4229 -2.4556
 8679TIP3    H250233   2.303   1.477   9.153 -0.8010  0.4986  0.6198
 8680TIP3   OH250234   1.125   0.348   9.719  0.2241 -0.7023 -0.0044
 8680TIP3    H150235   1.100   0.350   9.811 -0.3163  0.0369 -0.1578
 8680TIP3    H250236   1.129   0.255   9.697 -1.4875 -0.8744  0.2822
 8681TIP3   OH250237   6.273   0.915   9.902 -0.8317 -0.2600 -0.0630
 8681TIP3    H150238   6.252   0.867   9.822  0.8138 -0.5597 -0.3681
 8681TIP3    H250239   6.224   0.996   9.895 -1.8853 -0.9283 -0.6438
 8682TIP3   OH250240   1.501   6.158  10.617 -0.4256  0.1151  0.1843
 8682TIP3    H150241   1.491   6.063  10.622  0.4424 -0.0041 -0.0492
 8682TIP3    H250242   1.491   6.178  10.524  0.9807  0.0265 -0.0164
 8683TIP3   OH250243   1.656   4.098   9.831  0.0279 -0.1541 -0.0327
 8683TIP3    H150244   1.750   4.099   9.852 -0.0724  0.2140  0.3920
 8683TIP3    H250245   1.614   4.070   9.912 -0.3189  0.7877  0.1195
 8684TIP3   OH250246   3.447   5.663  10.334 -0.0914  0.0669  0.2225
 8684TIP3    H150247   3.429   5.613  10.413 -1.0893  1.7654  1.1344
 8684TIP3    H250248   3.524   5.715  10.355 -0.8031  1.0923  0.4067
 8685TIP3   OH250249   4.028   1.617  10.351  0.4079  0.3434 -0.3012
 8685TIP3    H150250   4.104   1.560  10.341 -1.0309 -1.3054 -2.7777
 8685TIP3    H250251   4.065   1.706  10.344  2.3632 -0.2744  1.1051
 8686TIP3   OH250252   6.126   6.347  11.375  0.1592 -0.1426  0.3201
 8686TIP3    H150253   6.200   6.291  11.351  0.1319  0.3912 -1.1169
 8686TIP3    H250254   6.062   6.287  11.412  0.3870 -0.9860 -0.5885
 8687TIP3   OH250255   6.156   2.958  10.988 -0.0929  0.0804 -0.2525
 8687TIP3    H150256   6.242   2.925  11.012 -0.0276 -0.6477 -1.4033
 8687TIP3    H250257   6.102   2.944  11.066  1.2366  2.2734  1.1541
 8688TIP3   OH250258   3.383   0.749  12.048 -0.4161 -0.1580  0.0899
 8688TIP3    H150259   3.319   0.808  12.009  3.1014  2.9593 -1.5527
 8688TIP3    H250260   3.432   0.803  12.109  2.0446 -1.7539 -0.3217
 8689TIP3   OH250261   1.270   2.410  10.255 -0.5047  0.2643 -0.2019
 8689TIP3    H150262   1.248   2.334  10.309 -2.2837  0.9254  0.0638
 8689TIP3    H250263   1.359   2.434  10.281 -0.2353 -1.1981  0.3070
 8690TIP3   OH250264   2.857   0.425   8.620 -0.2703 -0.4500 -0.4089
 8690TIP3    H150265   2.762   0.430   8.628 -0.2495  1.6456 -0.7800
 8690TIP3    H250266   2.880   0.503   8.569  1.6926 -0.6448  0.1161
 8691TIP3   OH250267   1.386   5.666  11.032  0.0419 -0.1075  0.2564
 8691TIP3    H150268   1.301   5.645  11.071 -0.0347 -0.4876 -0.1009
 8691TIP3    H250269   1.450   5.635  11.095 -0.0822  0.9859  0.9374
 8692TIP3   OH250270   6.208   2.235  11.639  0.1486  0.3743  0.0284
 8692TIP3    H150271   6.274   2.284  11.688  1.3356 -1.0762 -0.0577
 8692TIP3    H250272   6.126   2.280  11.659  0.8238  0.8544  1.9628
 8693TIP3   OH250273   3.582   3.745  11.043  0.2834 -0.5779  0.1062
 8693TIP3    H150274   3.665   3.764  11.088  0.5422  1.2646 -1.0639
 8693TIP3    H250275   3.600   3.665  10.993  1.1774 -0.5068  0.2959
 8694TIP3   OH250276   6.341   3.364   9.263  0.1785  0.2837 -0.5800
 8694TIP3    H150277   6.291   3.436   9.302  1.2331 -0.5220  2.5216
 8694TIP3    H250278   6.286   3.287   9.274  0.9643 -0.1531  0.4820
 8695TIP3   OH250279   1.476   1.259  12.030  0.0572  0.2975 -0.3252
 8695TIP3    H150280   1.543   1.194  12.051 -0.2853 -0.1522 -0.5970
 8695TIP3    H250281   1.483   1.324  12.100 -0.2087 -0.5126  0.4791
 8696TIP3   OH250282   1.803   1.256   9.759  0.0637 -0.0719  0.1052
 8696TIP3    H150283   1.794   1.195   9.833  2.4948 -0.8871 -0.1904
 8696TIP3    H250284   1.796   1.343   9.799  2.2655 -0.4678  1.5415
 8697TIP3   OH250285   1.475   4.795   9.566 -0.2793  0.0265 -0.1707
 8697TIP3    H150286   1.459   4.789   9.472 -0.5029  0.6780 -0.1844
 8697TIP3    H250287   1.429   4.875   9.593  0.9188  0.5964  0.2406
 8698TIP3   OH250288   3.687   3.536   9.647 -0.0442 -0.2406 -0.0424
 8698TIP3    H150289   3.761   3.536   9.587 -0.5610  0.6128 -0.6990
 8698TIP3    H250290   3.614   3.501   9.595  0.2599 -2.8033  1.1105
 8699TIP3   OH250291   6.170   2.272   9.391  0.5241  0.2102 -0.0253
 8699TIP3    H150292   6.230   2.330   9.345 -0.2988  1.5100  0.4709
 8699TIP3    H250293   6.215   2.188   9.394  1.3135  0.5377 -1.6687
 8700TIP3   OH250294   2.023   5.747   8.214 -0.1104 -0.0421  0.0496
 8700TIP3    H150295   1.970   5.823   8.191  1.0418  0.8655  0.3124
 8700TIP3    H250296   2.110   5.782   8.232  0.1151 -1.2430  1.5456
 8701TIP3   OH250297   3.147   4.537  10.095 -0.1952 -0.2569 -0.3057
 8701TIP3    H150298   3.119   4.535  10.187 -0.4542 -1.2992 -0.4025
 8701TIP3    H250299   3.236   4.572  10.099 -1.4116  3.1926 -0.0002
 8702TIP3   OH250300   1.221   5.749  10.303  0.5389 -0.0726 -0.0090
 8702TIP3    H150301   1.201   5.682  10.237 -0.2408  0.0902  0.0436
 8702TIP3    H250302   1.312   5.734  10.327  0.4731 -0.9004 -0.2518
 8703TIP3   OH250303   2.994   4.865  11.146  0.3636  0.4801 -0.2581
 8703TIP3    H150304   2.997   4.860  11.242  1.8645 -1.3059 -0.3371
 8703TIP3    H250305   3.016   4.956  11.126  1.0113  0.6461  1.0937
 8704TIP3   OH250306   0.125   2.906   9.272  0.4488  0.4759  0.0850
 8704TIP3    H150307   0.151   2.992   9.240 -1.8439  0.8963 -0.8423
 8704TIP3    H250308   0.032   2.915   9.290  0.5065 -1.3719  1.5822
 8705TIP3   OH250309   3.299   2.900  10.586 -0.2896  0.8004  0.1788
 8705TIP3    H150310   3.349   2.818  10.579  0.0156  0.8637  1.5010
 8705TIP3    H250311   3.363   2.965  10.616 -0.2329  1.8457 -2.0063
 8706TIP3   OH250312   0.413   6.286   9.459  0.1735 -0.0384  1.0383
 8706TIP3    H150313   0.445   6.324   9.541 -0.9981  0.3200  1.3532
 8706TIP3    H250314   0.363   6.357   9.418 -0.5213 -0.6755  0.7563
 8707TIP3   OH250315   2.496   0.912  10.666 -0.2072  0.0299  0.0286
 8707TIP3    H150316   2.448   0.831  10.680  0.3827 -0.9527 -2.9341
 8707TIP3    H250317   2.588   0.886  10.666 -0.0114  0.6666 -0.9296
 8708TIP3   OH250318   4.559   1.524   8.681  0.2911  0.4651 -0.2778
 8708TIP3    H150319   4.604   1.560   8.605 -2.9644 -0.6043 -2.9561
 8708TIP3    H250320   4.500   1.593   8.709 -0.5534 -0.1074 -0.6001
 8709TIP3   OH250321   3.697   3.473  10.974 -0.1674  0.1516 -0.2671
 8709TIP3    H150322   3.655   3.411  10.915  0.9667 -0.6740 -0.2214
 8709TIP3    H250323   3.787   3.481  10.942 -0.0736  1.1782  0.1956
 8710TIP3   OH250324   4.743   6.293   8.820  1.1177 -0.2131  0.0347
 8710TIP3    H150325   4.814   6.317   8.880  0.2572 -0.1415  1.0775
 8710TIP3    H250326   4.756   6.200   8.802  0.5158 -0.6521  1.6370
 8711TIP3   OH250327   4.117   1.665   8.853  0.2002  0.2745 -0.7629
 8711TIP3    H150328   4.034   1.617   8.851  0.8052 -1.0994  1.8030
 8711TIP3    H250329   4.095   1.749   8.894  0.1886 -0.5039  0.9048
 8712TIP3   OH250330   4.219   6.736   9.894  0.1575 -0.7494 -0.0121
 8712TIP3    H150331   4.159   6.747   9.821 -0.5085  0.8785  0.7268
 8712TIP3    H250332   4.170   6.767   9.970  1.6223 -0.2158  0.7587
 8713TIP3   OH250333   5.337   4.526   8.730 -0.1652 -0.1725 -0.3666
 8713TIP3    H150334   5.433   4.519   8.729  0.0038  1.4896  0.6085
 8713TIP3    H250335   5.310   4.475   8.807  0.1697  1.2392  0.7296
 8714TIP3   OH250336   5.906   1.996   9.332  0.1704 -0.3140  0.6900
 8714TIP3    H150337   5.979   1.944   9.298 -1.5297 -1.2406 -1.7725
 8714TIP3    H250338   5.829   1.940   9.321 -1.2750  1.5100  1.0208
 8715TIP3   OH250339   0.870   0.981  12.409 -0.3719  0.3507  0.7785
 8715TIP3    H150340   0.795   0.922  12.418 -0.4569  0.5765  1.6003
 8715TIP3    H250341   0.933   0.950  12.473 -0.6418  1.4717  1.6384
 8716TIP3   OH250342   4.995   1.155   9.136  0.0247 -0.6180 -0.4159
 8716TIP3    H150343   5.068   1.197   9.091  1.2083 -0.5441  1.4634
 8716TIP3    H250344   5.006   1.062   9.118  0.9955 -0.6716  0.4082
 8717TIP3   OH250345   0.095   6.514  10.431 -0.2646 -0.1713 -0.2332
 8717TIP3    H150346   0.010   6.538  10.395 -2.0126 -0.4014  3.3462
 8717TIP3    H250347   0.089   6.420  10.447  1.6160 -0.6718 -1.9878
 8718TIP3   OH250348   3.928   5.042   8.827  0.6692 -0.0195 -0.2138
 8718TIP3    H150349   3.971   5.033   8.912  1.0457 -1.7909 -0.5565
 8718TIP3    H250350   3.938   5.134   8.805  1.2333  0.3164  1.3074
 8719TIP3   OH250351   2.785   5.252  11.575 -0.0888  0.4914  0.1219
 8719TIP3    H150352   2.753   5.280  11.661  0.4136  2.1106 -0.1834
 8719TIP3    H250353   2.849   5.319  11.551  1.2101 -0.9669 -0.6698
 8720TIP3   OH250354   3.257   6.167   9.895  0.2797  0.2479 -0.1073
 8720TIP3    H150355   3.216   6.221   9.827 -2.5172  0.9800  1.9860
 8720TIP3    H250356   3.342   6.144   9.858 -1.1435  0.3518 -3.9716
 8721TIP3   OH250357   4.599   2.745   9.542 -0.5586 -0.3267 -0.4630
 8721TIP3    H150358   4.569   2.676   9.483 -2.4274 -0.1538  0.1957
 8721TIP3    H250359   4.651   2.804   9.487 -1.3091 -0.7679 -1.6800
 8722TIP3   OH250360   1.051   0.688  11.115 -0.4467 -0.4271 -0.6977
 8722TIP3    H150361   1.102   0.765  11.088 -0.6077 -0.7858 -2.0986
 8722TIP3    H250362   0.960   0.717  11.113 -0.3673  0.6777  3.2978
 8723TIP3   OH250363   1.987   4.344   9.916  0.1846 -0.2305 -0.1032
 8723TIP3    H150364   1.969   4.364  10.007 -0.3144 -0.2679 -0.1935
 8723TIP3    H250365   2.081   4.361   9.906 -0.0650  1.3396 -0.0038
 8724TIP3   OH250366   6.515   3.986  10.777  0.3172 -0.1210 -0.1811
 8724TIP3    H150367   6.428   4.025  10.768 -0.0205 -0.8274 -0.0495
 8724TIP3    H250368   6.561   4.044  10.838 -0.1685  0.0881 -0.0109
 8725TIP3   OH250369   6.371   3.143   9.822 -0.2439  0.1603 -0.1145
 8725TIP3    H150370   6.388   3.114   9.912 -1.0495  2.5542  0.8886
 8725TIP3    H250371   6.454   3.183   9.794 -0.0979 -0.2787 -0.3140
 8726TIP3   OH250372   5.681   1.129  10.028 -0.0321  0.3924 -0.1059
 8726TIP3    H150373   5.765   1.164  10.057  0.4870  0.3328 -1.4765
 8726TIP3    H250374   5.699   1.091   9.942 -1.4937  0.5145 -0.4944
 8727TIP3   OH250375   2.485   0.413   8.770 -0.8834 -0.1786  0.7037
 8727TIP3    H150376   2.529   0.469   8.706  2.7441 -3.3210  0.0902
 8727TIP3    H250377   2.414   0.371   8.722 -3.1853  3.0526  0.9887
 8728TIP3   OH250378   2.264   1.901  10.074  0.1067  0.0107 -0.6956
 8728TIP3    H150379   2.299   1.829  10.127 -0.3737  0.3363  0.0767
 8728TIP3    H250380   2.182   1.867  10.038 -0.3190  0.3061 -0.0095
 8729TIP3   OH250381   1.530   4.361   8.346 -0.0052 -0.6289  0.1204
 8729TIP3    H150382   1.475   4.292   8.310  0.4783 -0.0918 -1.7333
 8729TIP3    H250383   1.613   4.354   8.298  0.7439  0.0236  1.2559
 8730TIP3   OH250384   4.040   2.696  10.266  0.1014  0.3084  0.1710
 8730TIP3    H150385   3.989   2.647  10.201  1.1533  0.5662 -0.8673
 8730TIP3    H250386   4.101   2.748  10.215  1.0230  0.4461  1.3680
 8731TIP3   OH250387   0.072   6.338  11.976  0.0558  0.0416 -0.2181
 8731TIP3    H150388   0.058   6.415  12.032  3.0311  0.3396  0.3089
 8731TIP3    H250389   0.071   6.373  11.887  0.6220  0.5683 -0.0228
 8732TIP3   OH250390   0.923   2.670  11.952  1.0114  0.8064 -0.4311
 8732TIP3    H150391   0.907   2.612  12.026 -0.7666  0.6780 -0.8579
 8732TIP3    H250392   0.986   2.734  11.984  3.0541 -1.3236  0.0574
 8733TIP3   OH250393   1.918   2.771  10.755 -0.2277  0.2069  0.0299
 8733TIP3    H150394   1.945   2.856  10.721  0.0706  0.1379  0.0870
 8733TIP3    H250395   1.875   2.791  10.838  1.7330  0.1607  1.1271
 8734TIP3   OH250396   3.937   6.509  12.230  0.0755 -0.1885  0.6534
 8734TIP3    H150397   3.981   6.448  12.171 -0.9423 -1.3586  1.0516
 8734TIP3    H250398   4.006   6.541  12.288  0.7901 -0.2406 -0.1454
 8735TIP3   OH250399   6.408   4.025  11.173  0.4118 -0.8067  0.5785
 8735TIP3    H150400   6.316   4.003  11.186  0.3985 -0.6943  0.6813
 8735TIP3    H250401   6.441   4.046  11.260  1.0121 -2.6115  0.8394
 8736TIP3   OH250402   0.168   3.799  11.827  0.4073 -0.0679 -0.1282
 8736TIP3    H150403   0.182   3.873  11.886  0.6058 -0.9481  0.9554
 8736TIP3    H250404   0.149   3.840  11.742  0.3389  1.2209  0.4778
 8737TIP3   OH250405   6.264   0.789  10.377 -0.0455 -0.2738 -0.1719
 8737TIP3    H150406   6.274   0.777  10.282  3.4780 -0.4156  0.1081
 8737TIP3    H250407   6.277   0.702  10.414  0.0697  0.0285  0.5168
 8738TIP3   OH250408   2.147   6.156  11.474 -0.0147 -0.1665 -0.3632
 8738TIP3    H150409   2.109   6.069  11.485 -0.5949 -0.0196 -1.1408
 8738TIP3    H250410   2.172   6.183  11.562  1.4273 -1.6757 -0.2480
 8739TIP3   OH250411   0.103   3.360  10.696 -0.4951  0.1300 -0.0088
 8739TIP3    H150412   0.052   3.360  10.778  2.3220  1.3058  1.8777
 8739TIP3    H250413   0.049   3.410  10.635 -3.0761 -1.4815  0.7829
 8740TIP3   OH250414   5.280   1.076   8.756 -0.2510  0.1720  0.0209
 8740TIP3    H150415   5.197   1.110   8.723 -1.6182 -0.4430  2.6276
 8740TIP3    H250416   5.345   1.141   8.726 -1.8549  1.5228 -0.7196
 8741TIP3   OH250417   5.411   6.052   8.918 -0.3429 -0.1082  0.0682
 8741TIP3    H150418   5.474   5.986   8.887 -0.3200 -0.3191  0.5641
 8741TIP3    H250419   5.455   6.136   8.904  1.0886 -0.3335  2.6702
 8742TIP3   OH250420   1.986   2.851   9.051  0.8773 -0.0966  0.1297
 8742TIP3    H150421   1.989   2.771   8.999 -2.5109 -0.4556  0.2811
 8742TIP3    H250422   1.973   2.921   8.987  0.2110 -0.1295  0.2195
 8743TIP3   OH250423   5.947   0.343  11.402  0.0218  0.4850 -0.1662
 8743TIP3    H150424   5.889   0.318  11.474 -0.8550  0.9552 -0.6960
 8743TIP3    H250425   5.965   0.260  11.357  0.2615  0.2472  0.3528
 8744TIP3   OH250426   5.764   1.050   9.788  0.6965 -0.1171  0.1199
 8744TIP3    H150427   5.847   1.033   9.744  0.5007 -1.4757  0.2418
 8744TIP3    H250428   5.710   1.092   9.721  1.1274 -0.1846 -0.2755
 8745TIP3   OH250429   2.218   3.999  11.542  0.4936 -0.5076 -0.5168
 8745TIP3    H150430   2.244   3.950  11.620  2.1256 -0.6117 -1.0922
 8745TIP3    H250431   2.154   3.943  11.498 -0.6895 -0.3059  0.8931
 8746TIP3   OH250432   5.885   3.773  11.146  0.4244 -0.0766 -0.1856
 8746TIP3    H150433   5.889   3.863  11.181 -0.5135 -0.1194  0.0477
 8746TIP3    H250434   5.900   3.718  11.223 -0.7962 -0.1504  0.0195
 8747TIP3   OH250435   5.447   0.433  12.420  0.0980 -0.1658 -0.7721
 8747TIP3    H150436   5.539   0.424  12.447 -0.2068  0.7240  0.7087
 8747TIP3    H250437   5.404   0.469  12.498 -0.9793  2.0512 -2.3092
 8748TIP3   OH250438   6.067   2.345   9.646 -0.2116 -0.1816 -0.3286
 8748TIP3    H150439   6.008   2.271   9.664  2.0756 -1.6645  1.6550
 8748TIP3    H250440   6.117   2.317   9.569  0.5329 -0.6464  0.3160
 8749TIP3   OH250441   6.552   6.437  10.969  0.2786  0.2038  0.0976
 8749TIP3    H150442   6.514   6.494  11.036  2.9749  0.5905  1.4597
 8749TIP3    H250443   6.520   6.350  10.991 -1.3519  0.7222 -0.0681
 8750TIP3   OH250444   4.569   5.658  10.742  0.1815  0.1827  0.4077
 8750TIP3    H150445   4.543   5.694  10.827 -0.3684 -0.6674  0.6183
 8750TIP3    H250446   4.638   5.716  10.711  0.3032  0.5760  1.3840
 8751TIP3   OH250447   4.938   4.550   8.911 -0.0949 -0.4287 -0.1018
 8751TIP3    H150448   4.954   4.463   8.874  1.6408  0.6353 -2.0120
 8751TIP3    H250449   5.025   4.582   8.936 -0.8646  0.2378  1.9238
 8752TIP3   OH250450   4.851   3.057   9.104  0.0302  0.0142  0.3564
 8752TIP3    H150451   4.788   3.023   9.040  1.2283  0.5768 -1.1861
 8752TIP3    H250452   4.889   2.979   9.144  0.6538 -0.4199 -1.0304
 8753TIP3   OH250453   0.669   2.223  10.980 -0.0812 -0.1606  0.4373
 8753TIP3    H150454   0.627   2.150  11.025  0.6865 -0.4903  0.6407
 8753TIP3    H250455   0.684   2.288  11.048 -2.2841  0.9340 -0.0386
 8754TIP3   OH250456   4.857   3.144  10.687 -0.4084  0.0932 -0.1206
 8754TIP3    H150457   4.931   3.159  10.747  0.4056 -1.2070 -0.7544
 8754TIP3    H250458   4.898   3.112  10.607 -1.5576  0.9818 -1.0934
 8755TIP3   OH250459   5.863   2.224   9.882  0.1407 -0.3627 -0.4242
 8755TIP3    H150460   5.893   2.172   9.807  0.1281  0.3437 -0.9351
 8755TIP3    H250461   5.783   2.181   9.911  0.6973 -1.2462 -0.1531
 8756TIP3   OH250462   3.447   6.587   8.623 -0.0644  0.1419 -0.5011
 8756TIP3    H150463   3.432   6.626   8.709 -1.7792  1.3517 -1.2663
 8756TIP3    H250464   3.534   6.617   8.597  0.3276  0.0301  0.6665
 8757TIP3   OH250465   6.531   6.373  11.891 -0.1628 -0.0028  0.3142
 8757TIP3    H150466   6.620   6.340  11.897  0.2912  1.1703  0.3105
 8757TIP3    H250467   6.541   6.468  11.886 -1.2161  0.0581 -2.7581
 8758TIP3   OH250468   0.810   0.361  10.096  0.4131  0.1625  0.6235
 8758TIP3    H150469   0.836   0.443  10.054  1.1084  1.0937  2.7409
 8758TIP3    H250470   0.715   0.369  10.109 -0.4130 -1.3754 -3.1691
 8759TIP3   OH250471   2.580   5.620   8.832 -0.0024  0.1174 -0.2406
 8759TIP3    H150472   2.531   5.659   8.905  0.3447 -0.2787  0.2107
 8759TIP3    H250473   2.649   5.569   8.874 -1.4636 -2.4196 -0.7165
 8760TIP3   OH250474   2.793   1.094  10.512 -0.2907  0.4054  0.2479
 8760TIP3    H150475   2.802   1.143  10.594  1.5900  1.3344 -0.4366
 8760TIP3    H250476   2.789   1.002  10.538 -0.2747  0.7235  1.4055
 8761TIP3   OH250477   2.498   3.171   9.392  0.0329 -0.7533 -0.4265
 8761TIP3    H150478   2.436   3.210   9.331  0.5426 -0.1398 -0.5622
 8761TIP3    H250479   2.443   3.130   9.459 -0.5544  1.0413  0.2654
 8762TIP3   OH250480   3.316   0.312  10.784 -0.1780 -0.5313 -0.2978
 8762TIP3    H150481   3.258   0.338  10.855 -0.3678 -0.5363 -0.4493
 8762TIP3    H250482   3.336   0.220  10.802  1.2455 -0.0480  0.7553
 8763TIP3   OH250483   1.066   0.094  10.328 -0.0059  0.1621  0.1568
 8763TIP3    H150484   1.102   0.005  10.331 -0.8083 -0.1783  0.1045
 8763TIP3    H250485   1.135   0.146  10.287  0.9216 -0.2075  1.1891
 8764TIP3   OH250486   5.445   0.962  18.601 -0.1632 -0.0387 -0.3769
 8764TIP3    H150487   5.418   1.023  18.670  1.4384  0.2651  0.0192
 8764TIP3    H250488   5.498   0.896  18.646  0.3577 -0.2108 -1.2199
 8765TIP3   OH250489   3.184   6.385  11.711  0.4185 -0.1394 -0.0678
 8765TIP3    H150490   3.279   6.396  11.716  0.2084  1.4262  1.6361
 8765TIP3    H250491   3.154   6.399  11.801 -1.5249  0.6743 -0.7863
 8766TIP3   OH250492   3.483   0.186  10.196  0.1189  0.1937 -0.3569
 8766TIP3    H150493   3.399   0.203  10.154 -1.3028  0.4425  2.3841
 8766TIP3    H250494   3.529   0.269  10.192 -0.9768  0.8771  0.5763
 8767TIP3   OH250495   4.880   0.606  10.223 -0.2815  0.3679  0.0652
 8767TIP3    H150496   4.893   0.536  10.159 -2.3091 -1.2507  1.2824
 8767TIP3    H250497   4.839   0.562  10.297 -1.3583  2.8206  1.0084
 8768TIP3   OH250498   2.689   1.802   9.274 -0.0366  0.1848  0.2892
 8768TIP3    H150499   2.753   1.873   9.269  0.9816 -0.6283  1.4547
 8768TIP3    H250500   2.722   1.743   9.341 -1.3033 -0.9824 -0.0524
 8769TIP3   OH250501   6.202   5.925   9.357  0.3968  0.0577 -0.4723
 8769TIP3    H150502   6.284   5.885   9.385 -0.7995 -1.6256  0.8657
 8769TIP3    H250503   6.201   6.010   9.400  0.6478 -0.6562  0.9995
 8770TIP3   OH250504   3.829   1.724  10.801  0.5966  0.3679  0.3738
 8770TIP3    H150505   3.746   1.675  10.806  1.6680 -1.3987  2.7755
 8770TIP3    H250506   3.891   1.663  10.761  0.8223  1.7010 -1.4728
 8771TIP3   OH250507   5.099   3.329   9.338 -0.2267 -0.2281 -0.1232
 8771TIP3    H150508   5.165   3.348   9.272 -1.0922  0.8478 -0.7127
 8771TIP3    H250509   5.016   3.333   9.290 -0.8850  0.7846  1.0542
 8772TIP3   OH250510   3.890   4.215  11.112 -0.4758  0.4996  0.6615
 8772TIP3    H150511   3.929   4.166  11.040 -1.1585  0.1461  0.5271
 8772TIP3    H250512   3.908   4.307  11.091 -1.9575  0.5128 -0.7662
 8773TIP3   OH250513   6.343   0.742  11.521  0.0357  0.1547 -0.0356
 8773TIP3    H150514   6.357   0.811  11.586 -0.2501  0.9310 -0.7796
 8773TIP3    H250515   6.267   0.771  11.471  0.1605 -0.4994 -0.6226
 8774TIP3   OH250516   1.488   5.005  11.899 -0.2107  0.4251 -0.4983
 8774TIP3    H150517   1.395   5.021  11.886 -0.6681 -1.8950 -0.5804
 8774TIP3    H250518   1.509   5.048  11.981 -2.4464 -2.4411  1.8053
 8775TIP3   OH250519   3.740   3.833  11.968  0.2518  0.2598  0.4671
 8775TIP3    H150520   3.814   3.772  11.964  0.6582  0.5978  2.1461
 8775TIP3    H250521   3.740   3.875  11.882 -0.1774 -2.2032 -0.8457
 8776TIP3   OH250522   4.845   1.700  18.111 -0.0481  0.7728  0.0573
 8776TIP3    H150523   4.785   1.773  18.094  0.3642  1.0834 -0.1068
 8776TIP3    H250524   4.887   1.722  18.194  0.9557  1.3420 -0.5759
 8777TIP3   OH250525   6.441   3.378  10.721  0.0968  0.5409 -0.2655
 8777TIP3    H150526   6.420   3.333  10.803  4.0582 -3.0375 -0.8467
 8777TIP3    H250527   6.473   3.464  10.748 -1.5691  0.6482  1.5847
 8778TIP3   OH250528   5.198   5.869  11.591 -0.0052  0.1193 -0.4150
 8778TIP3    H150529   5.223   5.814  11.517 -0.3905 -0.5957 -0.0303
 8778TIP3    H250530   5.222   5.957  11.565  1.9605 -0.3889 -0.4981
 8779TIP3   OH250531   2.482   0.192  10.834  0.2221  0.3136  0.1978
 8779TIP3    H150532   2.518   0.125  10.776  1.7287  1.0599  0.2328
 8779TIP3    H250533   2.545   0.200  10.905 -0.2386  1.3258  0.5190
 8780TIP3   OH250534   2.869   4.808  10.188  0.0720  0.5047  0.3333
 8780TIP3    H150535   2.828   4.893  10.175 -1.3397 -0.3679 -1.2550
 8780TIP3    H250536   2.883   4.774  10.099  1.1478 -0.6815  0.9218
 8781TIP3   OH250537   3.954   5.687  10.453 -0.1398 -0.8137  0.2204
 8781TIP3    H150538   3.987   5.764  10.500 -2.4194 -0.5660  1.5774
 8781TIP3    H250539   4.001   5.688  10.370 -1.3710  3.2374 -0.6822
 8782TIP3   OH250540   2.668   6.678  12.580  0.6037  0.1154  0.4029
 8782TIP3    H150541   2.716   6.599  12.555 -0.2004 -0.1991 -0.1811
 8782TIP3    H250542   2.585   6.646  12.615 -0.1961  0.7266 -0.8814
 8783TIP3   OH250543   3.885   5.308   8.769 -0.2554  0.2375  0.1902
 8783TIP3    H150544   3.857   5.395   8.796  1.7313  1.7956 -2.2273
 8783TIP3    H250545   3.816   5.277   8.710  0.2277  1.4047 -1.0351
 8784TIP3   OH250546   0.190   6.488   8.709 -0.4886  0.0004 -0.4620
 8784TIP3    H150547   0.267   6.545   8.703 -0.0754 -0.3531  1.1607
 8784TIP3    H250548   0.218   6.405   8.670  0.7455 -0.8687  2.0694
 8785TIP3   OH250549   6.429   0.310   9.282 -0.1965  0.2841  0.2578
 8785TIP3    H150550   6.473   0.361   9.350  1.3232  1.1513 -1.2825
 8785TIP3    H250551   6.466   0.222   9.289 -0.7787  0.0858  1.1287
 8786TIP3   OH250552   1.234   4.682  11.750 -0.3279 -0.0386 -0.2816
 8786TIP3    H150553   1.267   4.682  11.840 -0.8951  1.5016 -0.0412
 8786TIP3    H250554   1.288   4.617  11.705  2.0655  1.3406  0.4338
 8787TIP3   OH250555   0.992   3.633  10.776  0.9009 -0.0032 -0.4289
 8787TIP3    H150556   0.982   3.539  10.766 -0.5886  0.0388  0.3658
 8787TIP3    H250557   0.969   3.669  10.691 -2.4898 -0.1813  0.2671
 8788TIP3   OH250558   6.439   1.210  11.223 -0.6963  0.1655 -0.0858
 8788TIP3    H150559   6.418   1.190  11.314 -2.8426  0.0103 -0.5457
 8788TIP3    H250560   6.505   1.146  11.198 -0.3825 -0.0487  1.2401
 8789TIP3   OH250561   5.163   4.187  10.928  0.0064  0.1187 -0.5683
 8789TIP3    H150562   5.136   4.255  10.867  1.3689  1.9999  0.8305
 8789TIP3    H250563   5.225   4.133  10.879  1.0317  1.5628 -0.9030
 8790TIP3   OH250564   2.656   4.546  11.491  0.0583 -0.3429 -0.2496
 8790TIP3    H150565   2.601   4.571  11.417 -1.0687  0.0940  0.6899
 8790TIP3    H250566   2.596   4.503  11.552  0.8501 -0.2720  0.6105
 8791TIP3   OH250567   4.256   5.219   9.506  0.3889 -0.1266 -0.4537
 8791TIP3    H150568   4.182   5.228   9.566 -1.2307  0.1530 -2.3689
 8791TIP3    H250569   4.250   5.129   9.474  1.4963 -0.4087  0.1162
 8792TIP3   OH250570   4.711   6.728  10.703  0.0613 -0.3998  0.1125
 8792TIP3    H150571   4.630   6.777  10.716  0.1288 -0.1643 -0.3508
 8792TIP3    H250572   4.781   6.791  10.721  0.1477 -0.3955 -0.2369
 8793TIP3   OH250573   0.329   6.446  11.686  0.0395  0.0526  0.0246
 8793TIP3    H150574   0.411   6.401  11.669 -0.3462 -1.5264  1.8851
 8793TIP3    H250575   0.355   6.530  11.724  0.7814  0.2534 -0.9077
 8794TIP3   OH250576   6.503   5.337   9.825 -0.3799 -0.6091 -0.2496
 8794TIP3    H150577   6.476   5.260   9.774 -1.3292 -0.3409 -0.1621
 8794TIP3    H250578   6.483   5.411   9.769  0.0204 -0.3906 -0.1053
 8795TIP3   OH250579   3.933   4.794  12.243  0.7161 -0.5040  0.0363
 8795TIP3    H150580   3.923   4.880  12.285 -3.3168 -0.0859 -1.3131
 8795TIP3    H250581   3.887   4.734  12.302 -1.2930 -0.6449 -1.5628
 8796TIP3   OH250582   1.324   4.315   8.536 -0.0760 -0.3446  0.2285
 8796TIP3    H150583   1.399   4.343   8.482 -0.7947 -0.6632 -0.9668
 8796TIP3    H250584   1.274   4.257   8.479  0.4015 -2.6616  2.0453
 8797TIP3   OH250585   0.013   0.128  10.241  0.0578 -0.0573 -0.4417
 8797TIP3    H150586  -0.015   0.218  10.254  0.7986  0.1602 -0.3238
 8797TIP3    H250587   0.080   0.114  10.308  1.0624 -0.1968 -1.4634
 8798TIP3   OH250588   6.743   0.033   9.617 -0.3737 -0.0315 -0.2724
 8798TIP3    H150589   6.776  -0.029   9.552  1.7638  1.3218 -0.5861
 8798TIP3    H250590   6.801   0.109   9.609 -0.7966  0.6741  2.3897
 8799TIP3   OH250591   6.403   2.473  10.518  0.2038  0.0040 -0.0894
 8799TIP3    H150592   6.484   2.494  10.566  0.1526  0.5231 -0.2183
 8799TIP3    H250593   6.338   2.533  10.555 -0.0411 -0.1804 -0.2227
 8800TIP3   OH250594   2.851   4.100  10.958  0.2420 -0.4815 -0.2741
 8800TIP3    H150595   2.904   4.180  10.960  0.7773 -0.8248 -0.5432
 8800TIP3    H250596   2.915   4.030  10.945 -0.3951 -0.7793 -2.1137
 8801TIP3   OH250597   4.173   0.851  10.168  0.1154  0.0284 -0.5115
 8801TIP3    H150598   4.252   0.842  10.221  1.0421 -1.6592 -2.0522
 8801TIP3    H250599   4.111   0.791  10.208 -0.6076  1.7006  0.9824
 8802TIP3   OH250600   3.382   2.959  12.038 -0.2820 -0.3674 -0.6874
 8802TIP3    H150601   3.409   2.884  12.090  0.7887  1.3037  1.3152
 8802TIP3    H250602   3.399   3.035  12.094 -0.8163  1.4326 -2.8053
 8803TIP3   OH250603   3.747   4.631  10.099  0.3943 -0.5724  0.3948
 8803TIP3    H150604   3.811   4.647  10.030  0.2728  1.9709  0.7744
 8803TIP3    H250605   3.663   4.658  10.061 -0.0969 -1.6305  0.6907
 8804TIP3   OH250606   1.240   5.099  10.571  0.3926 -0.1981  0.1648
 8804TIP3    H150607   1.232   5.033  10.502 -0.4190 -0.6107  0.6527
 8804TIP3    H250608   1.323   5.143  10.551  1.0902 -1.5344 -0.0110
 8805TIP3   OH250609   3.001   2.852   9.375 -0.2012  0.2415 -0.1974
 8805TIP3    H150610   2.939   2.862   9.447  0.8317 -1.6556  1.0333
 8805TIP3    H250611   3.062   2.925   9.386  0.0559 -0.1366  0.9943
 8806TIP3   OH250612   6.432   3.990   9.560  1.1210  0.6164 -0.4102
 8806TIP3    H150613   6.351   3.968   9.514  0.4046  1.2163  0.5212
 8806TIP3    H250614   6.501   3.977   9.495  0.1313  1.5602 -1.7057
 8807TIP3   OH250615   3.849   2.037   9.384  0.1943  0.5190  0.7101
 8807TIP3    H150616   3.831   2.023   9.291  1.9467 -0.2488  0.4460
 8807TIP3    H250617   3.937   2.075   9.387 -0.5116  2.1878  1.9985
 8808TIP3   OH250618   4.652   5.922  12.002  0.4648  0.1958  0.5514
 8808TIP3    H150619   4.725   5.980  11.981  0.5386  0.4463  1.4975
 8808TIP3    H250620   4.692   5.851  12.052  0.4275 -0.8483 -0.8334
 8809TIP3   OH250621   1.542   2.608  10.797 -0.2980  0.1884  0.6465
 8809TIP3    H150622   1.567   2.537  10.856  1.3535  1.7235  1.8775
 8809TIP3    H250623   1.475   2.657  10.844 -1.8761 -0.8365 -0.4486
 8810TIP3   OH250624   0.789   1.234   8.781  0.4141  0.1026 -0.3517
 8810TIP3    H150625   0.826   1.183   8.852 -0.5779  0.7812  0.6930
 8810TIP3    H250626   0.788   1.324   8.814 -0.5834  0.3414 -0.9939
 8811TIP3   OH250627   4.989   5.498  10.781  0.1738 -0.2149  0.1877
 8811TIP3    H150628   5.006   5.499  10.687  0.7414 -0.3091  0.2812
 8811TIP3    H250629   4.936   5.420  10.795 -1.1706  0.5858 -0.2430
 8812TIP3   OH250630   0.528   4.409  10.692 -0.5000 -0.9986  0.3030
 8812TIP3    H150631   0.516   4.355  10.771 -0.4046 -1.7990 -0.2193
 8812TIP3    H250632   0.445   4.456  10.683 -0.0252  0.1811  1.6587
 8813TIP3   OH250633   3.468   4.311   9.402  0.1089 -0.1561  0.8988
 8813TIP3    H150634   3.475   4.385   9.342 -0.3628 -0.7704  0.0574
 8813TIP3    H250635   3.402   4.253   9.362 -0.5298 -0.3918  2.2256
 8814TIP3   OH250636   0.087   4.244   9.542  0.3224  0.6256 -0.4468
 8814TIP3    H150637   0.015   4.305   9.552  0.9024  1.1998  0.3433
 8814TIP3    H250638   0.121   4.232   9.630 -1.1259 -2.5417 -0.1929
 8815TIP3   OH250639   2.761   0.889  10.701 -0.2307  0.2293 -0.0879
 8815TIP3    H150640   2.804   0.940  10.769 -0.2238  0.6797 -0.4234
 8815TIP3    H250641   2.784   0.798  10.720  0.4623  0.4232  0.0155
 8816TIP3   OH250642   0.022   6.264  10.508 -0.5033 -0.0242 -0.1447
 8816TIP3    H150643  -0.032   6.212  10.567 -0.6259  0.2391 -0.0253
 8816TIP3    H250644  -0.023   6.258  10.423 -0.9652  0.5626  0.0552
 8817TIP3   OH250645   2.401   1.669   8.801 -0.3024  0.1260  0.3010
 8817TIP3    H150646   2.329   1.681   8.739  2.1392  0.4211 -2.6560
 8817TIP3    H250647   2.439   1.756   8.811  0.6476 -0.2982  0.5041
 8818TIP3   OH250648   3.474   5.108   9.903 -0.4537 -0.2403  1.1495
 8818TIP3    H150649   3.489   5.143   9.991  1.3261 -1.4587  1.3787
 8818TIP3    H250650   3.548   5.049   9.887 -1.1270 -0.6265 -0.8796
 8819TIP3   OH250651   5.183   0.750  10.609  0.3707 -0.6051 -0.0260
 8819TIP3    H150652   5.140   0.730  10.692 -0.1104 -0.1350 -0.1568
 8819TIP3    H250653   5.120   0.804  10.561  1.0597  0.0063 -0.2647
 8820TIP3   OH250654   4.641   0.239   9.348  0.1228 -0.6812  0.2011
 8820TIP3    H150655   4.697   0.315   9.334 -0.1077 -0.3263  1.1879
 8820TIP3    H250656   4.693   0.165   9.316 -0.1772  0.0006 -2.0684
 8821TIP3   OH250657   5.396   4.088   8.812  0.7756 -0.2345  0.2147
 8821TIP3    H150658   5.449   4.143   8.869  1.3293 -0.2571 -0.2718
 8821TIP3    H250659   5.307   4.095   8.847  0.8157  1.0490  0.0981
 8822TIP3   OH250660   3.497   3.418  10.258  0.0253  0.4250  0.2361
 8822TIP3    H150661   3.479   3.331  10.295  0.1728  1.1771  2.2280
 8822TIP3    H250662   3.565   3.455  10.315  1.4352  1.1163 -1.7591
 8823TIP3   OH250663   0.748   3.229  10.298  0.5521  0.3929 -0.5474
 8823TIP3    H150664   0.796   3.236  10.216 -0.4745  1.3251 -1.0941
 8823TIP3    H250665   0.701   3.146  10.291  0.6978  0.3281 -0.7654
 8824TIP3   OH250666   0.498   5.731  10.960 -0.2430  0.4117  0.2267
 8824TIP3    H150667   0.463   5.643  10.950 -1.4791  1.0073 -1.0413
 8824TIP3    H250668   0.473   5.756  11.049 -0.1643 -0.3858  0.4793
 8825TIP3   OH250669   0.021   6.135   9.953 -0.8684  0.0645 -0.5998
 8825TIP3    H150670   0.034   6.185   9.873 -1.2228 -0.7168 -1.1538
 8825TIP3    H250671  -0.015   6.051   9.924  1.1043 -1.1125  0.1709
 8826TIP3   OH250672   3.203   6.371  10.915 -0.2535 -0.0615 -0.0691
 8826TIP3    H150673   3.122   6.331  10.884 -1.7076  2.6360 -0.0170
 8826TIP3    H250674   3.257   6.382  10.837 -0.7545 -0.1101 -0.4232
 8827TIP3   OH250675   3.719   5.727  12.004  0.0639 -0.2373  0.0045
 8827TIP3    H150676   3.731   5.777  12.085 -2.6405  0.3187  0.1690
 8827TIP3    H250677   3.706   5.637  12.033  0.5282 -0.2934  0.0513
 8828TIP3   OH250678   3.559   0.319  12.044 -0.7035 -0.4926 -0.1490
 8828TIP3    H150679   3.630   0.316  12.108  0.4563  1.3098 -1.2523
 8828TIP3    H250680   3.503   0.245  12.066  0.5589 -0.9122  1.8756
 8829TIP3   OH250681   1.641   0.539  11.292 -0.2694 -0.3458 -0.0336
 8829TIP3    H150682   1.696   0.500  11.224  0.0660  1.4877 -0.8912
 8829TIP3    H250683   1.698   0.603  11.335 -2.2635  3.6551 -2.7628
 8830TIP3   OH250684   5.791   5.844   9.601  0.2659 -0.3248 -0.0848
 8830TIP3    H150685   5.784   5.806   9.689  1.0937 -0.3411 -0.0144
 8830TIP3    H250686   5.871   5.897   9.604 -0.5057  0.8862 -0.3936
 8831TIP3   OH250687   4.651   2.949  10.030  0.2981 -0.1236  0.2158
 8831TIP3    H150688   4.658   3.043  10.014 -0.6847 -0.0779 -0.0122
 8831TIP3    H250689   4.564   2.938  10.066 -0.1723 -1.1308 -1.1544
 8832TIP3   OH250690   2.683   0.574   9.346 -0.1216  0.4963  0.0450
 8832TIP3    H150691   2.677   0.627   9.266 -2.0117 -2.7539 -2.1878
 8832TIP3    H250692   2.765   0.525   9.336 -0.6912 -0.4062 -0.2709
 8833TIP3   OH250693   4.073   2.936   8.695  0.6641  0.1565  0.2255
 8833TIP3    H150694   4.054   2.861   8.752 -0.6555 -0.0023 -0.3791
 8833TIP3    H250695   4.160   2.918   8.660  0.3577 -1.1204  0.0703
 8834TIP3   OH250696   2.370   4.695   9.793  0.4276  0.3779 -0.4669
 8834TIP3    H150697   2.348   4.748   9.716 -1.7074  2.5493  1.4460
 8834TIP3    H250698   2.333   4.609   9.774  1.2171  0.4172 -2.4080
 8835TIP3   OH250699   1.588   6.733  12.416 -0.0985 -0.2027  0.1415
 8835TIP3    H150700   1.584   6.692  12.503  1.1982 -1.2145 -0.2478
 8835TIP3    H250701   1.681   6.739  12.396 -0.3516  0.8194 -0.8321
 8836TIP3   OH250702   5.984   3.406  10.824 -0.4042  0.6580 -0.4060
 8836TIP3    H150703   5.969   3.476  10.760 -1.7349  0.5254 -0.2766
 8836TIP3    H250704   6.074   3.418  10.852 -0.2954  1.7045 -1.1334
 8837TIP3   OH250705   1.292   0.689  10.796 -0.2465  0.3862  0.1412
 8837TIP3    H150706   1.350   0.663  10.724  0.5428  2.0572  0.1360
 8837TIP3    H250707   1.248   0.608  10.821  0.7304 -0.5694 -1.0840
 8838TIP3   OH250708   5.501   2.481  11.705  0.1155 -0.0199  0.1372
 8838TIP3    H150709   5.590   2.515  11.704  0.4888 -0.8184 -2.7987
 8838TIP3    H250710   5.452   2.543  11.760  1.5753  3.0217 -1.7576
 8839TIP3   OH250711   5.123   2.164  11.624 -0.2976 -0.5309 -0.2326
 8839TIP3    H150712   5.173   2.218  11.562  0.8478  0.3809  1.3856
 8839TIP3    H250713   5.111   2.081  11.580 -1.2157  0.6856 -2.4231
 8840TIP3   OH250714   3.904   0.452  10.746  0.5607  0.3618  0.7970
 8840TIP3    H150715   3.875   0.361  10.750  1.8201 -0.0982  0.1152
 8840TIP3    H250716   3.936   0.471  10.834 -2.3781  1.1403  1.8105
 8841TIP3   OH250717   5.755   1.288  10.405 -0.1342  0.1713 -0.4510
 8841TIP3    H150718   5.715   1.338  10.476 -0.8265 -1.6603  0.5349
 8841TIP3    H250719   5.681   1.241  10.365  0.5323 -0.3636 -1.0727
 8842TIP3   OH250720   0.198   5.352  10.817 -0.5641 -0.3209 -0.5919
 8842TIP3    H150721   0.174   5.445  10.814  0.6487  0.0132 -0.5532
 8842TIP3    H250722   0.128   5.307  10.769 -1.8535  0.4487  0.5147
 8843TIP3   OH250723   0.736   4.656  10.112  0.5627  0.1171  0.6406
 8843TIP3    H150724   0.784   4.632  10.191  0.8274  0.2646  0.5251
 8843TIP3    H250725   0.650   4.616  10.123  1.6078 -2.6767 -0.4944
 8844TIP3   OH250726   0.918   0.096   9.585  0.2065 -0.2190 -0.2051
 8844TIP3    H150727   1.008   0.074   9.610  0.6931  0.7284 -1.0602
 8844TIP3    H250728   0.871   0.103   9.668  0.8424 -1.0371  0.2337
 8845TIP3   OH250729   3.894   4.453  12.250 -0.0891  0.0137 -0.2864
 8845TIP3    H150730   3.823   4.505  12.287 -0.6409 -1.8755  1.5121
 8845TIP3    H250731   3.902   4.484  12.160 -1.7749  1.7113  0.0846
 8846TIP3   OH250732   0.763   0.322  11.581  0.4935  0.1231  0.4470
 8846TIP3    H150733   0.837   0.276  11.622  1.7969  0.5031 -1.3783
 8846TIP3    H250734   0.804   0.388  11.525 -1.1357 -0.8732 -2.0854
 8847TIP3   OH250735   1.706   2.945   9.692 -0.3104  0.2226 -0.1410
 8847TIP3    H150736   1.709   2.871   9.632 -0.6059  0.5054 -0.5075
 8847TIP3    H250737   1.734   3.020   9.640  0.6130  0.2745  0.3949
 8848TIP3   OH250738   4.384   4.753  10.717  0.3812  0.4653 -0.1843
 8848TIP3    H150739   4.392   4.818  10.647 -0.0984  0.6651 -0.0580
 8848TIP3    H250740   4.447   4.685  10.693 -0.5160  0.0121 -1.3795
 8849TIP3   OH250741   3.164   6.563   9.996 -0.2091  0.0708  0.4263
 8849TIP3    H150742   3.255   6.544   9.972 -0.1287 -0.1798  0.9279
 8849TIP3    H250743   3.151   6.519  10.080 -1.2237 -1.1192 -0.3025
 8850TIP3   OH250744   3.924   5.218  11.434 -0.2917  0.2946 -0.8044
 8850TIP3    H150745   4.015   5.197  11.453 -0.8192 -0.7558  0.8144
 8850TIP3    H250746   3.905   5.173  11.352  0.1593 -1.0250 -0.2108
 8851TIP3   OH250747   0.722   1.292  10.084 -0.6061  0.9233 -0.0721
 8851TIP3    H150748   0.773   1.225  10.038 -2.9979 -0.9190 -0.1928
 8851TIP3    H250749   0.751   1.285  10.175  0.2284  0.8146 -0.3300
 8852TIP3   OH250750   4.099   1.738   9.224 -1.0879  0.0711  0.2208
 8852TIP3    H150751   4.138   1.744   9.311 -0.3958  0.1709 -0.0896
 8852TIP3    H250752   4.106   1.826   9.188 -2.7791  0.4176  0.6357
 8853TIP3   OH250753   1.001   2.052  11.028  0.4409 -0.0179 -0.3696
 8853TIP3    H150754   1.046   2.003  10.958  0.5621 -0.1755 -0.1821
 8853TIP3    H250755   0.909   2.053  11.001  0.7257  1.4477 -1.4429
 8854TIP3   OH250756   1.308   6.032   9.788 -0.2976  0.3106  0.0212
 8854TIP3    H150757   1.380   5.986   9.744 -1.0589 -1.5353  0.5865
 8854TIP3    H250758   1.351   6.087   9.854  0.7405  1.6471 -1.6795
 8855TIP3   OH250759   3.603   4.572  11.908 -0.7375 -0.0074  0.1414
 8855TIP3    H150760   3.613   4.581  11.813 -2.5246 -0.2080 -0.1021
 8855TIP3    H250761   3.691   4.589  11.943 -0.4112  1.9183 -1.4146
 8856TIP3   OH250762   1.626   6.329  12.461  0.2944  0.1847 -0.2784
 8856TIP3    H150763   1.654   6.367  12.544  1.0419  1.6714 -1.1810
 8856TIP3    H250764   1.683   6.253  12.449 -0.4891 -0.6649  1.0059
 8857TIP3   OH250765   1.250   0.302  11.830 -0.4981  0.3388 -0.1672
 8857TIP3    H150766   1.298   0.222  11.810 -0.0072  1.1358 -2.4052
 8857TIP3    H250767   1.165   0.271  11.862  0.3256 -1.0481  0.8354
 8858TIP3   OH250768   6.606   5.617  10.980 -0.0573 -0.0078 -0.6553
 8858TIP3    H150769   6.522   5.652  11.010 -0.7295 -3.3917  2.0572
 8858TIP3    H250770   6.582   5.554  10.912  0.3326 -0.5246 -0.3194
 8859TIP3   OH250771   5.372   3.026  10.422  0.2539  0.3780 -0.0204
 8859TIP3    H150772   5.428   2.972  10.478 -0.5399 -0.2044  0.2321
 8859TIP3    H250773   5.309   2.964  10.385  1.5701  0.4848 -2.6771
 8860TIP3   OH250774   2.767   4.324   9.855 -0.5086  0.3551 -0.1386
 8860TIP3    H150775   2.782   4.414   9.826  0.2319  0.5805  0.8802
 8860TIP3    H250776   2.812   4.270   9.790 -0.9981  0.7100 -0.7816
 8861TIP3   OH250777   0.928   5.014   9.944 -0.7850 -0.1119 -0.2604
 8861TIP3    H150778   0.944   4.959  10.021  1.3462  1.8674  0.8343
 8861TIP3    H250779   0.845   5.058   9.961 -1.0405 -0.7671  0.2065
 8862TIP3   OH250780   0.821   6.385  11.620  0.3208  0.2351 -0.0472
 8862TIP3    H150781   0.915   6.368  11.624  0.6089  1.8617  0.6790
 8862TIP3    H250782   0.787   6.314  11.565  1.8651 -0.7414  0.1744
 8863TIP3   OH250783   4.143   5.206   9.879 -0.1265 -0.7000 -0.0616
 8863TIP3    H150784   4.234   5.188   9.901 -0.0288  0.9391  1.0753
 8863TIP3    H250785   4.147   5.280   9.819 -0.6851 -1.2348 -0.7783
 8864TIP3   OH250786   2.136   0.156   9.102 -0.2950 -0.0850  0.3038
 8864TIP3    H150787   2.141   0.137   9.008 -1.0491  1.2222 -0.0288
 8864TIP3    H250788   2.190   0.234   9.114 -1.0966  0.4091  0.7602
 8865TIP3   OH250789   0.282   6.485   9.900  0.2110  0.2911  0.2033
 8865TIP3    H150790   0.230   6.565   9.889 -1.4173 -0.8030 -0.5770
 8865TIP3    H250791   0.310   6.487   9.992 -0.4907  1.3431  0.4194
 8866TIP3   OH250792   2.937   3.891  11.535 -0.0250  0.1809 -0.3553
 8866TIP3    H150793   2.930   3.916  11.627 -0.0614 -1.4939  0.1370
 8866TIP3    H250794   3.031   3.892  11.517  0.0397 -0.1842 -0.0674
 8867TIP3   OH250795   5.507   5.070  10.103 -0.2084  0.2184 -0.0423
 8867TIP3    H150796   5.518   5.017  10.182 -0.0893  2.6754  1.6909
 8867TIP3    H250797   5.596   5.094  10.077 -0.3222  0.9738  0.2348
 8868TIP3   OH250798   5.116   5.102   9.525 -0.1317 -0.1132  0.5168
 8868TIP3    H150799   5.125   5.063   9.438  1.3923  1.1658  0.0623
 8868TIP3    H250800   5.022   5.098   9.543 -0.6134  0.4226 -1.5925
 8869TIP3   OH250801   6.649   1.467  10.592  0.2758 -0.0444 -0.3000
 8869TIP3    H150802   6.595   1.396  10.626 -0.3417  1.3280  1.8031
 8869TIP3    H250803   6.649   1.532  10.662  2.4712  1.1740 -1.3370
 8870TIP3   OH250804   4.928   1.052   9.640 -0.4472 -0.7848  0.4577
 8870TIP3    H150805   4.916   0.979   9.579 -2.0754  0.6835 -1.1192
 8870TIP3    H250806   4.990   1.110   9.596  1.3119 -1.4308  1.9753
 8871TIP3   OH250807   1.857   5.838  12.132  0.4559  0.0477 -0.4397
 8871TIP3    H150808   1.834   5.803  12.218  1.1191 -0.5805 -0.5080
 8871TIP3    H250809   1.816   5.925  12.129  2.1677  1.0118  1.3602
 8872TIP3   OH250810   2.154   5.741  10.730  0.3282  0.2447  0.2505
 8872TIP3    H150811   2.120   5.652  10.736 -0.3573  0.4718 -0.1830
 8872TIP3    H250812   2.208   5.741  10.650 -2.7016  1.1662 -1.9740
 8873TIP3   OH250813   4.725   3.691  10.761  0.4194  0.5870  0.0427
 8873TIP3    H150814   4.730   3.786  10.750  0.8780  0.3827 -2.0331
 8873TIP3    H250815   4.635   3.675  10.789  0.2408  1.6159  0.0992
 8874TIP3   OH250816   1.782   4.259   8.281  0.0121 -0.2561 -0.5256
 8874TIP3    H150817   1.856   4.240   8.223  1.5396 -0.2856  1.3282
 8874TIP3    H250818   1.738   4.175   8.293  0.2409 -0.4304 -0.9096
 8875TIP3   OH250819   1.393   6.344  10.803 -0.0810  0.2806  0.1551
 8875TIP3    H150820   1.431   6.278  10.746  1.3811  0.6664  0.6551
 8875TIP3    H250821   1.375   6.298  10.885 -1.6940 -0.1455 -0.4007
 8876TIP3   OH250822   1.206   3.136  10.004 -1.0010  0.1274 -0.0303
 8876TIP3    H150823   1.205   3.213   9.947 -1.3751  0.4930  0.4589
 8876TIP3    H250824   1.137   3.079   9.969  0.8600 -1.1230 -1.8821
 8877TIP3   OH250825   3.229   1.851   9.693 -0.2923  0.5199 -0.1104
 8877TIP3    H150826   3.167   1.779   9.702  1.2285 -1.3067 -2.8035
 8877TIP3    H250827   3.315   1.811   9.709  0.4669  2.3253  0.6575
 8878TIP3   OH250828   6.660   6.749  10.038 -0.5755  0.7511 -0.4232
 8878TIP3    H150829   6.692   6.811  10.104  0.0825  0.0359 -0.0597
 8878TIP3    H250830   6.739   6.713   9.998 -0.9290 -0.2667 -0.2413
 8879TIP3   OH250831   1.956   0.272   9.465  0.2065 -0.0104 -0.6275
 8879TIP3    H150832   1.915   0.289   9.550  0.1204 -0.1450 -0.6422
 8879TIP3    H250833   1.884   0.281   9.402  0.0149 -1.0922 -0.5753
 8880TIP3   OH250834   5.956   5.420  11.422  0.5446  0.2554 -0.2472
 8880TIP3    H150835   6.031   5.424  11.481  0.0228 -2.2346  0.7263
 8880TIP3    H250836   5.978   5.352  11.359 -0.4910  0.1712 -0.5433
 8881TIP3   OH250837   1.180   3.427  11.779 -0.0066 -0.1183 -0.1854
 8881TIP3    H150838   1.191   3.460  11.868  0.1809 -0.2504 -0.1584
 8881TIP3    H250839   1.217   3.495  11.724 -0.2357  0.0209 -0.1724
 8882TIP3   OH250840   3.828   3.892   8.708  0.2061  0.0858 -0.1543
 8882TIP3    H150841   3.812   3.897   8.803  0.9194 -1.5374  0.0789
 8882TIP3    H250842   3.741   3.881   8.670 -0.3290  2.7030  0.0916
 8883TIP3   OH250843   0.311   5.009  11.491  0.3257 -0.2438  0.2647
 8883TIP3    H150844   0.216   5.018  11.505  0.5292  2.4335  0.4023
 8883TIP3    H250845   0.318   4.941  11.425 -1.5121 -2.3150  2.0122
 8884TIP3   OH250846   0.967   4.213   8.750  0.7805 -0.0190  0.8989
 8884TIP3    H150847   0.930   4.150   8.688  1.7233 -0.0389  0.3361
 8884TIP3    H250848   0.898   4.227   8.814 -0.1527 -0.1420 -0.0592
 8885TIP3   OH250849   3.522   6.399  11.195 -0.1626  0.4639 -0.2723
 8885TIP3    H150850   3.478   6.470  11.149 -2.0497 -0.0810  0.6336
 8885TIP3    H250851   3.490   6.403  11.285  2.9890  1.1137  0.9757
 8886TIP3   OH250852   2.808   2.665  11.387 -0.4040  0.3922  0.0561
 8886TIP3    H150853   2.730   2.715  11.362 -0.9680 -0.7093 -0.5055
 8886TIP3    H250854   2.836   2.703  11.470 -0.8967  1.5147 -0.2714
 8887TIP3   OH250855   0.609   1.096   9.038 -0.4826  0.2887 -0.2047
 8887TIP3    H150856   0.683   1.108   8.977 -0.9894  2.8019 -0.4087
 8887TIP3    H250857   0.646   1.044   9.110  0.7566 -0.7330 -1.5016
 8888TIP3   OH250858   6.747   4.483  11.389  0.1917  0.4212  0.2869
 8888TIP3    H150859   6.681   4.439  11.336  0.1507  1.9714 -1.0479
 8888TIP3    H250860   6.830   4.447  11.359  0.0308 -0.7525  1.2052
 8889TIP3   OH250861   2.238   3.715  10.752 -0.1856  0.2544 -0.1001
 8889TIP3    H150862   2.287   3.669  10.684 -0.3220  0.7950 -0.5746
 8889TIP3    H250863   2.306   3.752  10.809 -0.0803 -0.8531  0.5190
 8890TIP3   OH250864   2.513   0.986   9.692 -0.3826 -0.2140  0.4063
 8890TIP3    H150865   2.443   0.939   9.647 -1.3177  1.1458  0.3891
 8890TIP3    H250866   2.593   0.938   9.668 -1.1133 -0.8378 -0.8892
 8891TIP3   OH250867   0.398   3.944  10.883 -0.4354 -0.2116 -0.4640
 8891TIP3    H150868   0.313   3.972  10.917  0.1726 -0.8999  1.7882
 8891TIP3    H250869   0.459   3.960  10.955  0.6958 -3.1683 -0.6296
 8892TIP3   OH250870   0.795   5.367  11.351  0.8183  0.1683 -0.0625
 8892TIP3    H150871   0.757   5.327  11.272  3.2994 -0.6002 -0.9729
 8892TIP3    H250872   0.766   5.310  11.423 -0.9127  0.4782 -0.4801
 8893TIP3   OH250873   0.343   5.826  10.641  0.1631 -0.1285 -0.1433
 8893TIP3    H150874   0.428   5.812  10.600 -0.8136 -0.5103 -2.1311
 8893TIP3    H250875   0.352   5.911  10.685  1.5936 -0.2330 -0.1629
 8894TIP3   OH250876   4.412   0.869   8.968 -0.3598  0.5109  0.3882
 8894TIP3    H150877   4.372   0.784   8.986  0.4983 -0.0765 -0.3872
 8894TIP3    H250878   4.482   0.877   9.033  0.2800  0.1057 -0.2359
 8895TIP3   OH250879   4.010   5.453   9.018  0.4867 -0.0189 -0.4788
 8895TIP3    H150880   3.937   5.500   8.977 -0.9659  0.4109  2.3672
 8895TIP3    H250881   3.969   5.396   9.082  2.6340  0.1111  1.1203
 8896TIP3   OH250882   1.754   5.610  10.358  0.6832  0.0049  0.5446
 8896TIP3    H150883   1.688   5.671  10.393  1.3600  1.0462  0.0510
 8896TIP3    H250884   1.706   5.557  10.294  0.0530 -0.0961  1.0833
 8897TIP3   OH250885   3.960   3.643   8.659 -0.3668 -0.3830 -0.3292
 8897TIP3    H150886   3.919   3.728   8.645  1.2149  0.5580  0.4390
 8897TIP3    H250887   4.051   3.664   8.684  0.6920 -2.3576 -2.1995
 8898TIP3   OH250888   2.867   1.035   8.935  0.4682  0.0091  0.0472
 8898TIP3    H150889   2.776   1.033   8.903 -0.5163  0.7508  2.5428
 8898TIP3    H250890   2.866   1.101   9.004  2.4059 -1.4176  1.5419
 8899TIP3   OH250891   0.985   6.014   9.605  0.1157 -0.3883 -0.6797
 8899TIP3    H150892   0.909   6.061   9.570  0.5988  0.1783 -0.9775
 8899TIP3    H250893   0.952   5.973   9.685  0.2459  2.5068  1.0212
 8900TIP3   OH250894   0.705   4.779   8.759  0.4472 -0.5852  0.3069
 8900TIP3    H150895   0.631   4.726   8.730  0.5034 -0.3115 -0.3431
 8900TIP3    H250896   0.781   4.721   8.749  0.5779 -0.2179 -0.8958
 8901TIP3   OH250897   1.317   6.402   8.909  0.2048  0.0402  0.7445
 8901TIP3    H150898   1.242   6.368   8.958  0.3183  0.7416  1.4233
 8901TIP3    H250899   1.286   6.409   8.819 -0.4018 -0.0941  0.9425
 8902TIP3   OH250900   3.657   2.086   8.938  0.4404 -0.2132 -0.0642
 8902TIP3    H150901   3.679   2.065   8.847  0.5096  1.6636 -0.5212
 8902TIP3    H250902   3.610   2.169   8.932  1.2195  0.3842  1.7048
 8903TIP3   OH250903   0.171   6.287   9.721 -0.2545  0.0775 -0.1894
 8903TIP3    H150904   0.185   6.358   9.784  0.3094  1.1002 -1.4176
 8903TIP3    H250905   0.247   6.292   9.663 -1.2167 -0.2276 -1.5085
 8904TIP3   OH250906   2.019   6.182   9.906  0.4380 -0.4789  0.5201
 8904TIP3    H150907   2.047   6.244   9.973  0.6528 -0.6402  0.5784
 8904TIP3    H250908   1.928   6.161   9.929  0.4771 -0.4525  0.6999
 8905TIP3   OH250909   3.595   5.699   9.018 -0.2742 -0.0676  0.2021
 8905TIP3    H150910   3.541   5.703   9.096 -0.5173 -0.7518  0.0777
 8905TIP3    H250911   3.538   5.729   8.947 -0.3804 -0.4365  0.1284
 8906TIP3   OH250912   1.716   3.329  10.567 -0.2207 -0.6344 -0.0207
 8906TIP3    H150913   1.747   3.318  10.477 -0.2579  0.1614 -0.1330
 8906TIP3    H250914   1.621   3.325  10.560 -0.2041 -2.6419  0.2691
 8907TIP3   OH250915   1.029   6.541  11.499  0.6469 -0.4885  0.3819
 8907TIP3    H150916   1.068   6.628  11.508  1.1673 -0.3503 -2.2574
 8907TIP3    H250917   0.944   6.548  11.541  0.9730  1.0905  0.8278
 8908TIP3   OH250918   3.286   3.004   9.955 -0.3595  0.1774 -0.0264
 8908TIP3    H150919   3.280   3.076  10.017 -0.3861  0.2039 -0.0595
 8908TIP3    H250920   3.245   2.930  10.000 -2.3530  0.7250 -0.8237
 8909TIP3   OH250921   2.840   5.315   9.445 -0.2743 -0.1622  0.0730
 8909TIP3    H150922   2.759   5.308   9.495 -0.4919 -0.3123 -0.2968
 8909TIP3    H250923   2.902   5.357   9.505 -0.7621  0.3951  0.1883
 8910TIP3   OH250924   3.595   3.898   8.579 -0.2327  0.0699  0.3923
 8910TIP3    H150925   3.526   3.965   8.577 -2.4337 -2.0374  0.0766
 8910TIP3    H250926   3.564   3.831   8.519  2.2470 -0.9263  0.1196
 8911TIP3   OH250927   2.721   4.949  11.775 -0.5258 -0.2735  0.5355
 8911TIP3    H150928   2.784   4.932  11.845  2.8696 -0.2664 -2.2600
 8911TIP3    H250929   2.708   4.864  11.733 -0.4987  0.1507 -0.3558
 8912TIP3   OH250930   0.534   4.099  10.012 -0.0055 -0.1245  0.1273
 8912TIP3    H150931   0.507   4.015   9.975 -1.3347 -0.3004  1.4090
 8912TIP3    H250932   0.589   4.075  10.087  1.1782  0.2037 -0.6062
 8913TIP3   OH250933   6.015   1.772   9.736  0.3202  0.8763 -0.1629
 8913TIP3    H150934   5.949   1.705   9.752  0.0634  1.2136  0.2347
 8913TIP3    H250935   5.989   1.845   9.793  1.6125  0.6277  0.7922
 8914TIP3   OH250936   6.278   3.673  11.736 -0.2658  0.6721  0.2359
 8914TIP3    H150937   6.356   3.706  11.691  0.7296 -1.3246  0.3883
 8914TIP3    H250938   6.240   3.610  11.676 -0.1725 -0.3990  1.2559
 8915TIP3   OH250939   4.254   4.420  11.015 -0.2222  0.2460  0.4617
 8915TIP3    H150940   4.279   4.375  11.096 -1.5409 -0.0586  0.7292
 8915TIP3    H250941   4.260   4.352  10.948 -1.8833 -0.2888  0.8092
 8916TIP3   OH250942   0.921   4.615   8.798  0.6811 -0.3071  0.3925
 8916TIP3    H150943   0.988   4.604   8.866  1.2655 -1.4438 -0.3297
 8916TIP3    H250944   0.951   4.559   8.726  0.3170  1.2168 -0.9833
 8917TIP3   OH250945   1.135   5.439   8.764 -0.1330  0.3131 -0.5772
 8917TIP3    H150946   1.174   5.484   8.689  1.9443 -0.1171  0.1871
 8917TIP3    H250947   1.106   5.355   8.729  3.6849 -1.2819 -0.4478
 8918TIP3   OH250948   3.082   0.926   9.264 -0.4450  0.0663  0.6082
 8918TIP3    H150949   2.994   0.945   9.232  0.4587  1.3017 -1.2689
 8918TIP3    H250950   3.091   0.831   9.255 -0.7086  0.2164 -1.6251
 8919TIP3   OH250951   3.022   1.320  10.880  0.0234 -0.7550  0.1031
 8919TIP3    H150952   2.978   1.342  10.962 -0.1823 -0.4581 -0.0860
 8919TIP3    H250953   2.952   1.294  10.821 -0.0170  0.6693 -0.5128
 8920TIP3   OH250954   6.580   0.354  12.665 -0.7443  0.4185  0.2923
 8920TIP3    H150955   6.648   0.371  12.730 -1.6798  1.0340  1.1401
 8920TIP3    H250956   6.529   0.435  12.661 -0.9756  0.2294 -0.8863
 8921TIP3   OH250957   0.920   0.971  10.878 -0.1580 -0.1042  0.1124
 8921TIP3    H150958   1.011   0.985  10.852  0.8635 -2.1675  2.2152
 8921TIP3    H250959   0.906   1.033  10.949 -0.2975  0.0194 -0.0238
 8922TIP3   OH250960   4.365   0.022  10.430  0.1924  1.0629  0.0494
 8922TIP3    H150961   4.427   0.094  10.444  2.2344 -0.6247  0.1295
 8922TIP3    H250962   4.338  -0.004  10.519 -0.8881  1.9567  0.0072
 8923TIP3   OH250963   2.316   1.144  10.180 -0.0211  0.1448  0.2411
 8923TIP3    H150964   2.361   1.094  10.248 -0.0035 -0.3460 -0.1270
 8923TIP3    H250965   2.264   1.208  10.229  0.9865  0.6528  0.6770
 8924TIP3   OH250966   0.806   5.534   9.676 -0.3204 -0.5899  0.1324
 8924TIP3    H150967   0.896   5.550   9.703 -0.0171 -1.1223 -0.5254
 8924TIP3    H250968   0.778   5.617   9.637  0.2767 -0.7451 -0.6695
 8925TIP3   OH250969   0.395   6.135   8.817  0.1003  0.3336  0.2730
 8925TIP3    H150970   0.356   6.052   8.845 -1.2409  1.2140  1.0969
 8925TIP3    H250971   0.488   6.125   8.839  0.2001 -1.3717 -0.6989
 8926TIP3   OH250972   1.311   2.999  11.004 -0.2217 -0.6303 -0.0832
 8926TIP3    H150973   1.377   2.953  11.055  0.0846  1.4068  1.5212
 8926TIP3    H250974   1.357   3.072  10.964 -1.1523 -0.2310 -0.4734
 8927TIP3   OH250975   3.612   1.280  10.680 -0.4384  1.1121  0.7710
 8927TIP3    H150976   3.634   1.231  10.759  0.3049  0.2629  0.0583
 8927TIP3    H250977   3.597   1.369  10.711 -2.0433  0.4143  2.1264
 8928TIP3   OH250978   3.197   5.115   9.268 -0.2473 -0.0114  0.1256
 8928TIP3    H150979   3.198   5.114   9.363 -2.0173 -0.9528  0.1821
 8928TIP3    H250980   3.236   5.032   9.242 -1.2363 -0.4835  0.1009
 8929TIP3   OH250981   0.943   1.737   9.570  0.3554 -0.0616  0.6427
 8929TIP3    H150982   1.028   1.736   9.613  0.2176 -2.2586  0.9497
 8929TIP3    H250983   0.880   1.744   9.642  0.2186  2.7787  0.3630
 8930TIP3   OH250984   4.747   4.301  10.102 -0.0484 -0.3346  0.0506
 8930TIP3    H150985   4.805   4.267  10.169 -0.9934 -1.0966  0.5104
 8930TIP3    H250986   4.730   4.227  10.044  0.6476  0.2787 -0.9743
 8931TIP3   OH250987   6.300   5.198  10.809  0.3140 -0.0658  0.2509
 8931TIP3    H150988   6.263   5.115  10.840  1.0206 -0.9824 -1.2967
 8931TIP3    H250989   6.351   5.230  10.884 -0.1289 -0.9022  0.9343
 8932TIP3   OH250990   3.463   3.067  10.764  0.5413  0.2195  0.1354
 8932TIP3    H150991   3.453   2.979  10.801 -1.4279  1.4054  2.6841
 8932TIP3    H250992   3.552   3.093  10.787  0.7821 -0.7002  0.2769
 8933TIP3   OH250993   1.073   0.825  10.011  0.0709  0.2670  0.6101
 8933TIP3    H150994   1.143   0.859  10.067 -0.0818 -1.3157  1.8621
 8933TIP3    H250995   1.087   0.868   9.927  0.8272  2.1172  1.6068
 8934TIP3   OH250996   1.190   5.969  10.131 -0.1532  0.1931  0.7176
 8934TIP3    H150997   1.210   5.906  10.200  0.1985  0.3636  0.7731
 8934TIP3    H250998   1.175   6.051  10.177 -0.8430  0.1021  0.6642
 8935TIP3   OH250999   3.443   4.926   8.913 -0.0624  0.4395  0.0193
 8935TIP3    H151000   3.514   4.972   8.867 -0.9608  2.6496  0.7249
 8935TIP3    H251001   3.441   4.839   8.872  3.1073  0.2161  0.0666
 8936TIP3   OH251002   3.980   5.745   9.986  0.2332 -0.3617  0.1530
 8936TIP3    H151003   3.910   5.709  10.040 -0.7740 -1.5955 -1.8549
 8936TIP3    H251004   3.937   5.810   9.931  0.9758 -0.0302 -0.0505
 8937TIP3   OH251005   1.380   2.421  11.621  0.2256  0.2091  0.1437
 8937TIP3    H151006   1.317   2.369  11.571  0.4609  0.2260 -0.1657
 8937TIP3    H251007   1.412   2.487  11.560 -0.7328  1.3044  0.7703
 8938TIP3   OH251008   0.644   1.981  10.276 -0.2303  0.4828 -0.1784
 8938TIP3    H151009   0.613   2.045  10.339  1.0943 -0.6500  1.7172
 8938TIP3    H251010   0.569   1.966  10.218 -1.7145  1.1337  1.4785
 8939TIP3   OH251011   2.712   3.762  11.364 -0.1652  0.3475  0.0397
 8939TIP3    H151012   2.771   3.800  11.428 -0.8120 -1.4713  1.8141
 8939TIP3    H251013   2.751   3.678  11.341 -1.1309 -0.0728 -0.1394
 8940TIP3   OH251014   4.310   2.390  10.583 -0.1484 -0.6021  0.4156
 8940TIP3    H151015   4.355   2.419  10.662  0.4499 -1.3046  0.3496
 8940TIP3    H251016   4.274   2.304  10.607  0.1771 -0.8907 -0.1205
 8941TIP3   OH251017   6.120   4.614  11.021 -0.1327 -0.0942 -0.2128
 8941TIP3    H151018   6.157   4.644  10.938 -1.0287  0.1379 -0.5357
 8941TIP3    H251019   6.060   4.683  11.048  1.6076  0.7803  1.6699
 8942TIP3   OH251020   3.736   4.976   9.120  0.0110 -0.3819 -0.5540
 8942TIP3    H151021   3.690   5.007   9.198  1.2902 -0.1996  0.1537
 8942TIP3    H251022   3.756   5.056   9.071  0.2090 -0.3955 -0.4954
 8943TIP3   OH251023   6.120   2.701  10.353  0.1252 -0.1740  0.1840
 8943TIP3    H151024   6.049   2.649  10.315 -1.0347  0.8572  0.8937
 8943TIP3    H251025   6.158   2.644  10.420 -1.4657  0.0405  1.3122
 8944TIP3   OH251026   3.616   4.593   9.355 -0.7664  0.3458  0.0707
 8944TIP3    H151027   3.700   4.574   9.314 -0.3617 -1.5768  1.6084
 8944TIP3    H251028   3.554   4.536   9.308 -0.9192  0.6317 -0.0729
 8945TIP3   OH251029   5.156   5.678  10.431 -0.1733  0.0693  0.7273
 8945TIP3    H151030   5.125   5.648  10.345 -2.1425  0.6392  1.1847
 8945TIP3    H251031   5.181   5.769  10.416 -2.3466  0.8013  1.0711
 8946TIP3   OH251032   1.088   3.158   9.083 -0.0340 -0.1755  0.6930
 8946TIP3    H151033   1.069   3.130   9.172 -2.1616 -2.2549 -0.3187
 8946TIP3    H251034   1.125   3.081   9.040 -1.3355  0.0115 -0.8533
 8947TIP3   OH251035   1.752   5.972  10.411  0.3631  0.3025  0.3168
 8947TIP3    H151036   1.678   5.930  10.455  1.9436 -1.2839  1.6347
 8947TIP3    H251037   1.758   6.059  10.450 -0.2802  0.1187  0.8251
 8948TIP3   OH251038   4.156   4.117   9.494 -0.0904  0.1860 -0.3929
 8948TIP3    H151039   4.212   4.131   9.418 -0.8081  0.6964 -0.8500
 8948TIP3    H251040   4.179   4.187   9.555  1.7090 -1.2288  0.6444
 8949TIP3   OH251041   3.663   5.577  12.330  0.0139  0.6445 -0.0307
 8949TIP3    H151042   3.585   5.607  12.282 -0.5353 -2.1966 -1.1320
 8949TIP3    H251043   3.723   5.548  12.261  0.5944 -0.4398  0.9096
 8950TIP3   OH251044   4.821   2.848  10.237  0.1256  0.0677 -0.4488
 8950TIP3    H151045   4.783   2.885  10.157 -1.7274  1.2302  0.8627
 8950TIP3    H251046   4.777   2.896  10.308  1.9910 -0.6243  1.2687
 8951TIP3   OH251047   4.875   0.730   9.221  0.5042  0.2175  0.0518
 8951TIP3    H151048   4.811   0.748   9.153  1.1879 -0.9899 -0.9589
 8951TIP3    H251049   4.867   0.636   9.238  2.5860 -0.1799 -0.7833
 8952TIP3   OH251050   4.484   5.705  11.887 -0.1376 -0.5799  0.4984
 8952TIP3    H151051   4.551   5.764  11.923  2.1847 -1.7355 -1.5758
 8952TIP3    H251052   4.447   5.660  11.963  0.5638  0.9664  1.8180
 8953TIP3   OH251053   0.033   3.561  11.533 -0.5364  0.7167 -0.6072
 8953TIP3    H151054   0.041   3.488  11.471 -0.3091 -0.0618  0.3098
 8953TIP3    H251055   0.062   3.524  11.617 -2.3607  1.2828  0.3136
 8954TIP3   OH251056   5.115   0.086  11.752  0.4222  0.1597  0.3626
 8954TIP3    H151057   5.082   0.126  11.671  1.7868  1.1948  0.2760
 8954TIP3    H251058   5.099  -0.008  11.740 -0.4186  0.4072 -0.6203
 8955TIP3   OH251059   6.074   1.457   9.988 -0.6775  0.1611 -0.1073
 8955TIP3    H151060   6.148   1.417  10.034  0.2888  0.1801 -1.5680
 8955TIP3    H251061   6.052   1.534  10.040  0.0707 -0.0696  0.5755
 8956TIP3   OH251062   1.992   5.060   9.523 -0.0634 -0.0704 -0.1552
 8956TIP3    H151063   2.029   4.997   9.585 -0.5367  0.0848  0.2977
 8956TIP3    H251064   1.903   5.029   9.507 -0.3487  0.5422  0.1769
 8957TIP3   OH251065   4.845   4.045  11.699  0.8131 -0.0346 -0.0277
 8957TIP3    H151066   4.779   4.016  11.762  0.3799 -0.7491 -0.7978
 8957TIP3    H251067   4.861   4.136  11.723 -1.3518  0.5438 -0.5729
 8958TIP3   OH251068   2.937   6.137   8.460 -0.3773  0.7340 -0.3842
 8958TIP3    H151069   2.843   6.142   8.443 -0.6113 -0.1554  0.4910
 8958TIP3    H251070   2.954   6.043   8.475  0.8123  0.7603 -1.3762
 8959TIP3   OH251071   3.134   5.254  11.748 -0.1612  0.1054 -0.0807
 8959TIP3    H151072   3.193   5.313  11.701 -1.1913  2.2117  1.1405
 8959TIP3    H251073   3.075   5.312  11.796 -2.4468 -1.9132 -0.2565
 8960TIP3   OH251074   2.318   6.202  12.194  0.0196 -0.1784 -0.7027
 8960TIP3    H151075   2.223   6.208  12.200  0.1178  0.5757  0.3306
 8960TIP3    H251076   2.340   6.245  12.112 -0.4507  0.6149 -0.4159
 8961TIP3   OH251077   3.204   6.175  12.528  0.3048  0.0197  0.2335
 8961TIP3    H151078   3.259   6.253  12.524 -0.4985  0.6333  0.9128
 8961TIP3    H251079   3.266   6.102  12.531  1.0893  0.7098  1.4440
 8962TIP3   OH251080   6.323   1.066   8.789  0.3175 -0.3392  0.1444
 8962TIP3    H151081   6.304   1.027   8.704  0.4340  0.5291 -0.2904
 8962TIP3    H251082   6.244   1.053   8.840 -0.0423 -0.1733 -0.3635
 8963TIP3   OH251083   1.482   0.853  12.434 -0.1761 -0.3501 -0.9868
 8963TIP3    H151084   1.493   0.772  12.385  1.5686 -0.5348 -0.3435
 8963TIP3    H251085   1.389   0.854  12.458 -0.4148 -1.7023 -1.7484
 8964TIP3   OH251086   0.675   5.214  11.568  0.1490  0.2591  0.0026
 8964TIP3    H151087   0.617   5.290  11.578  0.3585  0.5945 -1.1188
 8964TIP3    H251088   0.670   5.168  11.651  0.7295  2.0019  1.0538
 8965TIP3   OH251089   4.417   4.998  10.904  0.0220  0.0978 -0.3805
 8965TIP3    H151090   4.455   4.928  10.852  0.8621 -0.0026  0.3435
 8965TIP3    H251091   4.336   5.020  10.859 -0.0058 -0.9923 -0.8933
 8966TIP3   OH251092   1.589   5.890  10.166 -0.1367  0.5785  0.1433
 8966TIP3    H151093   1.684   5.896  10.155  0.1450 -2.4026 -0.0873
 8966TIP3    H251094   1.576   5.880  10.260 -0.0876 -0.1395  0.0811
 8967TIP3   OH251095   0.705   6.525   9.190 -0.3037 -0.0796 -0.1878
 8967TIP3    H151096   0.664   6.611   9.205 -0.4875 -0.1562 -0.2471
 8967TIP3    H251097   0.735   6.498   9.276 -0.7180 -0.1948 -0.0770
 8968TIP3   OH251098   3.407   1.843  10.920  0.2794 -0.3271 -0.8126
 8968TIP3    H151099   3.475   1.885  10.972 -0.2821 -1.9010  1.3109
 8968TIP3    H251100   3.394   1.758  10.961 -4.0590  0.4626 -0.0059
 8969TIP3   OH251101   1.273   2.255  10.743  0.4514 -0.3937  0.5773
 8969TIP3    H151102   1.244   2.246  10.834  0.2124 -0.5915  0.4828
 8969TIP3    H251103   1.357   2.300  10.749 -1.1744  2.8939  0.7167
 8970TIP3   OH251104   5.028   2.563  10.557  0.5883 -0.3483 -1.2433
 8970TIP3    H151105   4.938   2.551  10.527  0.5509 -0.2893 -1.1537
 8970TIP3    H251106   5.034   2.514  10.639  0.3559  0.4631 -0.7336
 8971TIP3   OH251107   6.245   4.006   8.927  0.0718 -0.5000  0.2020
 8971TIP3    H151108   6.327   3.957   8.929 -1.0106 -2.4290  1.1354
 8971TIP3    H251109   6.269   4.095   8.951  1.7532 -1.2512  1.5098
 8972TIP3   OH251110   3.826   1.298  10.895 -0.6446 -0.0729  0.1711
 8972TIP3    H151111   3.789   1.330  10.977 -1.8933 -0.5321 -0.1831
 8972TIP3    H251112   3.860   1.211  10.916  0.5592  0.4796  0.5745
 8973TIP3   OH251113   2.012   5.694  11.971 -0.3682  0.0307 -0.0034
 8973TIP3    H151114   1.965   5.756  12.027 -0.4465  0.4131 -0.4954
 8973TIP3    H251115   1.946   5.629  11.946  0.0350 -1.1278  1.7329
 8974TIP3   OH251116   0.567   6.455  10.716 -0.2164  0.1876  0.3067
 8974TIP3    H151117   0.626   6.383  10.738 -0.3121 -0.0312 -0.1481
 8974TIP3    H251118   0.576   6.516  10.790 -1.2014 -0.9252  1.3937
 8975TIP3   OH251119   6.738   1.807  10.608 -0.0864 -0.8499  0.7244
 8975TIP3    H151120   6.686   1.839  10.534 -0.1174  0.2865  1.2252
 8975TIP3    H251121   6.685   1.826  10.685 -1.2586 -4.3149  0.9804
 8976TIP3   OH251122   2.449   5.730   9.998 -0.2901 -0.1882 -0.2814
 8976TIP3    H151123   2.473   5.760   9.911  1.0582 -1.3281 -0.3568
 8976TIP3    H251124   2.354   5.736  10.001 -0.6845 -2.7476 -2.9055
 8977TIP3   OH251125   6.632   4.415   9.506 -0.0421 -0.6624  0.1024
 8977TIP3    H151126   6.539   4.421   9.528  0.0793  3.4548  0.2678
 8977TIP3    H251127   6.634   4.416   9.410 -0.1747  0.0778  0.1026
 8978TIP3   OH251128   4.887   0.730   9.919 -0.1321 -0.0579  0.0590
 8978TIP3    H151129   4.833   0.759   9.846 -2.0199 -3.8361 -0.3027
 8978TIP3    H251130   4.852   0.775   9.995  0.6940  2.5627 -0.9869
 8979TIP3   OH251131   5.515   1.861  11.571 -0.0015 -0.5976 -0.2393
 8979TIP3    H151132   5.555   1.925  11.630  0.2548  0.1945 -1.2438
 8979TIP3    H251133   5.459   1.808  11.628  2.1498 -1.5264  1.1720
 8980TIP3   OH251134   3.175   2.540  10.960 -0.2952  0.6014  0.4534
 8980TIP3    H151135   3.080   2.553  10.959 -0.6919 -1.6925  1.3379
 8980TIP3    H251136   3.187   2.456  11.005  2.2047  1.1318  0.9344
 8981TIP3   OH251137   5.291   5.533   9.988  0.0727 -0.1182  0.2135
 8981TIP3    H151138   5.210   5.522  10.038 -0.3183  0.1259 -0.3417
 8981TIP3    H251139   5.275   5.485   9.906 -0.2735  1.5085 -0.7213
 8982TIP3   OH251140   6.264   2.661   9.846  0.8031 -0.4185  0.3284
 8982TIP3    H151141   6.298   2.744   9.811 -2.3645 -0.6363 -4.1567
 8982TIP3    H251142   6.321   2.594   9.809  0.8350 -0.4046  0.3527
 8983TIP3   OH251143   6.062   4.734   9.227  0.8836 -0.3115 -0.1483
 8983TIP3    H151144   5.981   4.768   9.265  1.0160  0.0202 -0.1605
 8983TIP3    H251145   6.129   4.797   9.252  1.2147 -0.7888  0.1913
 8984TIP3   OH251146   0.680   6.145   8.884 -0.0540  0.1843 -0.2645
 8984TIP3    H151147   0.690   6.088   8.960 -0.6773 -0.5574 -0.7126
 8984TIP3    H251148   0.681   6.234   8.919  0.2526 -0.1310  0.5325
 8985TIP3   OH251149   4.382   2.124  10.228 -0.3786  0.0058 -0.4011
 8985TIP3    H151150   4.421   2.211  10.239 -1.2756  0.2529  1.0666
 8985TIP3    H251151   4.431   2.068  10.288  0.2829 -0.5594 -1.4381
 8986TIP3   OH251152   0.064   3.381  11.331 -0.2973 -0.0822 -0.1079
 8986TIP3    H151153   0.066   3.463  11.282 -1.6736  0.5698  0.8417
 8986TIP3    H251154   0.152   3.372  11.366 -0.0358  0.8303 -0.4944
 8987TIP3   OH251155   6.331   2.336   9.190 -0.0417 -0.2422 -0.2138
 8987TIP3    H151156   6.374   2.262   9.147 -0.5220  0.6134 -2.2628
 8987TIP3    H251157   6.398   2.404   9.194 -0.1634 -0.1282 -0.0945
 8988TIP3   OH251158   0.070   3.986   9.136  0.0705 -0.1648 -0.2451
 8988TIP3    H151159   0.003   3.946   9.081 -0.6703  0.0718  0.4688
 8988TIP3    H251160   0.129   3.915   9.158 -0.9789 -0.7837  0.6411
 8989TIP3   OH251161   1.305   0.024   9.163  0.5818 -0.6943 -0.5383
 8989TIP3    H151162   1.226  -0.015   9.125 -0.8506  0.9609  0.5673
 8989TIP3    H251163   1.369  -0.047   9.162 -1.3050 -2.5153 -0.2761
 8990TIP3   OH251164   5.024   0.672  12.362  0.2917  0.1411  0.9486
 8990TIP3    H151165   4.967   0.732  12.410  0.3376  0.7298  0.2792
 8990TIP3    H251166   5.077   0.630  12.430  1.6720  2.3170  1.3137
 8991TIP3   OH251167   5.651   3.306   9.050 -0.1422  0.4977 -0.6926
 8991TIP3    H151168   5.719   3.268   8.994  1.2668  1.5871  0.2192
 8991TIP3    H251169   5.663   3.264   9.135 -1.3977 -0.1487 -0.7983
 8992TIP3   OH251170   2.038   0.089  11.573  0.5683 -0.0171 -0.8184
 8992TIP3    H151171   2.041   0.116  11.481 -1.4938 -0.3324 -1.0441
 8992TIP3    H251172   1.946   0.065  11.587  1.4015 -2.7020  0.5700
 8993TIP3   OH251173   4.556   5.878  10.224  0.0544 -0.8728 -0.2752
 8993TIP3    H151174   4.573   5.805  10.283 -0.8242 -0.0597  1.0452
 8993TIP3    H251175   4.511   5.943  10.278  0.3177  0.4295 -1.5370
 8994TIP3   OH251176   5.947   5.630  11.666 -0.5538  0.7857  0.4246
 8994TIP3    H151177   6.011   5.559  11.657  1.0172  2.0993  0.6922
 8994TIP3    H251178   5.874   5.591  11.714 -0.0880 -0.8355 -0.1153
 8995TIP3   OH251179   1.803   0.328  11.004 -0.2204 -0.1868 -0.4470
 8995TIP3    H151180   1.839   0.412  10.975  0.5618 -0.5189 -0.4489
 8995TIP3    H251181   1.878   0.279  11.037 -0.8339 -0.4696  0.5904
 8996TIP3   OH251182   1.551   6.180   8.954 -0.1108  0.2967 -0.2931
 8996TIP3    H151183   1.538   6.250   8.889 -0.0544  1.6682  1.1118
 8996TIP3    H251184   1.476   6.189   9.013 -0.6772 -1.5535 -0.6732
 8997TIP3   OH251185   3.375   3.673   8.728 -0.4322 -0.0450  0.5147
 8997TIP3    H151186   3.453   3.729   8.727 -0.6246  0.2078 -0.1779
 8997TIP3    H251187   3.400   3.599   8.784  1.2502 -1.2950 -1.7457
 8998TIP3   OH251188   4.989   0.249   9.710 -0.1233 -1.0267 -0.5485
 8998TIP3    H151189   5.082   0.228   9.706 -0.3293 -2.6535  1.4799
 8998TIP3    H251190   4.982   0.337   9.673  1.9660 -1.4685 -2.1734
 8999TIP3   OH251191   3.810   5.982  10.637  0.1522 -0.1250 -0.4372
 8999TIP3    H151192   3.831   5.920  10.707  2.6047  0.0232 -0.9599
 8999TIP3    H251193   3.782   6.061  10.683  0.2579 -0.5196  0.3212
 9000TIP3   OH251194   3.425   0.292  11.735 -0.1577  0.0923  0.5339
 9000TIP3    H151195   3.518   0.292  11.713 -0.2954 -0.2672 -0.0594
 9000TIP3    H251196   3.417   0.357  11.805  0.1973  1.7617 -0.9027
 9001TIP3   OH251197   3.314   1.315  11.805  0.6047 -0.0971 -0.3017
 9001TIP3    H151198   3.306   1.237  11.750  1.0524  0.2607 -0.8821
 9001TIP3    H251199   3.372   1.287  11.876 -0.3465 -0.6994  0.2685
 9002TIP3   OH251200   4.083   3.630  11.327  0.0148 -0.4447 -0.2856
 9002TIP3    H151201   4.144   3.687  11.374 -0.2545  0.8648 -1.4656
 9002TIP3    H251202   4.131   3.603  11.249 -0.9164  0.7305 -1.3069
 9003TIP3   OH251203   0.837   2.588  10.743  0.3244 -0.4169  0.3840
 9003TIP3    H151204   0.890   2.510  10.726  1.5519  0.1162  1.6314
 9003TIP3    H251205   0.869   2.622  10.826 -0.8425  0.8900  0.3374
 9004TIP3   OH251206   3.831   2.742  11.278 -0.4785  0.2534 -0.1844
 9004TIP3    H151207   3.852   2.749  11.371 -1.6250  1.0074  0.0247
 9004TIP3    H251208   3.912   2.766  11.233  0.4694 -1.3194  0.5950
 9005TIP3   OH251209   0.119   1.388   9.860  0.1989  0.5192  0.2512
 9005TIP3    H151210   0.150   1.475   9.886  0.9973 -0.1547  1.6565
 9005TIP3    H251211   0.188   1.328   9.890 -1.4063 -0.8197  1.4262
 9006TIP3   OH251212   2.988   6.560  11.262  0.8742  0.0918 -0.5394
 9006TIP3    H151213   3.047   6.491  11.293 -0.1277 -0.5548  0.0166
 9006TIP3    H251214   2.944   6.522  11.186 -1.4528 -0.8949  1.1762
 9007TIP3   OH251215   4.241   5.680   9.881  0.2393 -0.1787  0.3788
 9007TIP3    H151216   4.168   5.712   9.935  0.3647 -0.1469  0.5292
 9007TIP3    H251217   4.317   5.683   9.939  0.1815 -1.1307  0.5264
 9008TIP3   OH251218   4.922   2.979   9.812  0.3548 -0.8200  0.6920
 9008TIP3    H151219   4.843   2.932   9.838 -1.1027  0.4874 -1.0746
 9008TIP3    H251220   4.889   3.056   9.765  2.6636  0.6873  1.3848
 9009TIP3   OH251221   1.371   3.930  11.006  0.9707 -0.4960 -0.4347
 9009TIP3    H151222   1.321   3.895  10.933 -0.1211 -0.0144  0.0627
 9009TIP3    H251223   1.305   3.963  11.067  1.9106  1.7319 -0.5178
 9010TIP3   OH251224   3.717   2.448  10.522  0.2421 -0.0007 -0.2419
 9010TIP3    H151225   3.715   2.483  10.433 -1.3638  1.3704  0.2627
 9010TIP3    H251226   3.710   2.353  10.511  2.5470 -0.0675 -1.6088
 9011TIP3   OH251227   2.863   5.088  12.068 -0.0129 -0.6601 -0.7387
 9011TIP3    H151228   2.934   5.150  12.051  1.0689 -1.1695  1.4822
 9011TIP3    H251229   2.895   5.005  12.033  0.8730 -1.0458  0.8746
 9012TIP3   OH251230   3.235   6.161  11.088  0.4659 -0.0053  0.3070
 9012TIP3    H151231   3.219   6.249  11.054  0.3324 -0.1095  0.0991
 9012TIP3    H251232   3.280   6.175  11.171  1.4299  0.2399 -0.2390
 9013TIP3   OH251233   1.908   3.297   8.825 -0.0136  0.1123 -0.1242
 9013TIP3    H151234   1.964   3.372   8.805  0.6044  0.5902  2.9335
 9013TIP3    H251235   1.821   3.335   8.834 -0.2725 -0.0855 -1.5499
 9014TIP3   OH251236   1.723   0.590   9.535 -0.0820 -0.2473  0.4570
 9014TIP3    H151237   1.655   0.634   9.586  1.4887  3.2658 -0.2100
 9014TIP3    H251238   1.692   0.595   9.444  0.0104 -0.7707  0.3937
 9015TIP3   OH251239   4.879   0.979  10.299 -0.8373  0.2791 -0.1346
 9015TIP3    H151240   4.873   0.964  10.205 -0.9335  1.2263 -0.2907
 9015TIP3    H251241   4.957   0.929  10.326 -0.3221  0.6616 -0.8597
 9016TIP3   OH251242   0.235   1.003  12.271  0.4011  0.2484  0.2137
 9016TIP3    H151243   0.314   0.976  12.317 -0.7205  0.7761  2.6068
 9016TIP3    H251244   0.192   0.921  12.247  0.4223 -0.0654  1.2092
 9017TIP3   OH251245   4.698   0.460   9.072  0.5971  0.2394  0.2797
 9017TIP3    H151246   4.769   0.447   9.135  0.6293 -0.6829  0.0588
 9017TIP3    H251247   4.678   0.373   9.039 -1.7454  0.1962  1.5271
 9018TIP3   OH251248   3.244   1.346  11.333 -0.3201  0.4440 -0.2778
 9018TIP3    H151249   3.194   1.271  11.365 -0.1094 -0.1036 -1.2085
 9018TIP3    H251250   3.235   1.412  11.402 -1.0749 -0.1867  0.2397
 9019TIP3   OH251251   1.434   6.419   9.687  0.0127 -0.8220 -0.1693
 9019TIP3    H151252   1.461   6.498   9.640  0.4846 -1.3349 -0.7719
 9019TIP3    H251253   1.410   6.451   9.775  0.8010 -0.0999 -0.2015
 9020TIP3   OH251254   1.349   4.455   8.803  0.2403  0.5917 -0.3741
 9020TIP3    H151255   1.330   4.412   8.719  2.1123  0.0051 -0.5488
 9020TIP3    H251256   1.428   4.506   8.785  0.7795  0.2945  1.0730
 9021TIP3   OH251257   2.416   1.865   9.282  0.3063  0.2070  0.2353
 9021TIP3    H151258   2.380   1.879   9.195  0.8224 -0.7435 -0.1362
 9021TIP3    H251259   2.506   1.834   9.267 -0.4623 -2.6195  1.0041
 9022TIP3   OH251260   0.064   6.425  11.735 -0.4735  0.1338  0.5706
 9022TIP3    H151261   0.036   6.496  11.677  2.2015 -0.3026 -1.4632
 9022TIP3    H251262   0.155   6.407  11.710 -0.6779 -3.3212  1.6695
 9023TIP3   OH251263   0.131   6.744  10.974 -0.4482 -1.0256  0.2068
 9023TIP3    H151264   0.131   6.649  10.969  0.6327 -1.0535  0.4769
 9023TIP3    H251265   0.152   6.763  11.065  0.5582 -0.5317 -0.1182
 9024TIP3   OH251266   2.635   0.096  10.184  0.0580 -0.6895  0.5243
 9024TIP3    H151267   2.550   0.052  10.187 -0.1146 -0.3310  1.9950
 9024TIP3    H251268   2.696   0.030  10.150 -0.6733 -1.1840  0.1596
 9025TIP3   OH251269   2.928   1.296   9.609  0.3159 -0.4277 -1.0981
 9025TIP3    H151270   2.883   1.288   9.693  0.3317  1.9677 -0.7827
 9025TIP3    H251271   2.940   1.206   9.579  1.5922 -1.4953  2.1394
 9026TIP3   OH251272   6.323   1.413  12.201  0.5571 -0.0566  0.2445
 9026TIP3    H151273   6.277   1.332  12.178  0.2901 -0.0294  0.6744
 9026TIP3    H251274   6.263   1.458  12.261  1.1576 -0.0277  0.8340
 9027TIP3   OH251275   2.867   0.563   9.695  0.3086  0.0342 -0.1115
 9027TIP3    H151276   2.905   0.579   9.782  0.3595 -1.1763  0.1122
 9027TIP3    H251277   2.934   0.591   9.634  0.3284  0.7736  0.2356
 9028TIP3   OH251278   4.831   5.903  11.219  0.2760  0.5639 -0.6097
 9028TIP3    H151279   4.861   5.882  11.131 -0.0490 -0.2139 -0.5384
 9028TIP3    H251280   4.849   5.825  11.271  1.5871  1.4482  0.3122
 9029TIP3   OH251281   2.178   0.626  10.426 -0.3287 -0.5600  0.0935
 9029TIP3    H151282   2.207   0.610  10.516  0.8086 -0.8097 -0.3099
 9029TIP3    H251283   2.222   0.707  10.401 -0.9375 -0.2918 -0.1149
 9030TIP3   OH251284   4.425   0.651   9.456  0.1852  0.4320 -0.3285
 9030TIP3    H151285   4.430   0.717   9.525 -0.4738  0.9499 -0.7563
 9030TIP3    H251286   4.344   0.604   9.475  0.4278  0.0369 -0.2783
 9031TIP3   OH251287   5.709   6.493   8.981 -0.1066 -0.1297 -0.1447
 9031TIP3    H151288   5.675   6.576   9.015  0.1954  0.5184 -1.3959
 9031TIP3    H251289   5.769   6.518   8.911  0.3238 -1.3935 -0.2445
 9032TIP3   OH251290   6.454   3.626   9.055  0.1334 -0.4379 -0.7690
 9032TIP3    H151291   6.390   3.695   9.071 -0.1425 -0.8299 -0.1196
 9032TIP3    H251292   6.402   3.552   9.025  0.3578 -0.5542 -0.8728
 9033TIP3   OH251293   2.217   1.381   8.696 -0.0785 -0.2779  0.3172
 9033TIP3    H151294   2.298   1.386   8.645 -0.9471  0.6044 -1.0418
 9033TIP3    H251295   2.173   1.464   8.678 -1.5610 -0.9852  0.5738
 9034TIP3   OH251296   6.498   2.129   9.159  0.2321 -1.0875 -0.2011
 9034TIP3    H151297   6.529   2.071   9.089  2.8833 -0.7362  0.5789
 9034TIP3    H251298   6.575   2.145   9.213 -1.1489  0.7049  1.3737
 9035TIP3   OH251299   5.591   2.409   9.616  0.0834  0.6090 -0.4841
 9035TIP3    H151300   5.618   2.453   9.535 -0.9707  2.9611  0.3788
 9035TIP3    H251301   5.668   2.415   9.673  1.0866 -1.6911 -1.4596
 9036TIP3   OH251302   6.413   6.562  11.187  0.4610  0.5785  0.5262
 9036TIP3    H151303   6.363   6.518  11.256  2.3843 -0.4097  1.3847
 9036TIP3    H251304   6.503   6.561  11.219  1.2830  0.8832 -1.6254
 9037TIP3   OH251305   5.959   2.102   9.637 -0.0194 -0.1771  0.2253
 9037TIP3    H151306   6.025   2.060   9.692  0.9042  0.9948  0.0701
 9037TIP3    H251307   5.969   2.061   9.551 -0.0904 -0.6152  0.4265
 9038TIP3   OH251308   1.358   0.288  10.443  0.3437 -0.1214 -0.0204
 9038TIP3    H151309   1.446   0.294  10.408 -0.1132  1.4238 -0.9907
 9038TIP3    H251310   1.304   0.258  10.370 -0.1163  0.0433  0.2450
 9039TIP3   OH251311   6.647   5.804  10.485 -0.9256  0.1524 -0.5299
 9039TIP3    H151312   6.727   5.857  10.491 -1.2560  0.9524 -2.3031
 9039TIP3    H251313   6.679   5.714  10.476 -0.2079  0.4480 -1.0819
 9040TIP3   OH251314   0.122   1.913   9.006  0.3830  0.7357  0.1187
 9040TIP3    H151315   0.165   1.918   9.091  0.8534 -0.7512 -0.0027
 9040TIP3    H251316   0.038   1.958   9.019  0.4695  0.5777  1.3569
 9041TIP3   OH251317   5.275   1.008   9.744  0.5621 -0.5018 -0.1520
 9041TIP3    H151318   5.199   0.950   9.749  0.5222 -0.4888 -0.5894
 9041TIP3    H251319   5.313   1.004   9.832  0.4783 -1.0816 -0.1340
 9042TIP3   OH251320   1.917   6.653   8.705 -0.3651  0.2764 -0.2613
 9042TIP3    H151321   1.837   6.661   8.757  0.4221 -0.1664  1.0504
 9042TIP3    H251322   1.913   6.727   8.645 -1.5563  0.4952  0.0512
 9043TIP3   OH251323   2.705   6.538   8.612 -0.5595 -0.3345 -0.3199
 9043TIP3    H151324   2.636   6.594   8.574  0.6092  1.1436 -0.3567
 9043TIP3    H251325   2.724   6.475   8.543 -1.6536 -0.5771 -0.4233
 9044TIP3   OH251326   3.211   4.182   9.322  0.2325 -0.3503  0.1711
 9044TIP3    H151327   3.131   4.176   9.270  0.3519 -0.6653  0.0199
 9044TIP3    H251328   3.181   4.191   9.412  0.0247 -0.1626  0.0817
 9045TIP3   OH251329   5.103   1.093   9.417  0.0946  0.0505  0.0739
 9045TIP3    H151330   5.075   1.093   9.325  0.5324  1.9623 -0.1117
 9045TIP3    H251331   5.148   1.009   9.428 -0.3908 -0.4317 -1.3187
 9046TIP3   OH251332   5.381   6.171   9.360 -0.3920  0.0578  0.2703
 9046TIP3    H151333   5.419   6.257   9.379  2.6637 -1.2067  0.3930
 9046TIP3    H251334   5.348   6.140   9.445 -1.0245  0.8520  0.3253
 9047TIP3   OH251335   1.424   5.521   9.680 -0.5347 -0.5344 -0.0938
 9047TIP3    H151336   1.519   5.507   9.687  0.1044  1.2466 -3.2043
 9047TIP3    H251337   1.415   5.616   9.675 -2.2209 -0.7409 -2.1279
 9048TIP3   OH251338   6.641   4.278  10.356  0.0026  0.2394 -0.4052
 9048TIP3    H151339   6.712   4.217  10.380 -1.1060 -0.7251  0.5307
 9048TIP3    H251340   6.614   4.317  10.439 -2.4354 -1.5398 -0.2637
 9049TIP3   OH251341   0.841   3.270  10.041  0.1478  0.3482 -0.1033
 9049TIP3    H151342   0.880   3.294   9.957  1.0664 -0.9690 -0.0823
 9049TIP3    H251343   0.776   3.203  10.018 -0.8129  1.1992  0.0711
 9050TIP3   OH251344   1.152   4.648  11.042 -0.2548  0.5356  0.4751
 9050TIP3    H151345   1.183   4.719  10.986 -1.1206  1.1052  0.7125
 9050TIP3    H251346   1.075   4.613  10.997  1.1404 -1.4394 -0.5539
 9051TIP3   OH251347   4.490   6.326  11.294  0.1077  0.4255 -0.3028
 9051TIP3    H151348   4.465   6.371  11.213 -0.4438 -0.2808 -0.5262
 9051TIP3    H251349   4.559   6.265  11.268 -0.7924 -0.5514 -0.4456
 9052TIP3   OH251350   4.554   5.658  10.401  0.3155  0.3476 -0.1664
 9052TIP3    H151351   4.469   5.699  10.416 -0.4998 -2.2865  4.4750
 9052TIP3    H251352   4.537   5.592  10.333 -1.2249  0.3147  0.2141
 9053TIP3   OH251353   1.926   1.876   9.455  0.7703 -0.6826  0.3401
 9053TIP3    H151354   1.848   1.879   9.510  0.2587 -0.7583 -0.3839
 9053TIP3    H251355   1.916   1.797   9.403  1.6189 -1.0186  0.6561
 9054TIP3   OH251356   1.799   4.582   8.993  0.2771  0.0336  0.0707
 9054TIP3    H151357   1.835   4.611   9.076 -0.2451 -0.2684  0.4126
 9054TIP3    H251358   1.705   4.573   9.009  0.3476 -1.3238 -0.1557
 9055TIP3   OH251359   3.266   5.818  10.665 -0.2917 -0.4088 -0.3330
 9055TIP3    H151360   3.201   5.886  10.650 -0.3076 -0.5453 -0.8866
 9055TIP3    H251361   3.257   5.759  10.590  1.6120  0.4736 -1.3156
 9056TIP3   OH251362   1.243   3.817   9.793 -0.3774 -0.3009 -0.6076
 9056TIP3    H151363   1.281   3.905   9.792  0.4507 -0.6331  0.1571
 9056TIP3    H251364   1.312   3.760   9.760  0.9809 -1.3019  3.3478
 9057TIP3   OH251365   5.598   2.144  10.492 -0.3594  0.2392  0.2606
 9057TIP3    H151366   5.659   2.184  10.554 -1.6479  1.3907  0.8285
 9057TIP3    H251367   5.534   2.212  10.474 -1.6594 -1.0291 -0.0748
 9058TIP3   OH251368   4.410   5.231   9.965  0.6098 -0.5176 -0.1471
 9058TIP3    H151369   4.451   5.221   9.879  0.2903  0.6009 -0.4544
 9058TIP3    H251370   4.447   5.161  10.018  1.6107 -0.5780 -0.8965
 9059TIP3   OH251371   1.907   4.803  11.130 -0.3567 -0.4952  0.4157
 9059TIP3    H151372   1.981   4.862  11.142  0.2880 -1.2749  0.3444
 9059TIP3    H251373   1.945   4.715  11.133 -1.2431 -0.9028  0.1444
 9060TIP3   OH251374   5.798   6.418   9.929  0.1722  0.2182 -0.6412
 9060TIP3    H151375   5.886   6.381   9.923  0.3436  0.5429 -0.2284
 9060TIP3    H251376   5.809   6.509   9.901 -0.0781  0.1958 -0.8142
 9061TIP3   OH251377   1.501   3.033   9.863  0.0898  0.0655  0.3398
 9061TIP3    H151378   1.451   2.955   9.887  0.2133 -0.0341  0.2750
 9061TIP3    H251379   1.561   3.002   9.795 -1.3530  0.6832 -1.2757
 9062TIP3   OH251380   6.012   1.365  11.180  0.0945  0.0421 -0.0139
 9062TIP3    H151381   6.083   1.406  11.229  0.8696  1.0432 -1.8893
 9062TIP3    H251382   5.932   1.401  11.219  0.6632  0.5057  0.7451
 9063TIP3   OH251383   4.385   1.604   9.666  0.1133  0.3182  0.0566
 9063TIP3    H151384   4.372   1.596   9.761  0.1909 -0.6022 -0.0027
 9063TIP3    H251385   4.369   1.697   9.648 -0.2421  0.4385  0.9174
 9064TIP3   OH251386   4.314   4.217  10.020  0.1377  0.5557  0.0625
 9064TIP3    H151387   4.286   4.292   9.969 -1.3136  0.9347  1.3373
 9064TIP3    H251388   4.402   4.239  10.050  0.0094  1.4181 -0.1804
 9065TIP3   OH251389   2.699   4.759  10.417 -0.8175  0.1542 -0.1889
 9065TIP3    H151390   2.706   4.731  10.326  1.0045  1.5164 -0.5217
 9065TIP3    H251391   2.605   4.765  10.433 -1.1811 -0.5525 -1.8233
 9066TIP3   OH251392   5.691   6.177   9.850 -0.1056  0.1378  0.7647
 9066TIP3    H151393   5.754   6.130   9.905  1.3491  1.3903  0.2399
 9066TIP3    H251394   5.692   6.267   9.883 -0.1369  0.6243 -0.4758
 9067TIP3   OH251395   4.942   0.247  12.404 -0.1367 -0.3164  0.1836
 9067TIP3    H151396   5.005   0.187  12.444 -0.4585 -0.5857  0.2874
 9067TIP3    H251397   4.857   0.209  12.425 -0.3274 -1.8491 -2.8402
 9068TIP3   OH251398   2.249   4.900  10.828 -0.4405 -0.1447  0.3615
 9068TIP3    H151399   2.173   4.854  10.794 -0.8470  0.5326  0.3503
 9068TIP3    H251400   2.215   4.955  10.898 -0.1193  0.8438 -0.2413
 9069TIP3   OH251401   1.968   4.890   9.943 -0.1767  0.0274  0.6518
 9069TIP3    H151402   1.909   4.902  10.018 -1.1146 -2.3368  0.3801
 9069TIP3    H251403   2.033   4.959   9.953  0.4485 -0.8445  4.3529
 9070TIP3   OH251404   0.576   3.402   9.467  1.2481 -0.2710  0.5001
 9070TIP3    H151405   0.643   3.443   9.411  0.2900  1.1317  0.3350
 9070TIP3    H251406   0.504   3.383   9.407  0.3931  0.8264  1.1497
 9071TIP3   OH251407   4.761   4.689   9.953  0.4127 -0.1981 -0.2516
 9071TIP3    H151408   4.784   4.730  10.036  0.0976 -1.5035  0.5163
 9071TIP3    H251409   4.791   4.750   9.886  0.6122  0.9127  0.8201
 9072TIP3   OH251410   0.666   1.312   9.717 -0.1923 -0.0885 -0.0513
 9072TIP3    H151411   0.617   1.394   9.729 -0.3703 -0.3512  1.2652
 9072TIP3    H251412   0.613   1.247   9.764  1.4458 -0.3617  1.5207
 9073TIP3   OH251413   0.089   2.237  10.190  0.4133 -0.0642 -0.6107
 9073TIP3    H151414   0.059   2.233  10.281  1.4432  0.4073 -0.2351
 9073TIP3    H251415   0.017   2.279  10.143  0.6368  1.5035  0.3559
 9074TIP3   OH251416   3.828   2.576   8.928  0.1576  0.0233 -0.0809
 9074TIP3    H151417   3.813   2.651   8.869  0.4225  0.5420  0.4987
 9074TIP3    H251418   3.740   2.552   8.957  0.0294 -0.1875 -0.6159
 9075TIP3   OH251419   3.029   1.581   9.311 -0.2346  0.4022 -0.6019
 9075TIP3    H151420   3.110   1.591   9.361  0.2895 -0.0933 -1.3106
 9075TIP3    H251421   3.007   1.669   9.282 -0.4179  0.6570  0.3008
 9076TIP3   OH251422   0.573   4.865  10.346 -0.4588  0.6742  0.2936
 9076TIP3    H151423   0.642   4.872  10.412  0.4980  0.2735 -0.6289
 9076TIP3    H251424   0.539   4.776  10.356  0.1231  0.3894 -0.1384
 9077TIP3   OH251425   3.475   2.560   9.218  0.1841  0.3565  0.1644
 9077TIP3    H151426   3.413   2.603   9.276  0.0468  1.6172 -0.8605
 9077TIP3    H251427   3.495   2.477   9.260 -0.5595  0.8663  1.5607
 9078TIP3   OH251428   5.212   5.804  10.156  0.0968 -0.3240 -0.4456
 9078TIP3    H151429   5.218   5.860  10.233  0.0825 -2.1350  0.9323
 9078TIP3    H251430   5.298   5.809  10.116  0.6237 -0.6189  0.6161
 9079TIP3   OH251431   2.035   0.980  10.604  0.1101  0.2734 -0.7778
 9079TIP3    H151432   2.038   1.076  10.615 -0.7984  0.1919  0.3428
 9079TIP3    H251433   2.124   0.957  10.577  1.1727  1.1486  1.6246
 9080TIP3   OH251434   0.794   1.777   9.811 -0.1351 -0.0061  0.4686
 9080TIP3    H151435   0.859   1.815   9.870  1.4497 -0.9337 -0.6081
 9080TIP3    H251436   0.785   1.686   9.841  2.2762 -1.1527 -1.8427
 9081TIP3   OH251437   4.965   2.875   9.419 -0.0965  0.7533  0.1031
 9081TIP3    H151438   4.951   2.959   9.462 -0.9408  0.3249  0.6878
 9081TIP3    H251439   4.974   2.812   9.490 -1.1656  0.0907 -0.3247
 9082TIP3   OH251440   0.265   1.791  10.170  0.1580  0.3185  0.1172
 9082TIP3    H151441   0.295   1.739  10.245  0.0567  0.3836  0.2011
 9082TIP3    H251442   0.321   1.868  10.170  1.3406 -0.4880 -0.8958
 9083TIP3   OH251443   2.839   5.860  10.880  0.3214 -0.2957 -0.3883
 9083TIP3    H151444   2.807   5.916  10.809  1.0055 -0.8668 -1.1732
 9083TIP3    H251445   2.927   5.893  10.899 -0.0223  0.1349  0.5161
 9084TIP3   OH251446   4.175   4.931   9.468  0.1225  0.0701 -0.2165
 9084TIP3    H151447   4.243   4.874   9.432  1.6248  1.2269  0.6314
 9084TIP3    H251448   4.128   4.876   9.531  0.6279 -0.6087 -0.4244
 9085TIP3   OH251449   1.341   3.476  10.201 -0.2836 -0.0052 -0.1993
 9085TIP3    H151450   1.424   3.429  10.210  0.3511  0.8504 -1.2797
 9085TIP3    H251451   1.274   3.409  10.211  0.5280 -0.6780  0.8990
 9086TIP3   OH251452   3.688   5.313  10.468  0.1706  0.2042 -0.5614
 9086TIP3    H151453   3.626   5.262  10.416  0.5668 -0.5883 -0.2774
 9086TIP3    H251454   3.636   5.347  10.541 -0.7085  2.4625 -2.1369
 9087TIP3   OH251455   4.143   0.732   9.409 -0.2895  0.4372 -0.2154
 9087TIP3    H151456   4.187   0.787   9.345  0.7336  1.5467  1.3676
 9087TIP3    H251457   4.053   0.765   9.411 -0.3237  0.4178 -1.0150
 9088TIP3   OH251458   3.472   2.702  10.573  0.6589 -0.2822  0.2543
 9088TIP3    H151459   3.435   2.629  10.622  1.4101 -0.0263  1.2246
 9088TIP3    H251460   3.547   2.664  10.526  0.9041 -0.1932  0.5698
 9089TIP3   OH251461   3.776   0.201   9.442 -0.6396 -0.3238  0.1581
 9089TIP3    H151462   3.823   0.158   9.371 -0.7561  1.2590 -0.9296
 9089TIP3    H251463   3.843   0.249   9.490 -0.7143 -0.5555  0.5005
 9090TIP3   OH251464   0.579   1.875  10.630  0.1805  0.3756 -0.4896
 9090TIP3    H151465   0.559   1.955  10.581  0.5049  0.0602 -1.1369
 9090TIP3    H251466   0.586   1.807  10.564 -0.9899 -0.3828  0.1378
 9091TIP3   OH251467   4.582   3.985  10.196 -1.0193 -0.3843  0.1374
 9091TIP3    H151468   4.552   4.071  10.223  0.7790  0.2446  0.2634
 9091TIP3    H251469   4.578   3.932  10.276  1.2590  0.6005  0.9701
 9092TIP3   OH251470   0.459   0.419   8.573 -0.2262 -0.3387 -0.1377
 9092TIP3    H151471   0.548   0.449   8.557  0.5658 -2.3423  0.1827
 9092TIP3    H251472   0.408   0.451   8.499  0.9082  0.2729 -0.6666
 9093TIP3   OH251473   1.235   0.375  11.469 -0.5292  0.3669  0.0219
 9093TIP3    H151474   1.281   0.354  11.550  1.0432  2.0943 -0.3353
 9093TIP3    H251475   1.173   0.443  11.493 -0.0207  0.9223 -0.2092
 9094TIP3   OH251476   2.830   5.632   9.788  0.6494 -0.3426 -0.1311
 9094TIP3    H151477   2.907   5.689   9.783  0.2919  0.0684 -1.3220
 9094TIP3    H251478   2.756   5.691   9.774 -0.0906 -0.4057  2.8336
 9095TIP3   OH251479   4.354   2.893   8.644  0.0203  0.0998 -0.0131
 9095TIP3    H151480   4.446   2.898   8.618  0.6207  1.3167  2.0495
 9095TIP3    H251481   4.344   2.805   8.680  0.2010 -0.2471 -0.7975
 9096TIP3   OH251482   2.903   6.002  11.700 -0.2943 -0.3556  0.1842
 9096TIP3    H151483   2.845   5.929  11.723 -0.6888 -0.3266 -0.7021
 9096TIP3    H251484   2.963   6.009  11.775 -1.8495  0.0449  1.4622
 9097TIP3   OH251485   5.494   0.264  11.998 -0.2660 -0.3896  0.7819
 9097TIP3    H151486   5.540   0.347  11.992  0.0867 -0.6816 -1.6536
 9097TIP3    H251487   5.520   0.228  12.083  1.7668  0.7309  0.6909
 9098TIP3   OH251488   4.608   3.125  11.370 -0.3312 -0.0054  0.0556
 9098TIP3    H151489   4.594   3.199  11.311 -0.2833  0.9219  1.1562
 9098TIP3    H251490   4.528   3.120  11.422  0.9906  1.6326  2.4440
 9099TIP3   OH251491   3.318   1.028   9.141 -0.1039 -0.9883  0.2594
 9099TIP3    H151492   3.277   1.096   9.087  2.0734  1.8908  1.8889
 9099TIP3    H251493   3.246   0.987   9.188 -1.6736 -1.0458 -2.0284
 9100TIP3   OH251494   5.011   1.449  11.159  0.2439 -0.2679  0.8275
 9100TIP3    H151495   4.928   1.402  11.165 -0.7661  1.4970  1.1484
 9100TIP3    H251496   5.032   1.449  11.066  0.9351 -2.4031  0.9216
 9101TIP3   OH251497   5.932   1.671  10.840 -0.1864 -0.1662  0.3023
 9101TIP3    H151498   6.010   1.685  10.786 -0.8126 -1.7507 -1.1068
 9101TIP3    H251499   5.952   1.593  10.892 -1.3117 -1.4958 -1.1548
 9102TIP3   OH251500   2.702   4.559   9.722 -0.0434 -0.0344  0.2763
 9102TIP3    H151501   2.730   4.649   9.736 -1.0580  0.4043 -0.3849
 9102TIP3    H251502   2.741   4.534   9.638 -0.8092  0.2531 -0.1797
 9103TIP3   OH251503   1.753   4.754   8.749 -0.5423 -0.3552 -0.0492
 9103TIP3    H151504   1.801   4.706   8.816  0.1407 -0.4851 -0.6225
 9103TIP3    H251505   1.749   4.844   8.783 -0.9718 -0.6007  0.5662
 9104TIP3   OH251506   3.072   2.680  11.288  0.1911  0.0605  0.2087
 9104TIP3    H151507   3.079   2.591  11.253  0.0481 -0.1288  0.6581
 9104TIP3    H251508   2.978   2.697  11.293  0.1684 -0.4040  1.7125
 9105TIP3   OH251509   4.441   1.692   9.213 -0.0690  0.2681  0.1076
 9105TIP3    H151510   4.404   1.627   9.153  0.5229 -0.4068  0.4494
 9105TIP3    H251511   4.465   1.641   9.291 -0.2484  1.0219  0.6681
 9106TIP3   OH251512   1.909   1.058   9.913  0.1893  0.1158 -0.1819
 9106TIP3    H151513   1.923   0.964   9.929  0.2438 -0.0258 -0.9986
 9106TIP3    H251514   1.905   1.065   9.817 -1.4665  0.7134 -0.0922
 9107TIP3   OH251515   5.441   6.334  11.622  0.1400 -0.1325  0.4057
 9107TIP3    H151516   5.505   6.268  11.650 -0.6219 -1.6545 -1.2408
 9107TIP3    H251517   5.470   6.359  11.534  0.6104  2.0643  1.1169
 9108TIP3   OH251518   4.634   5.517  11.349 -0.0400 -0.0607  0.4675
 9108TIP3    H151519   4.624   5.433  11.305 -0.2470 -1.3282  2.7592
 9108TIP3    H251520   4.578   5.511  11.426  1.1600  1.5555  1.5469
 9109TIP3   OH251521   6.612   2.943   9.331  0.0988  0.6303 -0.1954
 9109TIP3    H151522   6.527   2.971   9.365  0.3602 -0.0614  1.0886
 9109TIP3    H251523   6.610   2.966   9.238 -0.8770  2.0404  0.1561
 9110TIP3   OH251524   4.536   6.409  12.622 -0.9077  0.5626 -0.0675
 9110TIP3    H151525   4.551   6.327  12.575 -1.6511  0.0963  0.4845
 9110TIP3    H251526   4.623   6.436  12.651 -0.7589 -0.5354  0.5711
 9111TIP3   OH251527   2.099   5.116   9.854 -0.0121 -0.0831 -0.5866
 9111TIP3    H151528   2.161   5.113   9.926 -0.4185  0.6062 -0.2029
 9111TIP3    H251529   2.139   5.177   9.791 -1.4055  2.3416  0.7435
 9112TIP3   OH251530   6.505   1.772   9.267 -0.3092 -0.1958  0.0629
 9112TIP3    H151531   6.449   1.812   9.201 -2.6381 -0.2504  1.8622
 9112TIP3    H251532   6.512   1.839   9.336  2.2196 -0.0570 -0.2202
 9113TIP3   OH251533   3.382   5.494  11.861  0.2652 -0.3937  0.0452
 9113TIP3    H151534   3.407   5.445  11.939 -0.1947 -0.4662  0.1534
 9113TIP3    H251535   3.333   5.569  11.894 -0.5489 -0.8023 -0.1896
 9114TIP3   OH251536   1.179   4.281  10.712  0.4849 -0.5570  0.3395
 9114TIP3    H151537   1.206   4.370  10.690 -1.0151 -0.2279 -0.2279
 9114TIP3    H251538   1.219   4.227  10.643 -0.3920 -0.0556 -0.5934
 9115TIP3   OH251539   5.212   5.126   8.719  0.2722  0.3399  0.4800
 9115TIP3    H151540   5.145   5.070   8.682  0.2277  0.0444  0.9987
 9115TIP3    H251541   5.263   5.156   8.643 -0.2548  0.3285  0.1166
 9116TIP3   OH251542   6.605   1.375   9.745  0.2616  0.2160  0.5563
 9116TIP3    H151543   6.570   1.464   9.748  0.1501  0.2008 -0.1093
 9116TIP3    H251544   6.695   1.383   9.777  0.9182  0.9108 -1.3496
 9117TIP3   OH251545   3.192   6.572   8.556  0.0005 -0.2211  0.4386
 9117TIP3    H151546   3.287   6.559   8.552  0.0674  0.3017  0.2327
 9117TIP3    H251547   3.158   6.488   8.584  0.6579  0.0550  2.2294
 9118TIP3   OH251548   0.179   3.467  10.058  0.1624 -0.6389  0.3855
 9118TIP3    H151549   0.128   3.395  10.096 -0.6374 -0.1402  0.2751
 9118TIP3    H251550   0.247   3.423  10.007 -0.6866 -1.3351 -0.1832
 9119TIP3   OH251551   6.079   1.406  10.347  0.2395  0.3963  0.3979
 9119TIP3    H151552   6.143   1.437  10.282 -0.8781 -0.4231 -1.1828
 9119TIP3    H251553   6.122   1.332  10.390  0.6264  0.2723 -0.1848
 9120TIP3   OH251554   3.686   6.376  10.478 -0.0933 -0.0409  0.0713
 9120TIP3    H151555   3.739   6.432  10.421 -0.7861  0.7072  0.1509
 9120TIP3    H251556   3.613   6.431  10.505  0.7612  0.0089  2.5543
 9121TIP3   OH251557   2.213   0.320  11.770 -0.3775 -0.2697 -0.2287
 9121TIP3    H151558   2.234   0.227  11.771 -1.1752 -0.4948  1.7533
 9121TIP3    H251559   2.119   0.324  11.751 -0.2670  0.1602 -0.7149
 9122TIP3   OH251560   6.637   5.228  10.306  0.3189 -0.2394 -0.1049
 9122TIP3    H151561   6.567   5.187  10.255  0.4511 -0.6226  0.0168
 9122TIP3    H251562   6.625   5.322  10.293  1.0356 -0.3386 -1.7770
 9123TIP3   OH251563   0.834   4.438   9.247  0.2269 -0.0579  1.0148
 9123TIP3    H151564   0.748   4.472   9.223  1.4740  2.8645  0.3023
 9123TIP3    H251565   0.839   4.450   9.342 -0.1673 -0.3986  1.0855
 9124TIP3   OH251566   1.484   0.933   9.198 -0.5584  0.2933 -0.4362
 9124TIP3    H151567   1.483   0.850   9.151  1.8737  0.6178 -1.1682
 9124TIP3    H251568   1.549   0.920   9.267 -1.4263  1.0451  0.5525
 9125TIP3   OH251569   4.015   6.600  10.575  0.0473 -0.3846  0.4622
 9125TIP3    H151570   3.960   6.676  10.592  0.3549  0.5623 -2.3054
 9125TIP3    H251571   4.087   6.609  10.638 -0.6626  0.8027  1.1448
 9126TIP3   OH251572   6.251   2.024   8.885  0.0688 -0.2506 -0.1711
 9126TIP3    H151573   6.173   2.014   8.831 -0.3801  0.8452  0.2622
 9126TIP3    H251574   6.297   2.099   8.846 -0.5583  0.9372  1.3022
 9127TIP3   OH251575   0.736   5.954  10.096 -0.0751  0.2048 -0.2008
 9127TIP3    H151576   0.741   5.978  10.189  0.1606  1.3575 -0.4963
 9127TIP3    H251577   0.670   5.885  10.093 -1.0993  1.1120  0.6499
 9128TIP3   OH251578   5.834   6.144  11.187  0.5738 -0.4878 -0.5281
 9128TIP3    H151579   5.789   6.067  11.151  0.2541 -0.1579 -0.8396
 9128TIP3    H251580   5.898   6.168  11.119  0.3944 -0.2359 -0.6074
 9129TIP3   OH251581   0.419   6.521  11.293  0.0656  0.4157  0.4174
 9129TIP3    H151582   0.479   6.560  11.357  0.4915  1.1300 -0.3918
 9129TIP3    H251583   0.355   6.590  11.275  0.1141  0.3178 -0.1293
 9130TIP3   OH251584   6.497   2.833   9.080 -0.1063 -0.0722 -0.3533
 9130TIP3    H151585   6.570   2.888   9.051  0.1200  0.1491  0.6044
 9130TIP3    H251586   6.464   2.792   9.000  0.5579  0.4476 -0.8992
 9131TIP3   OH251587   1.956   4.803   9.377 -0.0115  0.2136  0.6911
 9131TIP3    H151588   1.924   4.830   9.463 -0.4005 -0.6855  0.8397
 9131TIP3    H251589   1.955   4.708   9.380  2.1362  0.1352  0.4865
 9132TIP3   OH251590   4.915   5.572   8.803  0.3190 -0.3855  0.1321
 9132TIP3    H151591   4.973   5.497   8.811  0.0385 -0.5157  1.1301
 9132TIP3    H251592   4.971   5.648   8.814  0.4931 -0.4671 -0.1827
 9133TIP3   OH251593   3.224   5.096  10.264  0.0093  0.0954 -0.4162
 9133TIP3    H151594   3.312   5.067  10.287  0.8771  3.5074  1.2507
 9133TIP3    H251595   3.173   5.082  10.345  0.3939  2.6349  0.3504
 9134TIP3   OH251596   3.037   2.314  10.573 -0.0545 -0.2060 -0.3658
 9134TIP3    H151597   3.046   2.230  10.618 -0.8634 -0.4926 -0.7040
 9134TIP3    H251598   3.126   2.347  10.563  0.2721 -1.0349 -0.2443
 9135TIP3   OH251599   2.392   0.026  10.050  0.5773 -0.1251 -0.0978
 9135TIP3    H151600   2.387  -0.004   9.959 -0.3643  2.1816 -0.8887
 9135TIP3    H251601   2.392   0.121  10.043 -0.0665  0.1085  2.3517
 9136TIP3   OH251602   1.653   1.120   9.024 -0.4770 -0.2200  0.0798
 9136TIP3    H151603   1.576   1.124   9.082 -0.8668 -0.4842 -0.4132
 9136TIP3    H251604   1.635   1.047   8.965  0.0996 -0.2022 -0.1241
 9137TIP3   OH251605   0.152   5.947  10.432 -0.1839  0.1313 -0.3342
 9137TIP3    H151606   0.218   5.883  10.458 -0.0365 -0.2523 -1.5485
 9137TIP3    H251607   0.189   6.031  10.455  0.9200 -0.0547 -1.3142
 9138TIP3   OH251608   2.712   3.177   9.882 -0.1711 -0.0599  0.0984
 9138TIP3    H151609   2.797   3.147   9.913 -0.2051 -0.3964 -0.1219
 9138TIP3    H251610   2.727   3.268   9.854  0.4515 -0.5390 -1.2073
 9139TIP3   OH251611   5.480   6.208  10.461  0.0886 -0.4016  0.2240
 9139TIP3    H151612   5.472   6.180  10.369  0.4766 -1.0770  0.3844
 9139TIP3    H251613   5.562   6.257  10.464 -1.8642  3.2779 -0.6365
 9140TIP3   OH251614   2.884   0.401  12.011 -0.0363 -0.0417  1.1058
 9140TIP3    H151615   2.946   0.331  11.994 -2.9588 -3.0399  1.7898
 9140TIP3    H251616   2.889   0.457  11.933  3.1400 -0.2886  1.0102
 9141TIP3   OH251617   3.004   2.730   8.741  0.0141 -0.0830  0.0704
 9141TIP3    H151618   3.071   2.798   8.728 -0.8776  0.7294 -0.3393
 9141TIP3    H251619   3.055   2.650   8.756  1.1088  0.8690  1.8421
 9142TIP3   OH251620   1.881   6.571  10.070 -0.8233  0.1169 -0.3533
 9142TIP3    H151621   1.843   6.581   9.983 -1.6513  0.4735  0.0299
 9142TIP3    H251622   1.867   6.657  10.112  0.1638  0.1616 -0.1013
 9143TIP3   OH251623   5.115   6.479   9.895  0.2596 -0.2821 -0.1249
 9143TIP3    H151624   5.169   6.410   9.855  1.4626  0.7377 -0.3393
 9143TIP3    H251625   5.130   6.556   9.840  1.0924  0.8732  1.6189
 9144TIP3   OH251626   2.302   6.025  10.509  0.3487  0.2816 -0.0858
 9144TIP3    H151627   2.255   5.967  10.449  0.3101 -0.2874  0.4802
 9144TIP3    H251628   2.234   6.058  10.568  0.5173  0.1700  0.1714
 9145TIP3   OH251629   1.522   3.420  10.905  0.1236  0.5460  0.2504
 9145TIP3    H151630   1.479   3.505  10.899 -0.8721 -0.0394 -1.4397
 9145TIP3    H251631   1.478   3.366  10.840  1.1742 -1.0891  0.8352
 9146TIP3   OH251632   6.464   5.227  10.092 -0.3534  0.0822  0.0320
 9146TIP3    H151633   6.463   5.288  10.018  1.5897  0.8584  0.5987
 9146TIP3    H251634   6.462   5.140  10.052 -0.6502  0.4950 -0.8721
 9147TIP3   OH251635   4.902   3.365  10.242 -0.1394  0.1847 -0.3832
 9147TIP3    H151636   4.894   3.331  10.153 -0.1379  0.1649 -0.3761
 9147TIP3    H251637   4.838   3.315  10.293 -0.1246  0.1798 -0.3691
 9148TIP3   OH251638   0.462   5.879   8.965  0.8301 -0.0213  0.0677
 9148TIP3    H151639   0.536   5.826   8.993  0.5380  0.4091  1.7422
 9148TIP3    H251640   0.403   5.880   9.040 -0.5024  0.3215 -0.9433
 9149TIP3   OH251641   0.650   2.912  10.226 -1.1083 -0.1444  0.2782
 9149TIP3    H151642   0.690   2.859  10.157  0.1611  0.0145  0.8700
 9149TIP3    H251643   0.557   2.917  10.202 -0.7947 -0.5869 -1.0835
 9150TIP3   OH251644   4.425   5.556   9.364 -0.0778  0.1940  0.4292
 9150TIP3    H151645   4.340   5.600   9.354 -0.9943 -1.2975  1.2250
 9150TIP3    H251646   4.486   5.626   9.383 -1.2164  1.2770  0.2274
 9151TIP3   OH251647   1.518   5.321  11.250 -0.9452  0.1543 -0.6393
 9151TIP3    H151648   1.521   5.277  11.164  1.1367  0.0689 -0.5617
 9151TIP3    H251649   1.543   5.411  11.231 -0.1015  0.0431 -0.0736
 9152TIP3   OH251650   1.549   2.870  11.087 -0.4096 -0.2948  0.1449
 9152TIP3    H151651   1.611   2.808  11.050 -0.6296 -0.4544  0.0404
 9152TIP3    H251652   1.569   2.871  11.181  1.6919  1.8255 -0.2368
 9153TIP3   OH251653   4.743   3.961   8.792  0.1049 -0.3716  0.1853
 9153TIP3    H151654   4.808   3.892   8.800 -1.3674 -1.6531  1.5901
 9153TIP3    H251655   4.660   3.916   8.775 -0.3291  1.2614 -2.7720
 9154TIP3   OH251656   5.547   1.925   9.312 -0.1236 -0.0276  0.3483
 9154TIP3    H151657   5.573   2.016   9.325  1.7503 -0.7852  2.5336
 9154TIP3    H251658   5.478   1.911   9.377 -1.4593  0.1723 -0.9769
 9155TIP3   OH251659   0.970   6.114  11.721 -0.2725  0.8023 -0.4315
 9155TIP3    H151660   0.949   6.051  11.652 -0.6899 -0.2975  0.6606
 9155TIP3    H251661   0.897   6.108  11.781 -0.6006  2.7865 -0.5821
 9156TIP3   OH251662   2.605   5.513  11.900 -0.5651 -0.3594 -0.0184
 9156TIP3    H151663   2.631   5.423  11.921 -0.1734  0.1669  1.9020
 9156TIP3    H251664   2.581   5.510  11.807 -1.1005 -2.5685  0.1356
 9157TIP3   OH251665   3.263   0.989  11.950  0.3026  0.1054  0.7463
 9157TIP3    H151666   3.189   0.939  11.984 -0.4344  0.2170 -0.6220
 9157TIP3    H251667   3.229   1.079  11.945  0.4917  0.1330 -0.0073
 9158TIP3   OH251668   1.917   5.846  11.008  0.2233  0.3705 -0.5192
 9158TIP3    H151669   1.868   5.774  10.967 -0.9969  1.2785 -0.7259
 9158TIP3    H251670   1.991   5.861  10.949 -1.4202  1.5548 -2.4401
 9159TIP3   OH251671   2.260   3.135  10.412  0.5480  1.2725  0.3351
 9159TIP3    H151672   2.229   3.226  10.416 -0.8796  0.8155  0.4074
 9159TIP3    H251673   2.182   3.085  10.388  1.5699  0.1906 -0.8541
 9160TIP3   OH251674   1.778   2.770  11.530 -0.4280 -0.0068 -0.6118
 9160TIP3    H151675   1.813   2.823  11.602 -0.0902  0.2700 -0.9715
 9160TIP3    H251676   1.772   2.832  11.456 -0.4820 -0.3592 -0.9042
 9161TIP3   OH251677   5.212   2.012  10.424 -0.2519 -0.1751 -0.0739
 9161TIP3    H151678   5.215   2.089  10.367 -1.2223  0.2560  0.4308
 9161TIP3    H251679   5.132   2.023  10.475  1.6866  0.6183  3.0072
 9162TIP3   OH251680   6.008   6.357  11.790  0.4905  0.0733  0.1826
 9162TIP3    H151681   5.964   6.274  11.809  1.7706 -0.8124 -0.5600
 9162TIP3    H251682   6.099   6.332  11.774  0.4140  1.2371 -2.6546
 9163TIP3   OH251683   4.594   5.705  12.432 -0.4407 -0.2499 -0.0911
 9163TIP3    H151684   4.596   5.800  12.420  1.2782 -0.2641 -0.1714
 9163TIP3    H251685   4.523   5.690  12.495 -1.0088  1.0360 -0.3930
 9164TIP3   OH251686   4.212   3.275  11.347  0.3853  0.9279 -0.1733
 9164TIP3    H151687   4.267   3.243  11.276 -0.4277  0.8207 -0.7650
 9164TIP3    H251688   4.140   3.212  11.352 -0.0563  1.4525  0.1348
 9165TIP3   OH251689   4.711   3.280  10.417  0.2133 -0.2442  0.1006
 9165TIP3    H151690   4.750   3.349  10.471 -2.4589  1.4298  0.0468
 9165TIP3    H251691   4.617   3.285  10.435 -0.1150 -4.2148  0.4047
 9166TIP3   OH251692   1.201   0.982   9.116  0.3397 -0.4873  0.5496
 9166TIP3    H151693   1.173   0.896   9.148  1.0131 -0.9796 -0.1404
 9166TIP3    H251694   1.296   0.982   9.128  0.3371  0.1859  0.5975
 9167TIP3   OH251695   6.651   1.590   9.141  0.2127  0.1607  0.3090
 9167TIP3    H151696   6.591   1.661   9.167 -1.1575 -0.5745 -0.7045
 9167TIP3    H251697   6.677   1.550   9.224 -2.4080 -0.8327  0.7446
 9168TIP3   OH251698   2.447   0.414  10.682 -0.7706 -0.4989 -0.1174
 9168TIP3    H151699   2.432   0.352  10.611 -0.2089 -1.6433  0.7265
 9168TIP3    H251700   2.478   0.360  10.755  1.0923  0.9288  0.2291
 9169TIP3   OH251701   1.341   1.930  10.115 -0.3542 -0.3489 -0.1519
 9169TIP3    H151702   1.414   1.921  10.177 -1.1842  0.4293  0.9599
 9169TIP3    H251703   1.325   1.841  10.084  1.1065 -0.5307 -0.4853
 9170TIP3   OH251704   6.128   0.997   8.949  0.2258 -0.2958  0.5075
 9170TIP3    H151705   6.053   0.940   8.930  0.7247 -0.1216 -2.3010
 9170TIP3    H251706   6.088   1.079   8.977 -0.5844 -0.6845  0.5345
 9171TIP3   OH251707   4.003   0.114  10.266 -0.5717  0.6481 -0.4485
 9171TIP3    H151708   4.017   0.194  10.216  0.5544  0.5890 -0.2420
 9171TIP3    H251709   4.069   0.053  10.233  0.5612  0.7752  1.4471
 9172TIP3   OH251710   3.988   1.256  12.178 -0.2749 -0.1770 -0.1580
 9172TIP3    H151711   3.975   1.339  12.225  0.2416  0.9628 -1.9581
 9172TIP3    H251712   3.923   1.197  12.217 -1.0103  1.2000  0.8111
 9173TIP3   OH251713   5.571   3.920  10.768 -0.2278  0.1159 -0.3469
 9173TIP3    H151714   5.662   3.948  10.762 -0.3062  0.7461  1.0869
 9173TIP3    H251715   5.572   3.848  10.832 -0.4854 -1.1300 -1.6945
 9174TIP3   OH251716   0.386   0.863  10.312  0.1319 -0.1777 -0.0558
 9174TIP3    H151717   0.470   0.865  10.359  0.5812 -0.2692 -0.8300
 9174TIP3    H251718   0.410   0.873  10.220 -0.8795  2.0352 -0.1341
 9175TIP3   OH251719   6.171   3.981   9.418 -0.0490 -0.0988 -0.5208
 9175TIP3    H151720   6.108   3.982   9.346  2.0097  2.1685 -2.4800
 9175TIP3    H251721   6.201   4.071   9.425  1.1906 -0.6177  1.9875
 9176TIP3   OH251722   0.339   5.536  11.721  0.2947  0.2778  0.3677
 9176TIP3    H151723   0.280   5.552  11.795 -1.3818 -2.2521 -0.2732
 9176TIP3    H251724   0.314   5.449  11.689  0.2748  1.5610 -3.7506
 9177TIP3   OH251725   3.325   4.294   9.930  0.2939 -0.0335  0.0120
 9177TIP3    H151726   3.240   4.291   9.973  0.5695  0.6657  0.6576
 9177TIP3    H251727   3.323   4.225   9.865 -1.0132  0.4129 -0.4484
 9178TIP3   OH251728   5.802   0.014   9.607  0.1285  0.0014 -0.2662
 9178TIP3    H151729   5.810  -0.000   9.513 -0.1825  2.0581 -0.6519
 9178TIP3    H251730   5.821   0.107   9.619  1.1095 -0.4093  1.8321
 9179TIP3   OH251731   1.138   6.222   9.682  0.0438 -0.3039  0.3484
 9179TIP3    H151732   1.218   6.171   9.692  0.3946  0.1346 -0.1778
 9179TIP3    H251733   1.068   6.157   9.681  0.4089 -0.7044  0.6029
 9180TIP3   OH251734   0.715   3.068  10.847 -0.2817  0.4237  0.1251
 9180TIP3    H151735   0.627   3.085  10.813 -0.4557 -2.3372 -1.0807
 9180TIP3    H251736   0.700   3.024  10.930 -0.0190  0.3252  0.1195
 9181TIP3   OH251737   0.974   4.602  11.579 -0.2291 -0.7596 -0.0195
 9181TIP3    H151738   1.009   4.627  11.665  0.4130 -1.6470 -0.0153
 9181TIP3    H251739   1.051   4.604  11.521 -0.3182 -1.9094 -0.1903
 9182TIP3   OH251740   1.983   2.009  10.308  0.2263  0.1953 -0.6717
 9182TIP3    H151741   1.944   1.945  10.249 -0.6620 -0.9107  1.0385
 9182TIP3    H251742   1.928   2.087  10.299 -0.2877 -0.1839 -0.8209
 9183TIP3   OH251743   6.666   1.090  10.671  0.3333  0.1874 -0.1249
 9183TIP3    H151744   6.735   1.116  10.610  0.3440 -0.6061 -0.4591
 9183TIP3    H251745   6.623   1.172  10.695  0.4078  0.5212 -1.1060
 9184TIP3   OH251746   3.364   4.158  11.942  0.0244 -0.4876  0.0381
 9184TIP3    H151747   3.408   4.073  11.944 -1.2757 -1.2236 -1.1280
 9184TIP3    H251748   3.276   4.139  11.911 -0.9539  1.0287  1.6837
 9185TIP3   OH251749   1.796   1.588  10.812 -0.2725 -0.3670  0.2192
 9185TIP3    H151750   1.890   1.581  10.829 -0.4526 -0.4627  1.2706
 9185TIP3    H251751   1.769   1.668  10.857 -0.7841 -0.6292  0.3868
 9186TIP3   OH251752   5.040   1.206   8.751 -0.4339  0.1247  0.2848
 9186TIP3    H151753   4.975   1.271   8.726 -0.5601  0.6050  1.7969
 9186TIP3    H251754   5.034   1.200   8.846  1.9938  0.4689  0.5334
 9187TIP3   OH251755   5.565   5.778   9.230 -0.2091 -0.6830  0.0979
 9187TIP3    H151756   5.578   5.872   9.246  0.5139 -0.9369  1.0863
 9187TIP3    H251757   5.589   5.767   9.138 -3.0516  0.5594 -0.8847
 9188TIP3   OH251758   1.880   4.292   9.690 -0.2485  0.0875 -0.0148
 9188TIP3    H151759   1.910   4.287   9.781 -0.0809 -0.9235 -0.1180
 9188TIP3    H251760   1.957   4.322   9.641 -0.4109  0.8832  0.2002
 9189TIP3   OH251761   4.229   1.429  10.895  0.0368  0.8089  0.1208
 9189TIP3    H151762   4.263   1.474  10.972  1.3050  2.1081 -1.1243
 9189TIP3    H251763   4.234   1.336  10.917  1.6517  1.0897  1.1117
 9190TIP3   OH251764   4.947   6.607  10.601  0.0226 -0.0270  0.0429
 9190TIP3    H151765   4.861   6.650  10.601 -0.6008 -1.2104 -0.0637
 9190TIP3    H251766   4.932   6.525  10.649  1.3074  0.1464  0.7583
 9191TIP3   OH251767   5.246   0.652   9.032 -0.2758  0.2371 -0.3603
 9191TIP3    H151768   5.282   0.596   8.963 -1.7060 -2.0274  0.6654
 9191TIP3    H251769   5.299   0.632   9.109 -0.5733  0.5883 -0.0628
 9192TIP3   OH251770   0.440   1.091  10.548 -0.5464 -0.2587 -0.2973
 9192TIP3    H151771   0.408   1.085  10.638 -1.7426  1.2981 -0.5795
 9192TIP3    H251772   0.502   1.018  10.540  0.2172  0.0545  2.0185
 9193TIP3   OH251773   2.704   1.591  12.029  0.6512 -0.0379 -0.7711
 9193TIP3    H151774   2.688   1.590  12.124 -2.4203 -0.7736 -1.1931
 9193TIP3    H251775   2.778   1.531  12.017  0.2132 -1.0365  1.0547
 9194TIP3   OH251776   0.059   4.220   9.967  0.0203 -0.3550 -0.5030
 9194TIP3    H151777   0.060   4.265  10.051  1.0332 -0.3265 -0.5176
 9194TIP3    H251778  -0.029   4.233   9.933 -0.8326 -1.4836  1.1515
 9195TIP3   OH251779   5.129   6.620   9.464  0.1514  0.0426  0.2129
 9195TIP3    H151780   5.078   6.615   9.384 -0.2566 -3.4491  0.5583
 9195TIP3    H251781   5.218   6.596   9.438  0.3075  0.1897  0.5928
 9196TIP3   OH251782   3.504   1.010  10.127  0.2694  0.1228  0.4312
 9196TIP3    H151783   3.419   0.970  10.143  0.6392 -2.4921 -2.9885
 9196TIP3    H251784   3.487   1.104  10.130 -2.9463 -0.2885 -0.7556
 9197TIP3   OH251785   5.475   2.175   9.387  0.4306 -0.0348  0.2188
 9197TIP3    H151786   5.500   2.203   9.475 -0.4895  1.0248  0.1714
 9197TIP3    H251787   5.440   2.254   9.346  0.6650 -0.5607 -1.0357
 9198TIP3   OH251788   4.639   1.866  11.865 -0.4371 -0.1504 -0.1586
 9198TIP3    H151789   4.620   1.773  11.882 -0.0205 -0.2656 -0.3199
 9198TIP3    H251790   4.598   1.884  11.781 -1.2390  0.0341  0.2653
 9199TIP3   OH251791   5.561   1.327   9.893  0.2604 -0.3108  0.3546
 9199TIP3    H151792   5.620   1.290   9.958 -0.8442 -1.0609  0.9535
 9199TIP3    H251793   5.505   1.388   9.942  0.2147  0.0388 -0.1174
 9200TIP3   OH251794   2.388   6.320  10.034 -0.7358  0.4360  0.6241
 9200TIP3    H151795   2.344   6.243  10.070 -2.4528  0.1835 -1.7483
 9200TIP3    H251796   2.353   6.393  10.085 -2.0640 -0.0304  0.4322
 9201TIP3   OH251797   0.983   0.144  11.635 -0.2831  0.2731 -0.6192
 9201TIP3    H151798   1.032   0.122  11.714 -0.8843 -2.2813 -0.8767
 9201TIP3    H251799   1.046   0.132  11.564 -0.8245 -1.5139 -0.8263
 9202TIP3   OH251800   5.230   3.527  11.571  0.0599 -0.0909 -0.1015
 9202TIP3    H151801   5.320   3.501  11.551  0.3746  0.4519  0.5763
 9202TIP3    H251802   5.183   3.444  11.578  0.7156 -0.4308  0.4822
 9203TIP3   OH251803   5.484   5.011  10.916  0.1014  0.2058 -0.1443
 9203TIP3    H151804   5.414   5.073  10.897 -0.0895  0.1822  0.4866
 9203TIP3    H251805   5.453   4.961  10.991  0.5035 -0.2643 -0.2864
 9204TIP3   OH251806   1.374   2.186   9.453  0.5090 -0.0676 -0.1855
 9204TIP3    H151807   1.318   2.232   9.391  0.4676  0.7582  0.4495
 9204TIP3    H251808   1.463   2.214   9.432  0.6083 -0.6783 -0.6062
 9205TIP3   OH251809   1.377   4.824  10.647  0.3251 -0.0654  0.3341
 9205TIP3    H151810   1.334   4.865  10.572  0.1605 -1.7696 -0.5527
 9205TIP3    H251811   1.319   4.843  10.721  1.0717  2.6117  0.3138
 9206TIP3   OH251812   1.853   5.439  10.546 -0.5131 -0.4683 -0.8188
 9206TIP3    H151813   1.773   5.428  10.597 -1.6920  1.6334 -2.0258
 9206TIP3    H251814   1.836   5.517  10.493  2.8632  0.8339 -0.1930
 9207TIP3   OH251815   2.709   1.234  12.006  0.6934 -0.2526 -0.2318
 9207TIP3    H151816   2.628   1.277  11.981  0.6489  0.2757  0.7706
 9207TIP3    H251817   2.777   1.300  11.988  0.9027 -0.6539 -0.9671
 9208TIP3   OH251818   5.667   1.629  11.746 -0.7488 -0.0856 -0.5811
 9208TIP3    H151819   5.590   1.664  11.790  0.0292  1.1169 -0.0893
 9208TIP3    H251820   5.709   1.706  11.707 -1.6384 -1.1466 -3.9270
 9209TIP3   OH251821   1.550   4.352   9.862 -0.2726 -0.2107  0.0225
 9209TIP3    H151822   1.633   4.396   9.881 -0.0187 -0.3867 -0.6374
 9209TIP3    H251823   1.575   4.275   9.811 -0.8919  0.1557 -0.8789
 9210TIP3   OH251824   2.051   5.537  11.078  0.8669 -0.3382  0.2214
 9210TIP3    H151825   2.111   5.595  11.124 -0.4471  1.6897 -0.4779
 9210TIP3    H251826   2.070   5.551  10.985  0.7415 -1.2844  0.0413
 9211TIP3   OH251827   4.449   0.988  10.057 -0.4205 -0.2219  0.1163
 9211TIP3    H151828   4.497   0.911  10.085 -1.7974 -1.7406 -1.4676
 9211TIP3    H251829   4.496   1.019   9.979 -0.4810 -0.1013  0.1262
 9212TIP3   OH251830   0.339   2.229  11.019  0.0192  0.0340 -0.2830
 9212TIP3    H151831   0.338   2.294  11.090  1.7172 -0.2230  0.0072
 9212TIP3    H251832   0.412   2.171  11.040  0.5858 -0.0403 -2.2418
 9213TIP3   OH251833   1.643   1.853   9.982 -0.2902  0.4431 -0.2360
 9213TIP3    H151834   1.624   1.771   9.937  1.4588  0.5873 -1.3175
 9213TIP3    H251835   1.561   1.902   9.979 -0.7697 -0.3996 -1.4612
 9214TIP3   OH251836   5.165   3.605   8.843 -0.3500 -0.4924 -0.7599
 9214TIP3    H151837   5.180   3.536   8.778  0.7517 -1.2134  0.2225
 9214TIP3    H251838   5.253   3.628   8.873 -0.8445 -0.1464  0.4440
 9215TIP3   OH251839   5.047   4.649  10.285 -0.1984 -0.4259 -0.1920
 9215TIP3    H151840   5.023   4.586  10.217 -0.9462 -1.2104  0.7598
 9215TIP3    H251841   5.143   4.652  10.283 -0.1592  2.4825 -3.8180
 9216TIP3   OH251842   4.608   3.703   8.804  0.2480  0.2230  0.2332
 9216TIP3    H151843   4.513   3.708   8.807  0.0403 -1.0984 -1.8618
 9216TIP3    H251844   4.628   3.613   8.833  0.9530  0.7665  1.5129
 9217TIP3   OH251845   2.645   5.545   9.973 -0.0245 -0.8585 -0.2913
 9217TIP3    H151846   2.712   5.600   9.932  0.8128 -2.1132 -0.6599
 9217TIP3    H251847   2.570   5.604   9.986  1.8193  1.1406  2.0312
 9218TIP3   OH251848   2.537   1.527  11.834 -0.5665 -0.3350  0.2483
 9218TIP3    H151849   2.589   1.548  11.911 -2.2928 -0.1042  1.4022
 9218TIP3    H251850   2.490   1.447  11.857 -1.4543 -0.0185 -0.3713
 9219TIP3   OH251851   4.739   2.496  11.113 -0.2376 -0.4387 -0.4081
 9219TIP3    H151852   4.792   2.481  11.035  1.3431  2.7217 -0.1051
 9219TIP3    H251853   4.802   2.512  11.183 -1.5645  1.3358  0.4622
 9220TIP3   OH251854   3.781   4.541  12.671 -0.2288 -0.2320  0.1999
 9220TIP3    H151855   3.838   4.596  12.726 -0.3346 -0.1919  0.2719
 9220TIP3    H251856   3.829   4.460  12.660  1.0540  0.7383 -1.9565
 9221TIP3   OH251857   3.331   3.622   9.370  0.5730 -0.0994 -0.0026
 9221TIP3    H151858   3.285   3.559   9.425  0.5187  0.0271  0.0955
 9221TIP3    H251859   3.413   3.578   9.347  0.8256  0.0514  0.5986
 9222TIP3   OH251860   0.437   4.475  12.084 -0.5243 -0.2686 -0.5252
 9222TIP3    H151861   0.529   4.471  12.109 -0.4381  0.6517 -0.6672
 9222TIP3    H251862   0.433   4.435  11.997  0.3636  2.7498 -2.1037
 9223TIP3   OH251863   1.200   5.545   8.520  0.4678  0.0725 -0.2157
 9223TIP3    H151864   1.186   5.531   8.426 -0.3241  0.2641 -0.1302
 9223TIP3    H251865   1.293   5.567   8.527  0.1905  1.7611 -1.1740
 9224TIP3   OH251866   2.681   5.369   8.598  0.6507  0.2989  0.0323
 9224TIP3    H151867   2.727   5.438   8.551  1.6699 -0.6354 -0.3993
 9224TIP3    H251868   2.602   5.411   8.632  0.8741  1.4781 -0.8403
 9225TIP3   OH251869   0.940   6.260   8.636  0.6231 -0.0645  0.3488
 9225TIP3    H151870   0.912   6.233   8.723 -0.1508  0.8142  0.3937
 9225TIP3    H251871   0.977   6.181   8.597 -2.6631 -1.6155  0.0029
 9226TIP3   OH251872   3.103   6.463  11.971 -0.4370  0.1984  0.2547
 9226TIP3    H151873   3.047   6.525  12.019 -0.3430 -0.2256  0.9191
 9226TIP3    H251874   3.187   6.466  12.016 -0.2567  0.0124 -0.0662
 9227TIP3   OH251875   4.919   6.396  10.759  0.1731  0.3171 -0.4315
 9227TIP3    H151876   4.975   6.320  10.778  2.6231  2.1350  0.0054
 9227TIP3    H251877   4.856   6.363  10.694  1.6822 -1.8528 -0.9203
 9228TIP3   OH251878   4.050   1.461   9.160  0.0057 -0.0342 -0.4068
 9228TIP3    H151879   4.065   1.555   9.171  1.3679 -0.4343  1.5367
 9228TIP3    H251880   4.129   1.429   9.116  0.3214 -0.5330  0.5037
 9229TIP3   OH251881   4.710   3.933  12.326  0.4235 -0.4204 -0.3206
 9229TIP3    H151882   4.700   3.862  12.390 -1.1516 -0.0374 -0.0874
 9229TIP3    H251883   4.712   3.888  12.242 -0.6735 -0.7733 -0.1842
 9230TIP3   OH251884   1.764   6.583  11.249  0.2618  0.0964  0.0231
 9230TIP3    H151885   1.773   6.642  11.174 -1.9986  1.4535  0.6975
 9230TIP3    H251886   1.715   6.508  11.215  2.3061 -0.9960 -0.6165
 9231TIP3   OH251887   0.780   6.009  11.877 -0.4588 -0.2239  0.1723
 9231TIP3    H151888   0.794   5.986  11.969  1.8731  0.5412  0.0597
 9231TIP3    H251889   0.730   6.090  11.880 -1.3211 -0.7620  0.7299
 9232TIP3   OH251890   5.074   3.877   9.403 -0.0179  0.2164  0.5472
 9232TIP3    H151891   5.170   3.881   9.406 -0.0378  0.6987  0.6469
 9232TIP3    H251892   5.050   3.935   9.331 -0.1957 -0.6326 -0.0857
 9233TIP3   OH251893   2.003   5.319   9.248  0.0509 -0.6907 -0.0673
 9233TIP3    H151894   2.042   5.318   9.160  1.1122 -0.8162  0.3840
 9233TIP3    H251895   2.030   5.403   9.285  0.3925 -1.0221  0.4594
 9234TIP3   OH251896   3.414   4.360  11.002  0.6436  0.7036 -0.0168
 9234TIP3    H151897   3.406   4.284  10.944  0.6121 -0.4217  1.4100
 9234TIP3    H251898   3.505   4.389  10.992  1.0830 -0.4459  0.4996
 9235TIP3   OH251899   3.006   6.104   9.745  0.6259 -0.2551 -0.0327
 9235TIP3    H151900   3.032   6.193   9.768 -1.8285  0.8926 -1.3063
 9235TIP3    H251901   2.982   6.109   9.653  0.5121 -2.2748 -0.1605
 9236TIP3   OH251902   4.135   1.125  10.588 -0.0751  0.0804 -0.3421
 9236TIP3    H151903   4.210   1.074  10.556 -1.0164 -0.7167 -1.3680
 9236TIP3    H251904   4.095   1.070  10.655  0.2354  0.5044  0.2032
 9237TIP3   OH251905   6.259   5.452  11.845  0.2664  0.6313  0.0100
 9237TIP3    H151906   6.191   5.517  11.866 -0.6250  0.2430 -1.4927
 9237TIP3    H251907   6.318   5.454  11.920  0.0652  2.9121  0.1704
 9238TIP3   OH251908   4.551   1.117  11.562  0.2516  0.8237 -0.0133
 9238TIP3    H151909   4.503   1.111  11.480 -1.8051  1.1931  1.0887
 9238TIP3    H251910   4.543   1.209  11.587 -0.0683  0.5008  1.1135
 9239TIP3   OH251911   2.774   3.813  10.451  0.3835 -0.0569  0.0281
 9239TIP3    H151912   2.722   3.804  10.531  0.7510 -0.1870  0.2554
 9239TIP3    H251913   2.734   3.886  10.404 -0.8060 -0.9698 -0.4250
 9240TIP3   OH251914   5.756   1.177   9.379 -0.1775  0.5335  0.7392
 9240TIP3    H151915   5.840   1.172   9.424  0.8757  0.6744 -1.0937
 9240TIP3    H251916   5.691   1.173   9.448  1.3442  0.7811  2.2460
 9241TIP3   OH251917   1.471   6.517  12.317 -0.5742  0.2044  0.3250
 9241TIP3    H151918   1.526   6.456  12.365  0.3017  0.5484 -0.2070
 9241TIP3    H251919   1.521   6.599  12.317  0.8527 -0.4434 -3.4774
 9242TIP3   OH251920   3.402   4.079   8.644  0.1973  0.0790 -0.3591
 9242TIP3    H151921   3.342   4.152   8.659 -0.2716 -0.2093 -0.7907
 9242TIP3    H251922   3.384   4.019   8.717  1.4230  0.9124  0.6719
 9243TIP3   OH251923   3.404   4.086  10.854 -0.0910 -0.2181  0.1146
 9243TIP3    H151924   3.357   4.040  10.784 -0.3277  1.2272 -0.7216
 9243TIP3    H251925   3.491   4.103  10.817  0.3815 -0.9698  0.8460
 9244TIP3   OH251926   1.412   5.066   9.610  0.5218 -0.2634  0.1889
 9244TIP3    H151927   1.372   5.151   9.627  1.5657  0.3553 -0.3419
 9244TIP3    H251928   1.487   5.062   9.670 -0.6213 -1.6651  1.6113
 9245TIP3   OH251929   5.744   0.406  12.741  0.1145  0.1059  0.5485
 9245TIP3    H151930   5.834   0.376  12.753 -0.2447 -0.4683  1.9968
 9245TIP3    H251931   5.719   0.375  12.654  1.5775  0.9829 -0.2075
 9246TIP3   OH251932   1.387   1.589   8.933  0.7153  0.2876  0.4687
 9246TIP3    H151933   1.387   1.495   8.916  0.2923  0.3531  0.0870
 9246TIP3    H251934   1.449   1.625   8.871  1.2874  0.2019  0.9824
 9247TIP3   OH251935   1.194   5.649  10.557  0.3692  0.2499  0.2299
 9247TIP3    H151936   1.289   5.649  10.559  0.4471  3.3616  2.4771
 9247TIP3    H251937   1.171   5.696  10.477  0.6776 -0.4344 -0.2716
 9248TIP3   OH251938   2.102   4.875   9.678 -0.0530  0.1080 -0.4220
 9248TIP3    H151939   2.091   4.953   9.732  2.2231  0.0922  0.1650
 9248TIP3    H251940   2.030   4.817   9.704  0.5879  0.3643  2.1552
 9249TIP3   OH251941   4.517   0.324  11.711 -0.6548  0.2615 -0.0994
 9249TIP3    H151942   4.570   0.295  11.786 -1.2807 -0.9298 -0.0842
 9249TIP3    H251943   4.530   0.255  11.645 -2.7026 -0.4622  0.1701
 9250TIP3   OH251944   6.239   6.203   9.842  0.5950  0.2589 -0.4204
 9250TIP3    H151945   6.281   6.127   9.801 -0.0670 -0.8879  0.9376
 9250TIP3    H251946   6.149   6.175   9.859  0.1233  1.6179 -0.5187
 9251TIP3   OH251947   1.702   6.092  11.851 -0.1396  0.8770 -0.3711
 9251TIP3    H151948   1.637   6.033  11.890  0.8370  0.2821  0.4197
 9251TIP3    H251949   1.670   6.180  11.872 -0.0377  0.5805  1.1505
 9252TIP3   OH251950   1.372   0.921  10.487 -0.4646 -0.5064 -0.1210
 9252TIP3    H151951   1.449   0.909  10.542  0.5765 -0.1191 -1.4266
 9252TIP3    H251952   1.316   0.979  10.538  1.2659  1.3299 -0.1542
 9253TIP3   OH251953   4.116   1.998   9.138 -0.2616 -0.2053 -0.3643
 9253TIP3    H151954   4.024   1.976   9.125 -0.7692  1.8840 -0.7054
 9253TIP3    H251955   4.115   2.068   9.203  1.2297 -1.1476  0.7531
 9254TIP3   OH251956   0.001   2.477   9.225  0.6951 -0.3301 -0.2811
 9254TIP3    H151957   0.062   2.462   9.153  0.2970 -2.7493 -0.2045
 9254TIP3    H251958   0.000   2.395   9.273  0.7984  1.1394  2.4214
 9255TIP3   OH251959   4.462   4.903  11.882  0.3539  0.3680 -0.5957
 9255TIP3    H151960   4.452   4.930  11.791 -1.6526 -0.5091 -0.6847
 9255TIP3    H251961   4.509   4.820  11.877 -0.4607 -0.0791 -0.9001
 9256TIP3   OH251962   0.727   3.406  11.467 -0.2851 -0.0673  0.1988
 9256TIP3    H151963   0.663   3.368  11.407 -0.4139 -1.3796  1.1317
 9256TIP3    H251964   0.677   3.424  11.547  0.2104  0.2400  0.4473
 9257TIP3   OH251965   0.910   5.922  11.549  0.0751  0.0666 -0.1234
 9257TIP3    H151966   0.873   5.864  11.615 -0.8927  0.8247  0.0164
 9257TIP3    H251967   0.857   5.905  11.470  1.4400 -1.0910 -0.8483
 9258TIP3   OH251968   2.169   2.837  11.675  0.2610  0.1242  0.8928
 9258TIP3    H151969   2.188   2.747  11.702 -1.2608 -1.1418 -1.8397
 9258TIP3    H251970   2.089   2.860  11.723  0.9223  0.2319  1.9664
 9259TIP3   OH251971   4.242   0.506   9.640 -0.7278 -0.3341 -0.2523
 9259TIP3    H151972   4.315   0.459   9.682 -1.5240 -1.7594 -0.4315
 9259TIP3    H251973   4.218   0.573   9.704 -0.5934 -1.1731  0.7022
 9260TIP3   OH251974   4.765   6.547  10.217 -0.3434  0.4838 -0.6279
 9260TIP3    H151975   4.840   6.540  10.275  0.0704  2.2619 -0.9158
 9260TIP3    H251976   4.690   6.558  10.275 -0.4183 -1.2495 -0.3428
 9261TIP3   OH251977   0.526   5.269   8.573 -0.1491  0.0240  0.1957
 9261TIP3    H151978   0.576   5.192   8.600  0.4549 -0.2444 -1.5568
 9261TIP3    H251979   0.590   5.326   8.531 -0.8340  0.9221  0.3354
 9262TIP3   OH251980   3.361   4.315   9.032  0.0516  0.3035 -0.1532
 9262TIP3    H151981   3.425   4.248   9.010  0.6444  1.4768 -2.2946
 9262TIP3    H251982   3.281   4.267   9.051 -0.3182 -1.0623 -4.2033
 9263TIP3   OH251983   5.438   3.322   8.851  0.3611 -0.2508 -0.5234
 9263TIP3    H151984   5.478   3.323   8.938 -1.5352 -2.9721  0.5288
 9263TIP3    H251985   5.507   3.353   8.792  2.0409  0.6837  1.8071
 9264TIP3   OH251986   0.778   4.377   8.876 -0.1548  0.1673  0.4037
 9264TIP3    H151987   0.823   4.456   8.844 -0.9448  0.3538 -0.2745
 9264TIP3    H251988   0.686   4.404   8.885 -0.3892 -0.6105  0.3980
 9265TIP3   OH251989   4.167   0.407   9.137  0.3653 -0.2227  0.2182
 9265TIP3    H151990   4.153   0.482   9.079 -0.9593 -0.6821 -0.0917
 9265TIP3    H251991   4.261   0.410   9.157  1.1157 -0.6607 -2.7993
 9266TIP3   OH251992   5.633   0.316   8.882 -0.7495 -0.1315  0.7231
 9266TIP3    H151993   5.592   0.237   8.917 -0.8043 -0.8049 -0.7929
 9266TIP3    H251994   5.583   0.336   8.803 -0.0632  0.8235  0.5146
 9267TIP3   OH251995   3.903   2.906  10.874  0.2310  0.4273 -0.0607
 9267TIP3    H151996   3.891   2.824  10.923  0.5669  1.2360  1.4097
 9267TIP3    H251997   3.987   2.894  10.829 -0.2693 -0.4820 -0.7836
 9268TIP3   OH251998   0.501   4.604  10.377 -0.1067 -0.1029 -0.3062
 9268TIP3    H151999   0.569   4.541  10.399  0.5559  1.1267  1.3206
 9268TIP3    H252000   0.455   4.620  10.459 -0.1189  1.6665 -0.6180
 9269TIP3   OH252001   3.275   0.405  10.395 -0.3943  0.3640 -0.0882
 9269TIP3    H152002   3.282   0.313  10.422 -1.8291  0.0911 -0.5723
 9269TIP3    H252003   3.274   0.402  10.299 -1.8664  0.7370 -0.1073
 9270TIP3   OH252004   2.355   5.110  11.964 -0.0476  0.0728 -0.3617
 9270TIP3    H152005   2.372   5.034  11.908 -0.5867  1.1505 -2.0336
 9270TIP3    H252006   2.309   5.073  12.040 -0.2632 -1.2831 -1.1205
 9271TIP3   OH252007   2.488   2.201  10.076 -0.0772  0.2448  0.1709
 9271TIP3    H152008   2.394   2.210  10.061  0.3373  1.9948 -1.8854
 9271TIP3    H252009   2.519   2.291  10.087  1.6324 -0.1201 -1.2607
 9272TIP3   OH252010   2.294   3.359  10.789 -0.0547  0.0959 -0.0133
 9272TIP3    H152011   2.340   3.277  10.808 -0.6252 -0.4009 -0.6705
 9272TIP3    H252012   2.206   3.347  10.826  0.2215  0.9002  0.9432
 9273TIP3   OH252013   1.961   2.271   9.494 -0.1162 -0.5475 -0.2470
 9273TIP3    H152014   1.916   2.197   9.534 -0.1603  0.3071  1.3406
 9273TIP3    H252015   2.044   2.277   9.540  0.2908 -0.1671 -1.0053
 9274TIP3   OH252016   2.642   4.434  10.604  0.0038 -0.1578 -0.8982
 9274TIP3    H152017   2.671   4.419  10.514  1.5180 -1.3377 -0.2667
 9274TIP3    H252018   2.720   4.466  10.650 -0.2212 -1.3267  0.3778
 9275TIP3   OH252019   1.307   6.350  10.398  0.3918 -0.1133  0.0146
 9275TIP3    H152020   1.302   6.283  10.330  0.3866 -1.7108  1.5052
 9275TIP3    H252021   1.215   6.372  10.416  0.4105  0.7588 -0.8761
 9276TIP3   OH252022   5.852   4.541   9.019  0.3420 -0.5447  0.0020
 9276TIP3    H152023   5.773   4.524   9.070 -0.1294 -0.6054 -0.7345
 9276TIP3    H252024   5.885   4.624   9.054 -0.7927  0.1823 -0.5671
 9277TIP3   OH252025   5.757   3.830   9.953 -0.0714  0.1486 -0.1371
 9277TIP3    H152026   5.755   3.916   9.911 -1.1686 -0.2485 -0.9478
 9277TIP3    H252027   5.755   3.767   9.881 -0.6833 -0.5517  0.4615
 9278TIP3   OH252028   2.633   6.067   9.448 -0.6320  0.2219  0.3127
 9278TIP3    H152029   2.651   6.022   9.366  0.8121 -1.3984  1.4358
 9278TIP3    H252030   2.607   6.156   9.422 -2.4117 -0.8527 -1.9398
 9279TIP3   OH252031   1.867   5.752   8.875  0.1897  0.1284 -0.4529
 9279TIP3    H152032   1.944   5.764   8.820  0.3572  2.2126  0.1399
 9279TIP3    H252033   1.852   5.838   8.915 -1.9863 -0.4151  0.0514
 9280TIP3   OH252034   6.698   3.747   8.534 -0.1545  0.3935 -0.7466
 9280TIP3    H152035   6.656   3.830   8.515 -1.3000 -0.2746 -1.2392
 9280TIP3    H252036   6.679   3.732   8.627 -1.0529  0.0974 -0.9629
 9281TIP3   OH252037   6.036   2.778  10.788  0.0299 -1.0391 -0.1649
 9281TIP3    H152038   5.959   2.823  10.753  0.0658 -1.5842 -0.9819
 9281TIP3    H252039   6.090   2.848  10.825  0.0675 -0.4092 -1.3729
 9282TIP3   OH252040   0.011   5.304  10.598  0.0157 -0.5606 -0.1992
 9282TIP3    H152041  -0.038   5.221  10.602  0.3678 -0.8307 -1.1989
 9282TIP3    H252042   0.080   5.288  10.533  0.8928  0.1046  0.5479
 9283TIP3   OH252043   0.731   6.405   8.548  0.1349  0.0650  0.3906
 9283TIP3    H152044   0.787   6.344   8.596 -0.8935 -1.3945 -0.1938
 9283TIP3    H252045   0.790   6.449   8.487  0.9615 -0.0847  1.0617
 9284TIP3   OH252046   5.478   6.558  10.644  0.3768 -0.2360  0.2216
 9284TIP3    H152047   5.444   6.493  10.705 -0.0883 -0.4613 -0.2615
 9284TIP3    H252048   5.412   6.627  10.643  1.2427  0.6406  1.3285
 9285TIP3   OH252049   3.159   5.360  10.192 -0.1977  0.5463  0.1983
 9285TIP3    H152050   3.174   5.267  10.207 -3.6590 -0.5253 -1.9299
 9285TIP3    H252051   3.232   5.388  10.136  0.8663 -0.8398  0.8462
 9286TIP3   OH252052   3.079   3.268   9.625  0.7652 -0.0622  0.0398
 9286TIP3    H152053   3.163   3.314   9.617  1.4295 -1.2411 -0.0594
 9286TIP3    H252054   3.074   3.215   9.546 -0.1412  0.0896 -0.0081
 9287TIP3   OH252055   5.868   2.302  10.198 -0.3987 -0.2514 -0.4955
 9287TIP3    H152056   5.886   2.275  10.108 -0.4178 -1.5186 -0.1338
 9287TIP3    H252057   5.825   2.227  10.238  1.5700 -0.5574  1.2136
 9288TIP3   OH252058   2.993   2.049  11.363  0.4408 -0.0890 -0.0105
 9288TIP3    H152059   2.942   2.033  11.442 -0.2739  0.3427 -0.3801
 9288TIP3    H252060   2.933   2.093  11.303  0.8695 -0.7090 -0.9244
 9289TIP3   OH252061   5.179   5.239  11.131  0.0458 -0.1047  0.0330
 9289TIP3    H152062   5.083   5.231  11.126  0.1927 -1.7327 -0.8254
 9289TIP3    H252063   5.208   5.156  11.168  1.1377  0.3368  0.1974
 9290TIP3   OH252064   3.787   5.942  11.396  0.8127 -0.2768  0.2779
 9290TIP3    H152065   3.769   5.867  11.453 -0.6985  0.4643  0.8030
 9290TIP3    H252066   3.855   5.909  11.336  1.6357 -1.4224  1.7479
 9291TIP3   OH252067   1.892   0.347   8.923 -0.0779 -0.7467 -0.1081
 9291TIP3    H152068   1.922   0.404   8.851  2.8783 -1.3506  0.5234
 9291TIP3    H252069   1.933   0.262   8.905 -0.4344 -1.2988  1.5460
 9292TIP3   OH252070   3.682   6.297   9.743 -0.0746  0.6479  0.2453
 9292TIP3    H152071   3.717   6.387   9.747 -1.5117  1.2890 -0.7499
 9292TIP3    H252072   3.692   6.264   9.832  0.0011  2.0055  0.7661
 9293TIP3   OH252073   6.411   0.496  11.141 -0.2565  0.5630 -0.1267
 9293TIP3    H152074   6.360   0.416  11.148  0.0879  0.4295  1.1586
 9293TIP3    H252075   6.445   0.496  11.052 -0.7937 -0.3949 -0.3361
 9294TIP3   OH252076   0.771   2.206   9.384 -0.1354 -0.2322 -0.5683
 9294TIP3    H152077   0.787   2.113   9.402 -2.0670 -0.1055  2.3678
 9294TIP3    H252078   0.793   2.251   9.465  0.5216  1.9127 -1.8531
 9295TIP3   OH252079   5.274   5.049  11.346 -0.1118  0.0559  0.3126
 9295TIP3    H152080   5.303   5.123  11.400 -1.2270  1.2105 -0.6170
 9295TIP3    H252081   5.239   4.986  11.408  1.4717 -0.0289  1.1860
 9296TIP3   OH252082   3.714   6.173  11.510 -0.7742  0.3031  0.2666
 9296TIP3    H152083   3.709   6.107  11.441  0.6268  0.7712 -0.3244
 9296TIP3    H252084   3.636   6.158  11.564 -1.3518 -0.7335 -0.8172
 9297TIP3   OH252085   5.673   5.753  11.519  0.3207 -0.2229  0.3862
 9297TIP3    H152086   5.619   5.830  11.501  1.0844  0.3250  0.3640
 9297TIP3    H252087   5.639   5.717  11.600  0.4911  0.6493  0.8544
 9298TIP3   OH252088   3.908   4.351   9.863 -0.2656 -0.0484 -0.3183
 9298TIP3    H152089   3.912   4.261   9.828 -0.9020 -0.1348 -0.1920
 9298TIP3    H252090   3.820   4.357   9.900  0.2099  0.2290  0.7936
 9299TIP3   OH252091   3.006   3.905   9.352  0.0610  0.1170 -0.0894
 9299TIP3    H152092   3.099   3.893   9.334  0.2857 -0.2199  1.2030
 9299TIP3    H252093   2.981   3.828   9.402 -0.8559  0.3491 -0.1593
 9300TIP3   OH252094   3.977   3.893  10.027  0.0058 -0.5384  0.3501
 9300TIP3    H152095   4.017   3.813  10.061 -0.2921 -0.5476  0.6891
 9300TIP3    H252096   3.883   3.875  10.029 -0.0148 -0.5287 -0.4690
 9301TIP3   OH252097   4.331   5.582  10.622 -0.1676  0.4561  0.1712
 9301TIP3    H152098   4.315   5.648  10.555 -0.3140  0.1701 -0.0777
 9301TIP3    H252099   4.413   5.609  10.663 -0.3902  0.9723  0.2904
 9302TIP3   OH252100   5.457   1.952  10.611  0.4926 -0.9369 -0.0586
 9302TIP3    H152101   5.489   2.033  10.572 -2.3605  0.8567  0.9340
 9302TIP3    H252102   5.439   1.894  10.537 -2.1739  1.3246 -1.3493
 9303TIP3   OH252103   0.647   1.445   9.462 -0.8966 -0.5526 -0.0717
 9303TIP3    H152104   0.687   1.382   9.521  1.1741  2.1873  1.6948
 9303TIP3    H252105   0.555   1.418   9.458 -0.1541 -3.6143  0.5048
 9304TIP3   OH252106   5.241   6.097   9.157 -0.3396  0.2507 -0.2718
 9304TIP3    H152107   5.296   6.095   9.079 -0.2025  0.9375 -0.1991
 9304TIP3    H252108   5.297   6.133   9.225 -1.0346  1.5265 -0.3410
 9305TIP3   OH252109   4.109   0.764  11.208 -0.4522  0.0044 -1.0474
 9305TIP3    H152110   4.136   0.677  11.236  0.9822  0.4685 -0.9262
 9305TIP3    H252111   4.018   0.752  11.179 -0.4456 -1.4187 -0.5776
 9306TIP3   OH252112   3.047   0.837  12.016  0.0545 -0.0119 -0.3246
 9306TIP3    H152113   3.007   0.766  12.066 -0.5488  0.7560  0.2893
 9306TIP3    H252114   2.975   0.894  11.991  0.3602 -0.2891 -1.9566
 9307TIP3   OH252115   0.756   6.637  11.189 -0.2126  0.3542 -0.2424
 9307TIP3    H152116   0.733   6.730  11.199 -1.8713  0.1334 -1.4599
 9307TIP3    H252117   0.734   6.598  11.273 -0.7054  0.8663 -0.1249
 9308TIP3   OH252118   1.137   1.703  10.694  0.0584 -0.0523 -0.1494
 9308TIP3    H152119   1.047   1.694  10.725 -0.0972 -0.1556 -0.6290
 9308TIP3    H252120   1.135   1.672  10.604  0.7441 -0.8446  0.0979
 9309TIP3   OH252121   4.277   1.683  10.686 -0.1256  0.0034 -0.3965
 9309TIP3    H152122   4.208   1.618  10.681 -0.9414  0.8986 -1.0843
 9309TIP3    H252123   4.246   1.748  10.749 -0.0384  0.5393 -0.8913
 9310TIP3   OH252124   1.377   0.678   9.097 -0.0477 -0.1922 -0.4717
 9310TIP3    H152125   1.335   0.642   9.175  1.7129 -0.3331  0.4797
 9310TIP3    H252126   1.310   0.673   9.029 -1.7275  0.1633  1.0673
 9311TIP3   OH252127   1.906   3.923  12.133  0.3647  0.2145 -0.5665
 9311TIP3    H152128   1.870   3.835  12.137  0.6900  0.1021  0.2137
 9311TIP3    H252129   1.884   3.962  12.218 -0.0121  0.9840 -1.0062
 9312TIP3   OH252130   2.728   0.743   9.104 -0.1953  0.0664  0.0845
 9312TIP3    H152131   2.813   0.701   9.116 -1.0296 -1.4535  1.0576
 9312TIP3    H252132   2.732   0.822   9.158  0.8187  0.3626 -0.4130
 9313TIP3   OH252133   0.887   1.380  11.392  0.4075  0.2138  0.1329
 9313TIP3    H152134   0.798   1.363  11.361  0.7718 -0.8425 -0.3783
 9313TIP3    H252135   0.928   1.294  11.395  0.7637  0.3925  2.4330
 9314TIP3   OH252136   1.701   2.281   9.804 -0.0058  0.2010 -0.1401
 9314TIP3    H152137   1.728   2.371   9.786  0.0338 -0.0228 -1.3198
 9314TIP3    H252138   1.607   2.286   9.816  0.0390  0.4453  0.1158
 9315TIP3   OH252139   2.225   1.489  11.070  0.4677  0.5392  0.4348
 9315TIP3    H152140   2.174   1.411  11.051  1.8157 -0.2981  0.0636
 9315TIP3    H252141   2.186   1.526  11.150 -0.6593 -0.0754  0.1768
 9316TIP3   OH252142   2.640   6.055   9.728  0.3451 -0.1271 -0.3163
 9316TIP3    H152143   2.693   6.128   9.759 -0.3562  0.8808 -1.3879
 9316TIP3    H252144   2.649   6.058   9.633 -2.0767  0.5008 -0.5944
 9317TIP3   OH252145   5.478   4.416  10.695 -0.3459  0.1682  0.1512
 9317TIP3    H152146   5.494   4.350  10.762 -0.0636 -1.8837 -1.8347
 9317TIP3    H252147   5.401   4.385  10.648 -0.7721  1.7734 -0.2874
 9318TIP3   OH252148   4.286   0.541  11.646  0.1716  0.2549  0.3431
 9318TIP3    H152149   4.348   0.531  11.719  2.5594  2.3478 -1.2226
 9318TIP3    H252150   4.298   0.462  11.593  0.8822  0.2212  0.5398
 9319TIP3   OH252151   4.228   5.297  10.323 -0.1264 -0.6567  0.0186
 9319TIP3    H152152   4.300   5.259  10.374 -0.1057 -1.8167 -0.8276
 9319TIP3    H252153   4.167   5.330  10.389  1.9125  1.9381  0.7912
 9320TIP3   OH252154   1.892   1.552  12.181  0.0861  0.3474 -0.4481
 9320TIP3    H152155   1.891   1.531  12.274  0.4461 -0.2628 -0.5793
 9320TIP3    H252156   1.833   1.627  12.173 -1.1813 -0.5591  0.0410
 9321TIP3   OH252157   0.410   2.937   8.883  0.0390 -0.1880  0.4130
 9321TIP3    H152158   0.326   2.915   8.923 -0.5811 -0.7966 -1.1355
 9321TIP3    H252159   0.470   2.869   8.913 -0.4488 -0.7239  0.1867
 9322TIP3   OH252160   1.505   5.487   8.938 -0.2603 -0.1199  0.1663
 9322TIP3    H152161   1.597   5.471   8.958  0.4483  1.5113 -1.4663
 9322TIP3    H252162   1.486   5.572   8.978 -1.6075 -1.2211  1.9851
 9323TIP3   OH252163   1.503   2.583   9.360 -0.4833 -0.4273  0.3655
 9323TIP3    H152164   1.583   2.604   9.408 -0.7262 -1.3267  1.1940
 9323TIP3    H252165   1.445   2.658   9.375 -0.2999 -0.3896  0.8932
 9324TIP3   OH252166   2.894   2.384   9.355 -0.0025  0.2589 -0.0863
 9324TIP3    H152167   2.929   2.340   9.433  0.4868 -1.1822 -1.0820
 9324TIP3    H252168   2.966   2.383   9.292 -0.5180  1.0574 -0.7127
 9325TIP3   OH252169   4.975   1.692  10.813 -0.0737  0.0825  0.0545
 9325TIP3    H152170   4.896   1.677  10.866 -0.6718 -0.9046 -1.0516
 9325TIP3    H252171   4.962   1.637  10.736  2.5351 -1.5518  0.6489
 9326TIP3   OH252172   4.083   4.751   9.191  0.7419  0.0881 -0.5739
 9326TIP3    H152173   4.126   4.814   9.133 -0.0719  0.5474 -0.7011
 9326TIP3    H252174   4.135   4.753   9.272  0.7880  0.8565 -0.6105
 9327TIP3   OH252175   5.638   2.294   8.945  0.0351  0.4111  0.1964
 9327TIP3    H152176   5.705   2.346   8.989  2.0752 -0.3205 -1.8191
 9327TIP3    H252177   5.681   2.263   8.865 -2.6048 -0.4819 -0.9878
 9328TIP3   OH252178   4.160   4.003   9.171  0.8274 -0.3231 -0.3643
 9328TIP3    H152179   4.126   3.995   9.082  0.3496 -1.2789 -0.1143
 9328TIP3    H252180   4.188   4.094   9.178  2.6108 -0.6694 -2.0970
 9329TIP3   OH252181   6.040   3.683  10.410  0.3254  0.0360 -0.0844
 9329TIP3    H152182   6.031   3.737  10.331  2.4224  1.5089  0.6036
 9329TIP3    H252183   6.088   3.605  10.382 -1.4044 -0.8393 -0.7756
 9330TIP3   OH252184   1.960   0.138  11.287  0.0774  0.2808  0.1120
 9330TIP3    H152185   1.873   0.169  11.312 -0.9368 -1.3406 -1.2562
 9330TIP3    H252186   1.950   0.108  11.197  1.4144 -2.2560  0.7285
 9331TIP3   OH252187   2.518   2.118   8.941 -0.6825 -0.1549  0.1702
 9331TIP3    H152188   2.562   2.034   8.957  0.2531  0.2144 -0.3534
 9331TIP3    H252189   2.503   2.119   8.846 -0.3205  0.4420  0.1153
 9332TIP3   OH252190   4.801   1.368   8.852 -0.1962 -0.3438  0.2872
 9332TIP3    H152191   4.724   1.376   8.796  0.3366 -1.6946 -0.6900
 9332TIP3    H252192   4.783   1.291   8.906  0.0184 -0.0278  0.8180
 9333TIP3   OH252193   1.746   1.682   9.308 -0.4390  0.1576 -0.3199
 9333TIP3    H152194   1.684   1.609   9.307 -0.3436  0.0134  1.2387
 9333TIP3    H252195   1.692   1.760   9.317 -0.4319  0.0202  1.2094
 9334TIP3   OH252196   5.738   6.676   9.340 -0.3331 -0.3668  0.3417
 9334TIP3    H152197   5.827   6.642   9.345 -0.3102 -0.4127 -0.2805
 9334TIP3    H252198   5.685   6.612   9.388  0.3154  1.0435  3.1880
 9335TIP3   OH252199   6.406   3.170  11.433 -0.2959  0.2015  0.1054
 9335TIP3    H152200   6.385   3.078  11.451 -1.7873  0.2008 -1.4067
 9335TIP3    H252201   6.416   3.209  11.519  3.5077 -1.9486  0.9118
 9336TIP3   OH252202   1.420   4.820   9.066  0.0205  0.2482  0.1468
 9336TIP3    H152203   1.361   4.809   8.991  1.0741  0.8950 -0.8119
 9336TIP3    H252204   1.429   4.915   9.075 -1.3231  0.2531  2.1236
 9337TIP3   OH252205   6.430   5.635   9.756 -0.2264 -0.1126  0.3607
 9337TIP3    H152206   6.501   5.609   9.815  0.6723 -0.4883 -0.8586
 9337TIP3    H252207   6.352   5.637   9.813  0.2539 -2.2269  1.2162
 9338TIP3   OH252208   0.133   0.180   9.236  0.4680 -0.0742 -0.4245
 9338TIP3    H152209   0.198   0.131   9.185  0.4217  0.5190 -1.0681
 9338TIP3    H252210   0.183   0.253   9.273  0.2170  0.2563 -0.7363
 9339TIP3   OH252211   5.077   0.872   9.093  0.2562 -0.0528 -0.0319
 9339TIP3    H152212   5.007   0.832   9.143  0.2153  1.2683  0.9996
 9339TIP3    H252213   5.146   0.806   9.092  0.2057 -0.1701  1.6648
 9340TIP3   OH252214   0.513   1.273   8.818 -0.4014  0.4511  0.6942
 9340TIP3    H152215   0.595   1.268   8.767 -0.9458  0.1354 -0.1804
 9340TIP3    H252216   0.527   1.214   8.892  0.0132  0.0778  0.3244
 9341TIP3   OH252217   3.721   4.436  10.933 -0.0844 -0.0777 -0.2537
 9341TIP3    H152218   3.698   4.382  10.857 -0.4850  0.3770 -0.4690
 9341TIP3    H252219   3.815   4.423  10.945 -0.3164 -1.4431  0.2034
 9342TIP3   OH252220   2.881   1.902  10.910  0.1058  0.3241 -0.7210
 9342TIP3    H152221   2.917   1.827  10.958 -1.2923  2.3739  4.1375
 9342TIP3    H252222   2.958   1.948  10.877  1.4371 -0.1069  1.5394
 9343TIP3   OH252223   1.908   4.074   9.941  0.2213 -0.4913 -0.5181
 9343TIP3    H152224   1.974   4.009   9.920  0.7995 -0.7998  1.9521
 9343TIP3    H252225   1.950   4.158   9.920 -0.2265 -0.7768 -2.9153
 9344TIP3   OH252226   6.148   4.447  11.719 -0.1635 -0.5186 -0.3909
 9344TIP3    H152227   6.208   4.381  11.686 -0.6680 -0.1192 -2.2128
 9344TIP3    H252228   6.189   4.531  11.696 -1.3460 -0.2379 -1.6452
 9345TIP3   OH252229   3.778   1.528   8.639  0.1118 -0.0699  0.4107
 9345TIP3    H152230   3.793   1.474   8.716  0.1065 -1.7572 -0.7250
 9345TIP3    H252231   3.862   1.528   8.592 -0.1390  0.1740 -0.0546
 9346TIP3   OH252232   6.564   0.389   8.822 -0.1410  0.3412  0.3531
 9346TIP3    H152233   6.644   0.442   8.812  0.3847 -0.4646  0.2089
 9346TIP3    H252234   6.595   0.306   8.859 -0.9464  0.1003  0.5058
 9347TIP3   OH252235   0.934   6.397  11.209  0.2773 -0.2961  0.6170
 9347TIP3    H152236   0.868   6.466  11.199  1.8454  0.9950 -1.6325
 9347TIP3    H252237   0.891   6.318  11.174 -0.1925  0.4576 -0.5798
 9348TIP3   OH252238   1.429   2.854   9.574 -0.2324 -0.0293  0.4566
 9348TIP3    H152239   1.427   2.806   9.657  0.8043  0.6630  0.8995
 9348TIP3    H252240   1.515   2.894   9.572  0.3493 -1.2481 -1.6804
 9349TIP3   OH252241   5.988   5.108   9.855 -0.4511  0.3459 -0.0239
 9349TIP3    H152242   5.893   5.121   9.849 -0.1615  2.4105 -1.1877
 9349TIP3    H252243   6.023   5.151   9.777  1.4875  0.2360  0.7295
 9350TIP3   OH252244   2.175   0.875  12.392  0.6557 -0.5694 -0.4076
 9350TIP3    H152245   2.097   0.835  12.430  1.7086 -1.9971  0.3469
 9350TIP3    H252246   2.167   0.968  12.412 -0.7771 -0.7062 -0.2365
 9351TIP3   OH252247   3.140   6.616  10.495 -0.4739  0.2660  0.3073
 9351TIP3    H152248   3.161   6.570  10.413 -0.3303 -0.1707  0.5864
 9351TIP3    H252249   3.202   6.582  10.558 -1.5702 -0.5550  0.9872
 9352TIP3   OH252250   1.682   4.522  10.826 -0.5788  0.1398  0.7822
 9352TIP3    H152251   1.679   4.577  10.905 -0.4311 -0.2820  1.0863
 9352TIP3    H252252   1.590   4.513  10.800 -0.6288  0.2895  0.9052
 9353TIP3   OH252253   2.661   5.268   9.949 -0.4452 -0.2612 -0.1056
 9353TIP3    H152254   2.659   5.363   9.937  2.4528 -0.0038  0.7410
 9353TIP3    H252255   2.627   5.254  10.038  0.9691  0.2317  0.5433
 9354TIP3   OH252256   2.388   6.002   9.918 -0.1916 -0.0428  0.4786
 9354TIP3    H152257   2.320   5.962   9.863 -0.2019  0.6681 -0.0370
 9354TIP3    H252258   2.412   6.082   9.872  1.6769 -0.7298  0.1737
 9355TIP3   OH252259   5.811   2.467   9.793  0.2981  0.4348  0.0117
 9355TIP3    H152260   5.884   2.476   9.733 -0.1859 -0.0196 -0.6618
 9355TIP3    H252261   5.815   2.376   9.823  0.6798  0.7278  0.8555
 9356TIP3   OH252262   3.722   1.696   8.903 -0.1731 -0.7084 -0.0595
 9356TIP3    H152263   3.648   1.679   8.961  0.1922 -1.5121  0.1763
 9356TIP3    H252264   3.784   1.626   8.921  1.3369  0.7731  0.8428
 9357TIP3   OH252265   2.630   0.347  11.150  0.5455  0.3689  0.3027
 9357TIP3    H152266   2.676   0.396  11.081  0.1903  0.6864  0.2879
 9357TIP3    H252267   2.691   0.278  11.175 -0.2508 -1.2965 -2.0446
 9358TIP3   OH252268   3.463   4.827   9.411  0.5913 -0.5611 -0.1082
 9358TIP3    H152269   3.377   4.794   9.435 -0.3832  0.3878 -2.0835
 9358TIP3    H252270   3.511   4.750   9.380  0.6336 -1.1537  1.3413
 9359TIP3   OH252271   5.601   1.492   9.019  0.9095  0.1002  0.6776
 9359TIP3    H152272   5.544   1.475   9.094  0.0250  1.1489  0.2746
 9359TIP3    H252273   5.570   1.575   8.983  1.0294 -0.5693 -1.0997
 9360TIP3   OH252274   3.760   0.761  10.234 -0.0247  0.1213 -1.0017
 9360TIP3    H152275   3.749   0.855  10.220  0.0534 -0.0015 -1.9829
 9360TIP3    H252276   3.854   0.747  10.223  0.0642  0.0244 -0.1728
 9361TIP3   OH252277   5.264   2.757   9.750  0.0854 -0.0358 -0.3995
 9361TIP3    H152278   5.327   2.760   9.677  1.6819 -1.1534  0.8569
 9361TIP3    H252279   5.313   2.716   9.821 -2.8731 -3.6521 -0.1529
 9362TIP3   OH252280   6.197   5.443   8.937 -0.3031  0.5781 -0.6192
 9362TIP3    H152281   6.103   5.443   8.951 -0.1682 -0.0583  0.3530
 9362TIP3    H252282   6.210   5.388   8.860 -0.4992 -2.1449  1.1607
 9363TIP3   OH252283   3.458   6.408  11.760  0.6600 -0.1769  0.4190
 9363TIP3    H152284   3.511   6.474  11.717 -1.0758  0.5975 -0.6687
 9363TIP3    H252285   3.490   6.405  11.850  1.8999  0.8986  0.0323
 9364TIP3   OH252286   3.889   5.028  11.239 -0.3712  0.0426 -0.4068
 9364TIP3    H152287   3.803   5.033  11.197 -1.0436 -0.0253  0.9217
 9364TIP3    H252288   3.891   4.941  11.278 -0.5029  0.7346  1.2065
 9365TIP3   OH252289   6.056   1.051  11.516  0.3712  0.2116  0.0618
 9365TIP3    H152290   5.987   1.118  11.515 -1.4753 -1.5831  0.3772
 9365TIP3    H252291   6.032   0.993  11.588  1.8412 -0.8557 -0.2626
 9366TIP3   OH252292   4.642   1.611  10.636 -0.3158 -0.1547  0.1478
 9366TIP3    H152293   4.587   1.592  10.712 -1.1504  0.9864 -0.1453
 9366TIP3    H252294   4.589   1.670  10.582  0.4214 -0.6163 -1.1278
 9367TIP3   OH252295   3.727   5.658  10.878 -0.1918 -0.6186  0.1058
 9367TIP3    H152296   3.789   5.621  10.815  0.9706  2.5386 -0.8088
 9367TIP3    H252297   3.653   5.688  10.826 -0.3828 -0.2530  0.5729
 9368TIP3   OH252298   0.106   1.961  11.272 -0.2393  0.0180 -0.0208
 9368TIP3    H152299   0.056   1.992  11.196 -0.8417 -0.5908  0.1188
 9368TIP3    H252300   0.169   1.899  11.235 -0.5603 -0.3098 -0.0241
 9369TIP3   OH252301   2.831   0.157   8.734 -0.3376 -0.0746  0.2623
 9369TIP3    H152302   2.836   0.248   8.706 -0.2656 -0.5426 -1.3674
 9369TIP3    H252303   2.915   0.119   8.708 -0.1918 -0.5121  1.3230
 9370TIP3   OH252304   3.388   4.708  10.155  0.0317 -0.1935 -0.5536
 9370TIP3    H152305   3.439   4.688  10.077  0.7379  1.6677 -0.6156
 9370TIP3    H252306   3.451   4.703  10.227 -0.1539  0.0825 -0.3687
 9371TIP3   OH252307   4.628   5.326  10.366 -0.2253 -0.7386  0.2083
 9371TIP3    H152308   4.585   5.324  10.452  0.0066  1.1195  0.3948
 9371TIP3    H252309   4.649   5.234  10.348 -1.0168 -1.2565  1.7574
 9372TIP3   OH252310   1.922   0.298  11.773  0.0397  0.0713  0.0554
 9372TIP3    H152311   1.878   0.218  11.801  1.0784 -0.2205  0.9105
 9372TIP3    H252312   1.917   0.296  11.678 -0.4663 -0.7077  0.0925
 9373TIP3   OH252313   3.984   0.156  10.566 -0.4002  0.7887  0.0983
 9373TIP3    H152314   4.057   0.142  10.506  0.3283 -1.1166  1.3411
 9373TIP3    H252315   3.926   0.216  10.519  1.1015  0.9622 -1.6475
 9374TIP3   OH252316   5.335   1.965  11.239  0.5629  0.1514 -0.1791
 9374TIP3    H152317   5.415   1.995  11.196  1.6096  0.6901  2.0082
 9374TIP3    H252318   5.351   1.873  11.258  0.1999 -0.0201 -0.6566
 9375TIP3   OH252319   4.034   6.223   9.790  1.0991  0.0062 -0.5405
 9375TIP3    H152320   4.073   6.165   9.725 -1.6169  1.4838 -3.7649
 9375TIP3    H252321   4.035   6.309   9.749 -0.5274  1.0995  1.5191
 9376TIP3   OH252322   2.390   5.906   9.363 -0.8355 -0.6203  0.1807
 9376TIP3    H152323   2.434   5.969   9.419 -1.6239  0.7353 -0.6737
 9376TIP3    H252324   2.450   5.832   9.357 -0.0623 -0.1195  1.5148
 9377TIP3   OH252325   0.408   1.165  11.340  0.1235 -0.9757 -0.3383
 9377TIP3    H152326   0.345   1.125  11.280 -0.7918 -0.6851  0.4062
 9377TIP3    H252327   0.368   1.248  11.365  0.7906 -0.7998  0.1775
 9378TIP3   OH252328   2.197   3.731  11.091  0.2830  0.1059  0.1718
 9378TIP3    H152329   2.176   3.643  11.060  1.6719 -0.6027  1.1666
 9378TIP3    H252330   2.250   3.769  11.021 -0.3039  0.1625 -0.2513
 9379TIP3   OH252331   3.253   4.842   9.937 -0.2795 -0.5343 -0.0690
 9379TIP3    H152332   3.190   4.914   9.939  0.4575  0.2360 -2.1552
 9379TIP3    H252333   3.293   4.843  10.024 -0.7788  1.1383  0.1808
 9380TIP3   OH252334   5.306   0.271  11.267 -0.1771 -0.4317  0.4110
 9380TIP3    H152335   5.235   0.231  11.216 -0.0880  0.4870 -0.4757
 9380TIP3    H252336   5.323   0.209  11.338  0.7565 -2.5929 -1.5463
 9381TIP3   OH252337   4.048   1.261   8.817 -0.0309  0.3766  0.4833
 9381TIP3    H152338   4.113   1.330   8.802  0.6659 -0.0256  1.5471
 9381TIP3    H252339   4.100   1.183   8.836 -0.8250 -0.2348  0.2013
 9382TIP3   OH252340   0.822   5.777  11.247  0.2444  0.6683  0.0873
 9382TIP3    H152341   0.800   5.686  11.262 -0.0998  0.7070 -0.1825
 9382TIP3    H252342   0.747   5.826  11.281  0.9183  0.9110  1.2836
 9383TIP3   OH252343   1.582   6.606   9.557 -0.1768  0.4069  0.0304
 9383TIP3    H152344   1.620   6.518   9.553 -1.1017  0.0221 -0.8948
 9383TIP3    H252345   1.651   6.663   9.524 -0.0048 -0.1442 -0.5995
 9384TIP3   OH252346   3.787   1.523  10.496 -0.1492 -0.0046 -0.1421
 9384TIP3    H152347   3.802   1.429  10.500 -1.3745 -0.2627 -1.1062
 9384TIP3    H252348   3.873   1.560  10.477  0.4121 -0.8811  0.5709
 9385TIP3   OH252349   2.524   3.885   9.575 -0.1811 -0.7418 -0.4365
 9385TIP3    H152350   2.539   3.898   9.482  0.8266 -1.4747 -0.3953
 9385TIP3    H252351   2.485   3.798   9.582 -2.9246  0.3866 -0.3705
 9386TIP3   OH252352   0.896   1.128   9.956  0.2816  0.3078  0.0441
 9386TIP3    H152353   0.966   1.114  10.020  2.2351 -0.1325 -2.0354
 9386TIP3    H252354   0.935   1.103   9.872 -2.2280  0.5848 -1.3147
 9387TIP3   OH252355   5.495   4.609  11.017  0.3666 -0.7756  0.3216
 9387TIP3    H152356   5.429   4.562  10.965  0.5804  0.7676 -1.4614
 9387TIP3    H252357   5.456   4.695  11.032  1.9710  0.2110 -0.8821
 9388TIP3   OH252358   3.488   3.032   8.739  0.6363  0.4554 -0.0049
 9388TIP3    H152359   3.408   2.985   8.762 -0.7302  1.7934 -1.7243
 9388TIP3    H252360   3.535   2.974   8.680  0.0577  0.3459 -0.3658
 9389TIP3   OH252361   0.931   1.328   9.715  0.1893 -0.2205 -0.1416
 9389TIP3    H152362   0.836   1.333   9.727  0.1716 -1.6797  0.5642
 9389TIP3    H252363   0.942   1.264   9.644  0.6619 -1.3372  0.9015
 9390TIP3   OH252364   5.953   6.462  10.671 -0.0682 -0.2489 -0.2916
 9390TIP3    H152365   5.969   6.444  10.764 -2.8876 -0.3357  0.2949
 9390TIP3    H252366   5.936   6.556  10.667  0.0260 -0.2483 -0.7126
 9391TIP3   OH252367   6.378   0.863   9.038  0.0550 -0.0997 -0.0748
 9391TIP3    H152368   6.444   0.922   9.001 -1.1323  0.6792 -1.0332
 9391TIP3    H252369   6.295   0.895   9.003 -0.8884 -0.8186  1.4040
 9392TIP3   OH252370   0.421   0.206   8.741  0.2632 -0.1473 -0.2316
 9392TIP3    H152371   0.514   0.201   8.763  0.0978  0.9402  0.8267
 9392TIP3    H252372   0.417   0.274   8.673  0.3970 -1.2918 -1.4316
 9393TIP3   OH252373   5.351   4.850  11.065  0.3282 -0.1666 -0.0991
 9393TIP3    H152374   5.271   4.861  11.014 -0.1307  0.2822  0.6884
 9393TIP3    H252375   5.324   4.799  11.142  1.1598 -1.4859 -0.6418
 9394TIP3   OH252376   3.200   6.135  11.587 -0.2083  0.0801  0.7708
 9394TIP3    H152377   3.188   6.085  11.667 -0.2863 -0.8333  0.2098
 9394TIP3    H252378   3.189   6.226  11.613 -4.3715 -0.3289  1.1167
 9395TIP3   OH252379   4.371   6.341  11.785 -0.1136 -0.3941  0.1831
 9395TIP3    H152380   4.395   6.356  11.693  1.5680 -0.1423  0.6312
 9395TIP3    H252381   4.299   6.401  11.801  1.3163  1.5618 -0.2731
 9396TIP3   OH252382   6.458   5.561   8.964  0.1794 -0.6856 -0.1618
 9396TIP3    H152383   6.415   5.488   8.920  0.4360 -0.7410 -0.3221
 9396TIP3    H252384   6.418   5.564   9.051  0.3223 -1.1521 -0.0782
 9397TIP3   OH252385   2.862   1.251  10.203 -0.4896  0.2968  0.0059
 9397TIP3    H152386   2.855   1.159  10.177 -1.5897  0.0823  0.9436
 9397TIP3    H252387   2.799   1.260  10.275  0.7491  1.4008  1.0087
 9398TIP3   OH252388   6.202   4.953  10.880  0.7850  0.2861  0.3929
 9398TIP3    H152389   6.207   4.946  10.785 -0.4384 -1.9945  0.4441
 9398TIP3    H252390   6.257   4.882  10.913  0.0813  0.1626  1.3523
 9399TIP3   OH252391   2.997   6.258   9.214 -1.0829  0.7782 -0.4911
 9399TIP3    H152392   3.070   6.252   9.152 -0.6204  1.6186 -0.0444
 9399TIP3    H252393   2.970   6.168   9.228 -0.4735  0.4981 -1.0777
 9400TIP3   OH252394   2.477   3.543  10.867  0.6273 -0.2314 -0.0611
 9400TIP3    H152395   2.542   3.517  10.932  0.0887  0.0653  0.5965
 9400TIP3    H252396   2.415   3.470  10.864  1.0768 -0.6021 -0.8300
 9401TIP3   OH252397   4.561   3.884  10.479  0.2712  0.1481  0.2521
 9401TIP3    H152398   4.499   3.943  10.522  0.1763  0.3201 -0.1211
 9401TIP3    H252399   4.529   3.796  10.502  0.6744  0.2387  1.1779
 9402TIP3   OH252400   2.482   4.009  11.491 -0.2115  0.4893  0.3552
 9402TIP3    H152401   2.501   4.010  11.585  1.1328 -0.2661  0.1115
 9402TIP3    H252402   2.387   4.018  11.486 -0.7939 -3.0295  1.9669
 9403TIP3   OH252403   3.145   6.363   9.746  0.5224 -0.6968  0.6012
 9403TIP3    H152404   3.149   6.449   9.789  0.0980  0.0388 -0.7574
 9403TIP3    H252405   3.135   6.384   9.653 -1.3200 -2.2056  0.3957
 9404TIP3   OH252406   6.454   4.141  10.236  0.3858  0.1159 -0.2246
 9404TIP3    H152407   6.481   4.074  10.175 -0.4544  0.3644 -0.8946
 9404TIP3    H252408   6.535   4.184  10.263  0.9045 -0.9888  0.0258
 9405TIP3   OH252409   1.311   4.398  11.098  0.3008 -0.5794 -0.0888
 9405TIP3    H152410   1.255   4.472  11.076  0.0544 -0.9655 -0.8109
 9405TIP3    H252411   1.396   4.437  11.121  0.8807 -0.1443 -2.6510
 9406TIP3   OH252412   3.273   4.208  11.587 -0.1330 -0.1506 -0.5247
 9406TIP3    H152413   3.208   4.244  11.527 -0.0650  0.9085  0.0056
 9406TIP3    H252414   3.222   4.170  11.658 -0.1995  1.0877  0.1216
 9407TIP3   OH252415   0.225   2.469   9.552  0.4295 -0.0494 -0.5303
 9407TIP3    H152416   0.234   2.543   9.613 -2.7477  0.9829 -1.1065
 9407TIP3    H252417   0.241   2.506   9.466 -0.7679 -0.0903 -0.7863
 9408TIP3   OH252418   1.545   0.711   9.728 -0.1403 -0.1512 -0.0819
 9408TIP3    H152419   1.505   0.633   9.767  0.2742 -0.1846  0.2951
 9408TIP3    H252420   1.472   0.759   9.690 -0.4649 -0.4790  0.1169
 9409TIP3   OH252421   0.014   1.503   9.384  0.5654 -0.1546  0.1902
 9409TIP3    H152422   0.039   1.416   9.413  2.3285 -0.4714 -1.9653
 9409TIP3    H252423   0.096   1.542   9.353 -0.6007  1.2150 -1.4007
 9410TIP3   OH252424   0.127   3.424   9.198  0.5542 -0.2910  0.0521
 9410TIP3    H152425   0.105   3.484   9.127  0.8670 -1.0438 -0.6994
 9410TIP3    H252426   0.044   3.382   9.222  0.4537 -0.0534  0.1194
 9411TIP3   OH252427   3.910   1.500   9.655 -0.0174 -0.0731  0.2521
 9411TIP3    H152428   3.973   1.570   9.674  1.6202 -1.4955  0.2459
 9411TIP3    H252429   3.876   1.522   9.568 -0.1591  1.1498  0.5977
 9412TIP3   OH252430   2.967   6.149   9.476  0.3899 -0.2485 -0.7352
 9412TIP3    H152431   2.897   6.115   9.420 -1.6104  2.2250  0.0329
 9412TIP3    H252432   3.003   6.223   9.427 -0.5932  1.2144  0.6452
 9413TIP3   OH252433   0.557   1.316  12.181 -0.0844  0.0560  0.3648
 9413TIP3    H152434   0.647   1.324  12.150  0.2899 -1.8156  0.8780
 9413TIP3    H252435   0.564   1.274  12.266 -1.3860  1.0021  0.9767
 9414TIP3   OH252436   4.200   0.336  10.903 -0.1678 -0.2143 -0.1022
 9414TIP3    H152437   4.245   0.264  10.858 -2.0929 -1.1887 -0.5707
 9414TIP3    H252438   4.198   0.309  10.995  0.0561 -0.2390 -0.1030
 9415TIP3   OH252439   1.797   3.365  11.735 -0.1281 -0.4900 -0.2874
 9415TIP3    H152440   1.765   3.451  11.765  1.0506 -0.3257  0.5816
 9415TIP3    H252441   1.778   3.306  11.808  0.4280 -0.6325 -0.2506
 9416TIP3   OH252442   3.893   5.652  12.459 -0.1088 -0.0749 -0.2521
 9416TIP3    H152443   3.810   5.612  12.432 -0.3617 -0.6402  1.2590
 9416TIP3    H252444   3.876   5.746  12.455 -1.0148 -0.1870  0.5675
 9417TIP3   OH252445   4.798   2.988  11.520  0.2949 -0.6690 -0.2804
 9417TIP3    H152446   4.721   3.008  11.468  0.5378 -0.0157 -0.3975
 9417TIP3    H252447   4.773   3.010  11.610  0.4760 -0.0558 -0.3745
 9418TIP3   OH252448   1.581   5.834   9.240  0.2224 -0.0300  0.1976
 9418TIP3    H152449   1.590   5.902   9.307 -0.7128  0.5735 -0.2704
 9418TIP3    H252450   1.627   5.758   9.277  1.5712  0.9300  0.6019
 9419TIP3   OH252451   2.231   6.600  10.768  0.4772 -0.4565 -0.0130
 9419TIP3    H152452   2.143   6.619  10.799  0.7648  0.1650  0.4457
 9419TIP3    H252453   2.220   6.526  10.708 -0.4950  0.2690 -0.7688
 9420TIP3   OH252454   0.704   5.062   8.545  0.5251  0.3517 -0.3717
 9420TIP3    H152455   0.719   5.029   8.634 -0.0892  2.5071  0.5883
 9420TIP3    H252456   0.783   5.036   8.496  1.0658 -0.4980  0.9040
 9421TIP3   OH252457   0.954   0.872  11.396  0.4382 -0.1152 -0.8273
 9421TIP3    H152458   0.884   0.806  11.390  0.6985 -0.3282 -1.7140
 9421TIP3    H252459   1.020   0.843  11.333  1.3004  0.1300 -0.0608
 9422TIP3   OH252460   1.084   3.750  10.004  0.0560  0.1183 -0.4402
 9422TIP3    H152461   1.102   3.662  10.037  1.1445  0.6636  0.5142
 9422TIP3    H252462   1.137   3.757   9.924 -0.4574 -0.2705 -0.8186
 9423TIP3   OH252463   4.402   6.132   9.960  0.0056  0.0372  0.1755
 9423TIP3    H152464   4.493   6.151   9.980  0.0103 -0.3028  0.4912
 9423TIP3    H252465   4.405   6.052   9.907 -0.0260  0.7767 -0.9736
 9424TIP3   OH252466   1.640   6.502  11.698 -0.2759  0.2599  0.5958
 9424TIP3    H152467   1.684   6.456  11.627  0.2628  1.5214  0.0807
 9424TIP3    H252468   1.547   6.485  11.684 -0.2184  0.9452 -0.7532
 9425TIP3   OH252469   6.494   2.588   9.230  0.4544  0.6390  0.4581
 9425TIP3    H152470   6.501   2.678   9.200  0.5255  1.3224  2.3897
 9425TIP3    H252471   6.584   2.556   9.231  0.2939 -0.0988 -1.8916
 9426TIP3   OH252472   1.521   3.901  10.428  0.5542  0.6994  0.4035
 9426TIP3    H152473   1.462   3.917  10.503 -2.7048 -0.1992 -1.7522
 9426TIP3    H252474   1.581   3.833  10.459 -1.4266 -0.4945  1.9060
 9427TIP3   OH252475   4.266   3.775  11.498  0.0150  0.0567  0.5580
 9427TIP3    H152476   4.352   3.773  11.457 -0.1110 -1.4168  0.2737
 9427TIP3    H252477   4.281   3.740  11.586 -0.2454  0.0023  0.5814
 9428TIP3   OH252478   4.491   0.274  10.530 -0.1079  0.2168  0.8077
 9428TIP3    H152479   4.554   0.317  10.472 -1.1118 -0.0109 -0.5121
 9428TIP3    H252480   4.412   0.328  10.526 -1.4629 -1.6952 -1.0328
 9429TIP3   OH252481   6.551   5.626   9.318 -0.5368  0.3222  0.0701
 9429TIP3    H152482   6.645   5.638   9.334 -0.2702 -0.9971 -0.3905
 9429TIP3    H252483   6.524   5.705   9.272  0.4809  0.4691 -0.2907
 9430TIP3   OH252484   0.928   2.407  11.322 -0.0911  0.2799 -0.7817
 9430TIP3    H152485   0.960   2.320  11.298  0.5092  0.1687  0.3570
 9430TIP3    H252486   0.978   2.430  11.400 -0.5473  1.4764 -0.8255
 9431TIP3   OH252487   4.372   5.446  11.785  0.1715 -0.0100 -0.1334
 9431TIP3    H152488   4.412   5.526  11.818  0.7082  0.4381 -1.7801
 9431TIP3    H252489   4.428   5.376  11.818  0.6085  0.4056  0.0144
 9432TIP3   OH252490   2.215   2.103   8.855 -0.6291  0.1604 -0.2890
 9432TIP3    H152491   2.297   2.094   8.904 -0.8681 -0.1909  0.0544
 9432TIP3    H252492   2.147   2.101   8.922 -0.9578 -0.2655 -0.6310
 9433TIP3   OH252493   5.795   5.743   9.346 -0.0135  0.4866 -0.4833
 9433TIP3    H152494   5.700   5.744   9.331 -0.2634  0.6500  0.9206
 9433TIP3    H252495   5.805   5.774   9.436  1.2739 -0.9055 -0.1017
 9434TIP3   OH252496   3.169   6.418   9.469 -0.3090  0.2360 -0.4010
 9434TIP3    H152497   3.144   6.400   9.378 -0.2425  0.5433 -0.4820
 9434TIP3    H252498   3.263   6.433   9.465  0.3979 -3.2393  0.2450
 9435TIP3   OH252499   2.485   6.637  10.910  0.3701 -0.0049  0.1917
 9435TIP3    H152500   2.412   6.629  10.849 -0.0378 -0.2991  0.7081
 9435TIP3    H252501   2.446   6.619  10.996  1.0074  0.0456  0.4939
 9436TIP3   OH252502   2.928   1.682   8.642 -0.1413  0.0213 -0.3123
 9436TIP3    H152503   2.952   1.774   8.646  2.1357 -0.5566  1.7638
 9436TIP3    H252504   2.993   1.642   8.584 -0.6288 -0.4222 -0.5664
 9437TIP3   OH252505   2.530   5.726  10.277 -0.3028  0.6815  0.6949
 9437TIP3    H152506   2.568   5.639  10.291 -0.4290  0.7226  1.3342
 9437TIP3    H252507   2.532   5.738  10.182 -1.5945 -0.6271  0.4578
 9438TIP3   OH252508   4.214   5.034  12.349 -0.1669 -0.3504 -0.7502
 9438TIP3    H152509   4.219   4.988  12.433 -0.7911 -1.1713 -1.1523
 9438TIP3    H252510   4.146   5.100  12.362 -1.9742 -2.0118 -1.2981
 9439TIP3   OH252511   6.254   0.230   9.079  0.2337 -0.5615  0.0478
 9439TIP3    H152512   6.302   0.263   9.155 -0.6777 -1.3488  1.0010
 9439TIP3    H252513   6.265   0.298   9.013  0.5435  0.4416  1.0852
 9440TIP3   OH252514   2.443   0.034   9.780  0.2736  0.0600 -0.0633
 9440TIP3    H152515   2.479  -0.043   9.736  0.3899 -0.1947  0.4706
 9440TIP3    H252516   2.485   0.108   9.736  0.5582 -0.1981 -0.2298
 9441TIP3   OH252517   5.059   4.409  10.786  0.5639  0.1994  0.0989
 9441TIP3    H152518   5.093   4.484  10.836 -1.5276  1.0790  0.3042
 9441TIP3    H252519   5.035   4.446  10.701  0.8899 -0.5698 -0.3345
 9442TIP3   OH252520   3.086   2.067  11.944 -0.5853 -0.0159 -0.1351
 9442TIP3    H152521   3.047   2.012  12.011  0.4946  0.6730  1.0869
 9442TIP3    H252522   3.014   2.125  11.915 -1.0923 -0.4280  0.2933
 9443TIP3   OH252523   5.247   6.303  11.347  1.0915 -0.5891  0.5466
 9443TIP3    H152524   5.291   6.221  11.371 -0.4270 -1.1787  1.4194
 9443TIP3    H252525   5.166   6.276  11.305  1.7665  0.4848 -1.6051
 9444TIP3   OH252526   2.278   0.785  11.701  0.3457  0.4773 -0.5307
 9444TIP3    H152527   2.303   0.742  11.783  2.0867  2.7879  0.2735
 9444TIP3    H252528   2.207   0.844  11.726  0.2280  0.4862 -0.8874
 9445TIP3   OH252529   0.695   6.584   9.513  0.4871 -0.0428 -0.5922
 9445TIP3    H152530   0.649   6.667   9.501 -2.0427 -1.3305 -0.6363
 9445TIP3    H252531   0.689   6.567   9.607 -0.9278 -1.0973 -0.8260
 9446TIP3   OH252532   1.859   0.764  11.617  0.1692  0.0568 -0.5746
 9446TIP3    H152533   1.802   0.721  11.680 -0.9636 -2.1708 -2.9414
 9446TIP3    H252534   1.948   0.744  11.647 -0.3418 -1.3605  0.0833
 9447TIP3   OH252535   1.442   5.654  10.095  0.1130 -0.5059  0.1969
 9447TIP3    H152536   1.513   5.596  10.120  0.4997  0.9041  2.7514
 9447TIP3    H252537   1.474   5.742  10.117 -1.5483  0.3993 -0.7853
 9448TIP3   OH252538   5.039   4.321  10.229 -0.3723  0.0060 -0.0902
 9448TIP3    H152539   5.037   4.228  10.252 -1.0155 -0.0356 -0.3071
 9448TIP3    H252540   4.982   4.363  10.293 -0.3045  0.2146 -0.1644
 9449TIP3   OH252541   1.798   1.924  11.354 -0.4703  0.4673 -0.0071
 9449TIP3    H152542   1.871   1.969  11.397 -0.9407  0.2704  1.0043
 9449TIP3    H252543   1.840   1.866  11.291  0.1866  1.6088 -0.6718
 9450TIP3   OH252544   5.243   3.490  10.059 -0.7631 -0.2507 -0.0247
 9450TIP3    H152545   5.296   3.557  10.016  1.7251 -1.9075  0.2667
 9450TIP3    H252546   5.186   3.539  10.119  0.2135  1.6468 -0.5614
 9451TIP3   OH252547   6.683   4.872  10.706  0.1806 -0.5892  0.0887
 9451TIP3    H152548   6.636   4.916  10.635  0.4622 -0.8307 -0.2522
 9451TIP3    H252549   6.649   4.912  10.786  0.8540  0.7018 -0.2303
 9452TIP3   OH252550   3.479   2.022   9.233  0.1238 -0.0367 -0.4097
 9452TIP3    H152551   3.515   2.097   9.186  1.6179 -1.4764 -1.7008
 9452TIP3    H252552   3.528   2.019   9.315 -0.6505  0.9493  0.1117
 9453TIP3   OH252553   2.557   5.275  10.210 -0.2973  0.2545 -0.5867
 9453TIP3    H152554   2.503   5.238  10.279  1.5213 -1.2740  0.0928
 9453TIP3    H252555   2.569   5.367  10.235 -1.8845  0.4219 -0.3510
 9454TIP3   OH252556   5.499   2.748  10.267 -0.3480  0.1159  0.3474
 9454TIP3    H152557   5.527   2.779  10.353 -0.4492  1.3017 -0.0271
 9454TIP3    H252558   5.566   2.685  10.241  0.3711  0.6999  0.7507
 9455TIP3   OH252559   5.705   0.617   9.253 -0.1723 -0.6186 -0.6130
 9455TIP3    H152560   5.699   0.641   9.160 -0.1596  2.0146 -0.0300
 9455TIP3    H252561   5.799   0.603   9.268 -0.1345 -0.7019 -0.9161
 9456TIP3   OH252562   1.472   0.330   8.782 -0.6109  0.5503 -0.3444
 9456TIP3    H152563   1.532   0.386   8.831 -0.5159 -0.3232  0.5693
 9456TIP3    H252564   1.524   0.297   8.709  0.7014 -1.7412  1.4881
 9457TIP3   OH252565   3.588   3.358   9.114  0.6030 -0.0818 -0.0291
 9457TIP3    H152566   3.495   3.370   9.097  0.4794 -0.4877  0.3437
 9457TIP3    H252567   3.631   3.387   9.034 -0.0241 -3.4874 -1.7769
 9458TIP3   OH252568   5.304   6.555  10.876 -0.5101 -0.0044  0.0318
 9458TIP3    H152569   5.253   6.577  10.798  0.9749 -0.0786 -1.0156
 9458TIP3    H252570   5.335   6.640  10.908  1.3712 -0.1169 -1.2867
 9459TIP3   OH252571   4.818   3.527  11.435  0.3801  0.2173  0.5033
 9459TIP3    H152572   4.748   3.587  11.460 -0.4371 -0.0550 -1.0227
 9459TIP3    H252573   4.889   3.584  11.407 -0.2212  0.5076 -0.4919
 9460TIP3   OH252574   0.699   5.153   9.993 -0.0836  0.2959  0.2926
 9460TIP3    H152575   0.681   5.210   9.919  0.0101  0.0574  0.0851
 9460TIP3    H252576   0.616   5.107  10.009  0.0393 -0.0257  0.0109
 9461TIP3   OH252577   4.514   5.250  10.983 -0.0719  0.0612 -0.0157
 9461TIP3    H152578   4.461   5.305  10.925 -1.3358  0.6061  1.5948
 9461TIP3    H252579   4.505   5.162  10.947  0.7404  0.6402 -1.7355
 9462TIP3   OH252580   3.741   1.253   9.229  0.0840 -0.0002 -0.1841
 9462TIP3    H152581   3.709   1.168   9.259  1.2419 -0.9979 -1.6233
 9462TIP3    H252582   3.668   1.292   9.182 -0.2876 -0.4390  0.0266
 9463TIP3   OH252583   0.829   5.894  12.508  0.2759  0.0130 -0.2364
 9463TIP3    H152584   0.752   5.938  12.546 -0.6655 -0.7095 -1.2294
 9463TIP3    H252585   0.873   5.962  12.457 -0.9404 -0.0518 -1.4298
 9464TIP3   OH252586   1.372   5.434  10.858 -0.4020  0.5614  0.6002
 9464TIP3    H152587   1.396   5.518  10.896  0.0120  0.2404  1.0568
 9464TIP3    H252588   1.285   5.449  10.820 -0.9943  0.7973  1.9876
 9465TIP3   OH252589   3.967   3.693  12.026  0.1884 -0.5826  0.3327
 9465TIP3    H152590   4.048   3.696  11.975  1.1125 -1.5428  1.6658
 9465TIP3    H252591   3.991   3.643  12.105 -1.1917  0.7547  1.6514
 9466TIP3   OH252592   4.922   4.674   9.195  0.2543  0.6140 -0.6854
 9466TIP3    H152593   4.898   4.766   9.201 -1.8275  0.1575 -1.2151
 9466TIP3    H252594   4.962   4.664   9.108 -1.8631  0.5863 -1.7162
 9467TIP3   OH252595   0.403   3.842   9.963  0.4067  0.3871  0.2738
 9467TIP3    H152596   0.390   3.763   9.911  1.8360  0.7002 -0.6262
 9467TIP3    H252597   0.318   3.886   9.964  0.1682 -0.0116 -1.1569
 9468TIP3   OH252598   6.610   5.968   8.911 -0.0022 -0.1766  0.0965
 9468TIP3    H152599   6.684   5.992   8.967  0.6746 -0.0990 -0.7959
 9468TIP3    H252600   6.627   6.014   8.828  0.4294 -2.3452 -1.0937
 9469TIP3   OH252601   3.359   4.070   9.750 -0.5077 -0.2683  0.1252
 9469TIP3    H152602   3.351   3.982   9.786 -1.8165 -0.3408 -0.2540
 9469TIP3    H252603   3.452   4.082   9.733  0.1251 -0.3878  3.0445
 9470TIP3   OH252604   6.065   5.244   9.637  0.0935 -0.1261  0.3039
 9470TIP3    H152605   6.114   5.326   9.645  3.2012 -1.6230 -1.2949
 9470TIP3    H252606   6.072   5.221   9.544  1.4789 -3.2991  1.0585
 9471TIP3   OH252607   1.079   6.213  10.219  0.3286 -0.8722  0.3225
 9471TIP3    H152608   0.995   6.174  10.195  0.0063  0.7413 -1.4012
 9471TIP3    H252609   1.096   6.277  10.151  3.1836 -1.4162  0.3983
 9472TIP3   OH252610   0.993   5.054  10.674 -0.5161 -0.7913 -0.8631
 9472TIP3    H152611   0.931   5.127  10.681 -0.5022 -0.5498 -2.6663
 9472TIP3    H252612   1.064   5.089  10.620  0.0572 -1.7930 -0.7757
 9473TIP3   OH252613   3.600   0.431  10.131  0.1581 -0.9769  0.1022
 9473TIP3    H152614   3.609   0.502  10.067 -0.6474 -0.2878  0.7430
 9473TIP3    H252615   3.657   0.457  10.203  1.0290 -1.7332 -0.2948
 9474TIP3   OH252616   4.854   2.462  10.879  0.2336  0.0426 -0.4545
 9474TIP3    H152617   4.800   2.493  10.806  0.1639 -2.9265 -1.8001
 9474TIP3    H252618   4.938   2.440  10.839  0.6918 -0.3173  0.6618
 9475TIP3   OH252619   1.935   5.236  10.710 -0.1679  0.0287  0.1426
 9475TIP3    H152620   1.929   5.291  10.631  1.9875  1.4323  0.8741
 9475TIP3    H252621   1.985   5.160  10.682 -1.0849 -0.4341 -0.2867
 9476TIP3   OH252622   1.087   5.222  12.206 -0.6255 -0.1360 -0.1024
 9476TIP3    H152623   1.042   5.192  12.127  0.2544  0.3780 -0.8157
 9476TIP3    H252624   1.022   5.276  12.252 -0.7734  0.5406 -1.0722
 9477TIP3   OH252625   1.439   1.340  11.309 -0.8157 -0.2617 -0.0994
 9477TIP3    H152626   1.345   1.356  11.323 -0.8400 -1.4594  1.5269
 9477TIP3    H252627   1.479   1.365  11.392  0.5952  1.9276 -1.3610
 9478TIP3   OH252628   3.268   0.604   9.757 -0.1349  0.9499 -0.7541
 9478TIP3    H152629   3.291   0.512   9.742 -1.4952  0.6523 -1.1104
 9478TIP3    H252630   3.307   0.624   9.842  0.0815  0.0124 -0.6136
 9479TIP3   OH252631   2.572   3.939  10.638 -0.1890  0.2482 -0.0922
 9479TIP3    H152632   2.593   3.859  10.685 -2.6582 -0.8490 -0.7519
 9479TIP3    H252633   2.553   4.003  10.707 -0.6010 -0.4156  0.4134
 9480TIP3   OH252634   0.316   5.707  11.475 -0.0732 -0.1706 -0.3973
 9480TIP3    H152635   0.252   5.769  11.509 -0.2386  0.0147 -1.0373
 9480TIP3    H252636   0.342   5.656  11.551  0.6217  1.1672  0.3102
 9481TIP3   OH252637   3.716   6.691   9.499  0.4022 -0.7587 -0.7024
 9481TIP3    H152638   3.741   6.783   9.494  0.7562 -0.8088 -0.0504
 9481TIP3    H252639   3.729   6.668   9.591  0.0034 -1.3723 -0.7936
 9482TIP3   OH252640   0.212   2.990  10.824 -0.6900 -0.1307  0.1932
 9482TIP3    H152641   0.250   2.978  10.911 -1.9114  0.1654  0.7860
 9482TIP3    H252642   0.158   3.068  10.831  0.1150  0.6011 -1.1765
 9483TIP3   OH252643   5.048   5.402   9.505 -0.1266 -0.3488  0.6903
 9483TIP3    H152644   5.130   5.425   9.463 -0.4302  1.0406  0.8000
 9483TIP3    H252645   5.052   5.307   9.516  0.6440 -0.5386 -0.9811
 9484TIP3   OH252646   4.561   2.346  10.379  0.7361  0.2209 -0.1970
 9484TIP3    H152647   4.488   2.341  10.441  1.9764  0.3888  1.3336
 9484TIP3    H252648   4.562   2.437  10.350 -0.0928  0.0506 -0.8090
 9485TIP3   OH252649   4.921   3.313   9.073 -0.5182  0.1755 -0.0961
 9485TIP3    H152650   5.008   3.303   9.035 -0.3683  0.6069  0.1331
 9485TIP3    H252651   4.893   3.223   9.093  0.6720  0.1499  1.6437
 9486TIP3   OH252652   2.873   6.117  10.475  0.4473 -0.0713 -0.2318
 9486TIP3    H152653   2.801   6.133  10.415  0.2307 -1.4913 -0.3762
 9486TIP3    H252654   2.890   6.203  10.515 -1.0995  0.3510 -0.4207
 9487TIP3   OH252655   6.149   2.556   9.079  0.1843 -0.5766 -0.3737
 9487TIP3    H152656   6.191   2.473   9.103 -0.4144 -0.7015  0.2993
 9487TIP3    H252657   6.098   2.534   9.001  1.7715 -0.2871 -1.5256
 9488TIP3   OH252658   5.476   3.567   9.394  0.7207  0.0147  0.3339
 9488TIP3    H152659   5.397   3.587   9.444  0.9862 -0.7328  1.0634
 9488TIP3    H252660   5.536   3.529   9.457  1.5482  0.2589 -0.2882
 9489TIP3   OH252661   2.648   3.917   8.987 -0.4521 -0.9366  0.1876
 9489TIP3    H152662   2.690   3.834   8.964 -2.0261 -1.7423  0.0532
 9489TIP3    H252663   2.710   3.984   8.959  1.2938 -2.0656  1.1828
 9490TIP3   OH252664   0.656   5.110  10.911  0.3232  0.5698 -0.0276
 9490TIP3    H152665   0.566   5.111  10.878 -0.2005 -1.9871  1.0378
 9490TIP3    H252666   0.695   5.031  10.874  1.5096  0.6387  0.9863
 9491TIP3   OH252667   4.558   4.281  10.849  0.2520 -0.7458  0.3034
 9491TIP3    H152668   4.628   4.340  10.820  0.3136 -0.9853 -0.0344
 9491TIP3    H252669   4.553   4.295  10.944  0.4450 -0.3910  0.2633
 9492TIP3   OH252670   4.557   0.982  10.736  0.0170  0.6386  0.5704
 9492TIP3    H152671   4.616   0.929  10.682  1.6066  0.1981  2.6163
 9492TIP3    H252672   4.610   1.007  10.812 -1.2840  3.5250  0.6546
 9493TIP3   OH252673   0.971   5.474  10.643 -0.2798  0.1825  0.0195
 9493TIP3    H152674   0.973   5.398  10.585 -3.3087  0.5247 -0.7045
 9493TIP3    H252675   1.030   5.538  10.601  0.0224 -0.7067 -0.9534
 9494TIP3   OH252676   1.877   3.636   9.341 -0.6624  0.3569 -0.2916
 9494TIP3    H152677   1.847   3.575   9.273  0.0235  1.6578 -1.8382
 9494TIP3    H252678   1.817   3.623   9.414 -0.7950 -1.8396 -0.7354
 9495TIP3   OH252679   0.083   4.112  10.532  0.1262 -0.3137 -0.1372
 9495TIP3    H152680   0.134   4.191  10.550  0.0128 -0.6757  2.0156
 9495TIP3    H252681   0.089   4.060  10.612 -1.8383 -1.3644 -0.5909
 9496TIP3   OH252682   1.600   6.407   9.964  0.0303  0.8088 -0.0181
 9496TIP3    H152683   1.526   6.448  10.009 -0.1250  2.5683 -1.7536
 9496TIP3    H252684   1.647   6.480   9.924  0.0101 -0.6154 -2.8880
 9497TIP3   OH252685   1.600   1.922   9.332  0.2506 -0.5216 -0.3772
 9497TIP3    H152686   1.641   1.975   9.264 -0.8655  0.2000 -0.5151
 9497TIP3    H252687   1.609   1.974   9.412  0.1780 -0.6493 -0.2861
 9498TIP3   OH252688   1.818   2.783   9.967 -0.2107 -0.9688 -0.2925
 9498TIP3    H152689   1.866   2.865   9.952 -0.7097 -0.7973 -1.0040
 9498TIP3    H252690   1.871   2.717   9.922 -1.1462 -0.6184 -2.0114
 9499TIP3   OH252691   6.460   2.591  10.865  0.2890 -0.0364  0.2601
 9499TIP3    H152692   6.404   2.659  10.827 -0.5971 -0.7178  0.3129
 9499TIP3    H252693   6.541   2.596  10.815  0.2471  1.0648  0.2696
 9500TIP3   OH252694   3.213   3.910  11.473  0.2025 -0.1552 -0.1604
 9500TIP3    H152695   3.258   3.899  11.557 -0.9164 -0.5219  0.4061
 9500TIP3    H252696   3.279   3.952  11.417  1.2608 -0.7049  0.6247
 9501TIP3   OH252697   2.081   6.720  11.025  0.0934  0.3039 -0.3493
 9501TIP3    H152698   2.024   6.645  11.041 -0.6158  0.8188 -0.4097
 9501TIP3    H252699   2.044   6.762  10.948  0.5522  0.6522 -0.3795
 9502TIP3   OH252700   4.654   6.079  10.697 -0.2639  0.2535 -0.1397
 9502TIP3    H152701   4.590   6.066  10.627  0.3862  0.3512 -0.7639
 9502TIP3    H252702   4.687   5.991  10.717  0.4791  0.3545 -0.8605
 9503TIP3   OH252703   6.184   5.441  11.591 -0.2698 -0.1320  0.0370
 9503TIP3    H152704   6.226   5.371  11.541 -1.4544  0.2947 -1.5943
 9503TIP3    H252705   6.227   5.436  11.677  1.7010 -0.9829 -0.9167
 9504TIP3   OH252706   4.910   5.550   9.273 -0.8925 -0.1854  0.3913
 9504TIP3    H152707   4.864   5.504   9.343 -2.2605 -0.1473 -0.4645
 9504TIP3    H252708   4.842   5.576   9.211  0.2943 -0.3408 -1.0435
 9505TIP3   OH252709   2.197   2.250  11.662  0.0395  0.0336 -0.2033
 9505TIP3    H152710   2.284   2.215  11.681 -0.6784 -0.8783  1.6323
 9505TIP3    H252711   2.137   2.179  11.687 -1.2227  0.2711 -2.3346
 9506TIP3   OH252712   5.992   4.020   9.847 -0.1742  0.1023  0.1426
 9506TIP3    H152713   5.928   4.047   9.912  0.9286  0.7221  1.0036
 9506TIP3    H252714   5.942   4.010   9.766 -1.3386  0.5988  0.7843
 9507TIP3   OH252715   6.162   3.689  10.769 -0.6171 -0.3046  0.1083
 9507TIP3    H152716   6.083   3.652  10.729 -0.9563  1.0379 -0.5365
 9507TIP3    H252717   6.224   3.697  10.696  0.1247 -1.2864  0.5957
 9508TIP3   OH252718   2.476   3.619   9.672 -0.3249  0.0476 -0.1741
 9508TIP3    H152719   2.405   3.581   9.621 -1.0371  0.5759  0.4043
 9508TIP3    H252720   2.434   3.653   9.751  0.6203  0.0620  0.3412
 9509TIP3   OH252721   2.580   6.464  10.333 -0.0844 -0.8159 -0.0415
 9509TIP3    H152722   2.488   6.485  10.324  0.3375  0.9003 -0.6890
 9509TIP3    H252723   2.606   6.501  10.418  0.4056  0.3620 -0.6830
 9510TIP3   OH252724   0.376   5.814   9.231  0.1563  0.5178 -0.2592
 9510TIP3    H152725   0.412   5.751   9.294 -1.4241 -0.0294  0.1287
 9510TIP3    H252726   0.352   5.890   9.284  0.9884  1.0098 -0.5645
 9511TIP3   OH252727   1.713   1.070   9.349 -0.2782  0.1722 -0.0837
 9511TIP3    H152728   1.694   1.153   9.393  0.4477 -0.1694  0.9065
 9511TIP3    H252729   1.710   1.004   9.418 -0.1453 -0.5316 -0.7346
 9512TIP3   OH252730   5.216   3.930  11.144  0.3884  0.1517  0.0511
 9512TIP3    H152731   5.282   3.890  11.201 -0.0824 -1.5701 -0.5338
 9512TIP3    H252732   5.265   3.969  11.073  0.8273 -3.0558 -1.6025
 9513TIP3   OH252733   5.832   2.308  10.604  0.2590 -0.0494 -0.1950
 9513TIP3    H152734   5.909   2.307  10.546  1.9436  1.9043  1.8080
 9513TIP3    H252735   5.854   2.373  10.671 -2.9525  0.1493  0.8058
 9514TIP3   OH252736   6.549   3.694  10.289  0.0747  0.1907 -0.0881
 9514TIP3    H152737   6.543   3.782  10.328  0.7873  0.7903 -1.2983
 9514TIP3    H252738   6.615   3.702  10.221  0.1622 -1.3077 -0.2064
 9515TIP3   OH252739   2.460   6.503   8.436 -0.3494 -0.5262 -0.7667
 9515TIP3    H152740   2.384   6.447   8.450 -0.6525  0.2686  0.9935
 9515TIP3    H252741   2.449   6.575   8.497  1.9657 -0.5261 -0.2443
 9516TIP3   OH252742   1.335   2.485  10.971 -0.2923  0.1675 -0.1117
 9516TIP3    H152743   1.365   2.520  11.055 -1.6739 -0.8071  0.8363
 9516TIP3    H252744   1.255   2.437  10.992 -0.3476 -0.6138 -1.9024
 9517TIP3   OH252745   4.392   2.721  10.145  0.0965 -0.2328  0.5982
 9517TIP3    H152746   4.361   2.631  10.160 -0.4236 -0.1343  0.1578
 9517TIP3    H252747   4.480   2.722  10.182  0.7189 -1.3637 -0.7007
 9518TIP3   OH252748   1.460   4.394  11.998 -0.0796  0.0063 -0.4137
 9518TIP3    H152749   1.390   4.374  11.936 -0.0985 -0.6891 -0.1829
 9518TIP3    H252750   1.527   4.438  11.946 -0.7071  0.7335 -0.6256
 9519TIP3   OH252751   4.747   6.190  11.664  0.1129 -0.9100 -0.2399
 9519TIP3    H152752   4.719   6.119  11.722  0.8421  0.1783  1.5259
 9519TIP3    H252753   4.679   6.195  11.596 -0.7474 -2.2518  0.4909
 9520TIP3   OH252754   2.474   2.089   9.436 -0.3861 -0.2259 -0.2210
 9520TIP3    H152755   2.477   2.001   9.399 -0.4946  0.0156 -0.8185
 9520TIP3    H252756   2.520   2.144   9.372 -0.2888  0.1451  0.1612
 9521TIP3   OH252757   5.091   4.176  10.588  0.2391  0.4056  0.2593
 9521TIP3    H152758   5.116   4.087  10.613  1.8434  0.4554 -0.9562
 9521TIP3    H252759   5.013   4.195  10.640  0.0038 -1.6071  0.7343
 9522TIP3   OH252760   1.163   5.979   9.128  0.3424 -0.0205  0.0321
 9522TIP3    H152761   1.104   5.978   9.053  0.3875 -0.4206  0.0014
 9522TIP3    H252762   1.127   6.047   9.186 -0.0622 -0.1587 -0.0526
 9523TIP3   OH252763   2.814   5.137  10.208  0.1353 -0.0517  0.5246
 9523TIP3    H152764   2.765   5.216  10.187  0.2740  0.0633  0.6294
 9523TIP3    H252765   2.801   5.124  10.302  2.3739  1.4440  1.1329
 9524TIP3   OH252766   0.413   3.917   8.599 -0.8076  0.6725 -0.2835
 9524TIP3    H152767   0.454   3.846   8.648 -1.4332  1.0244  0.7991
 9524TIP3    H252768   0.335   3.878   8.560 -1.1424  0.7476  0.2976
 9525TIP3   OH252769   1.843   0.858  10.752 -0.0466  0.2397  0.3589
 9525TIP3    H152770   1.888   0.849  10.836  0.9760  0.7256 -0.1180
 9525TIP3    H252771   1.911   0.887  10.691 -0.5248 -1.0698 -0.8748
 9526TIP3   OH252772   2.443   4.818  10.497  0.3017 -0.0329 -0.4204
 9526TIP3    H152773   2.377   4.870  10.452 -0.5291  0.7760  1.6291
 9526TIP3    H252774   2.492   4.881  10.550 -0.2847 -1.1978  1.6019
 9527TIP3   OH252775   2.949   4.706   9.928  0.3159  0.0963  0.1281
 9527TIP3    H152776   2.981   4.703   9.837  0.2609 -1.9619  0.1145
 9527TIP3    H252777   3.017   4.660   9.978 -0.2132  0.1772  0.9287
 9528TIP3   OH252778   3.420   5.860   9.187 -0.2142 -0.1290  0.4773
 9528TIP3    H152779   3.441   5.889   9.275  0.4052 -0.5448  0.4761
 9528TIP3    H252780   3.339   5.808   9.197 -0.2610 -0.0003  0.7659
 9529TIP3   OH252781   1.411   0.964  11.255  0.1961  0.0878  1.0623
 9529TIP3    H152782   1.328   0.928  11.224 -0.0627 -0.9222  2.7883
 9529TIP3    H252783   1.421   1.046  11.206 -2.8147  1.2693  2.1466
 9530TIP3   OH252784   6.045   0.557  11.676  0.1675  0.3809  0.2837
 9530TIP3    H152785   6.138   0.548  11.695 -0.1956 -0.8212  1.6768
 9530TIP3    H252786   6.030   0.497  11.603  0.4296  0.3132  0.2827
 9531TIP3   OH252787   3.985   4.697  10.273  0.0579  0.2129  1.0784
 9531TIP3    H152788   4.018   4.629  10.214 -1.2003 -0.8195  1.5180
 9531TIP3    H252789   4.000   4.779  10.226  1.8123 -0.3349  0.6384
 9532TIP3   OH252790   3.583   1.244   9.519  0.3165 -0.1652  0.0523
 9532TIP3    H152791   3.584   1.339   9.504 -0.3979 -0.3793 -1.5179
 9532TIP3    H252792   3.668   1.226   9.560  1.4736  0.8639 -1.7220
 9533TIP3   OH252793   3.625   0.358  11.347  0.0195 -0.5646 -0.0121
 9533TIP3    H152794   3.532   0.344  11.328 -0.4703 -1.4121  2.5339
 9533TIP3    H252795   3.633   0.452  11.364  0.0646 -0.1621 -2.0510
 9534TIP3   OH252796   4.053   4.772   8.885 -0.0595  0.0593 -0.6383
 9534TIP3    H152797   4.054   4.715   8.962 -1.0519  1.5049  0.5115
 9534TIP3    H252798   3.961   4.773   8.858  0.1173  0.3434 -1.2342
 9535TIP3   OH252799   6.209   5.626   9.162 -0.7683  0.1132  0.4492
 9535TIP3    H152800   6.204   5.562   9.091 -0.5405  1.2420 -0.6114
 9535TIP3    H252801   6.149   5.696   9.137  0.4378  1.2458  0.5990
 9536TIP3   OH252802   4.334   3.774   8.845 -0.5521  0.7011  0.4480
 9536TIP3    H152803   4.316   3.719   8.768  0.1504  1.6320 -0.4222
 9536TIP3    H252804   4.321   3.716   8.920  0.6333 -0.7958 -0.4383
 9537TIP3   OH252805   1.197   2.248  10.996  0.5343 -0.3856 -0.1694
 9537TIP3    H152806   1.114   2.203  11.015  1.0480 -1.4090 -0.2637
 9537TIP3    H252807   1.264   2.185  11.022  1.2866  0.3538 -0.2934
 9538TIP3   OH252808   6.497   4.624   8.933  0.5651  0.1184 -0.2078
 9538TIP3    H152809   6.406   4.651   8.942  0.5399  0.9828 -2.4043
 9538TIP3    H252810   6.538   4.694   8.883  2.1057 -0.8879 -0.4252
 9539TIP3   OH252811   0.642   3.149   9.901  0.2065 -0.2140 -0.0845
 9539TIP3    H152812   0.620   3.216   9.837 -0.4770  1.3225  1.6520
 9539TIP3    H252813   0.608   3.067   9.865 -2.0330  0.9437 -0.7320
 9540TIP3   OH252814   0.293   4.128  11.218  0.3060  0.1069  0.4777
 9540TIP3    H152815   0.264   4.164  11.134  0.6862  0.0376  0.3151
 9540TIP3    H252816   0.388   4.141  11.218  0.2879  0.2325  0.9565
 9541TIP3   OH252817   3.481   1.614  11.303 -0.0428  0.0222  0.1448
 9541TIP3    H152818   3.557   1.669  11.283 -1.2245  0.8762 -2.4349
 9541TIP3    H252819   3.500   1.531  11.259  0.3160 -0.5779  1.3685
 9542TIP3   OH252820   2.087   1.721   9.115 -0.4060 -0.1010 -0.0251
 9542TIP3    H152821   2.037   1.710   9.034  0.0602 -1.5608 -0.1431
 9542TIP3    H252822   2.062   1.646   9.169  2.1991 -1.3870 -0.4110
 9543TIP3   OH252823   6.019   6.071   9.926 -0.2190  0.1638 -0.2603
 9543TIP3    H152824   6.046   5.998   9.982 -0.9177 -0.5157 -0.7874
 9543TIP3    H252825   5.963   6.125   9.981  1.2760  0.9913  0.5081
 9544TIP3   OH252826   0.675   3.539  10.700 -0.1515  0.1825  0.5666
 9544TIP3    H152827   0.701   3.593  10.625  1.6578  0.0321  1.0529
 9544TIP3    H252828   0.657   3.602  10.770  0.2212  0.2439  0.6110
 9545TIP3   OH252829   0.066   5.280   9.165 -0.2265  0.1203  0.1406
 9545TIP3    H152830   0.098   5.347   9.105  1.2337 -0.6782 -0.0252
 9545TIP3    H252831   0.145   5.248   9.209 -0.8530 -1.6179  0.0664
 9546TIP3   OH252832   6.265   5.835  12.244 -0.4680  0.1753 -0.3558
 9546TIP3    H152833   6.237   5.745  12.254 -1.6592  0.6289  0.7006
 9546TIP3    H252834   6.360   5.831  12.238  0.1910 -0.8527  5.2700
 9547TIP3   OH252835   3.215   2.279   9.310  0.3321  0.2278 -0.2318
 9547TIP3    H152836   3.284   2.326   9.356  0.2974  0.3082 -0.2622
 9547TIP3    H252837   3.149   2.261   9.377  0.5356 -0.1471 -0.1269
 9548TIP3   OH252838   3.764   0.240  11.145 -0.0065 -0.0902 -0.0799
 9548TIP3    H152839   3.758   0.308  11.078 -0.2038 -0.1222 -0.0963
 9548TIP3    H252840   3.739   0.284  11.226 -1.3785 -0.4296 -0.2858
 9549TIP3   OH252841   4.700   0.261   9.758  0.4608  0.6652  0.7138
 9549TIP3    H152842   4.790   0.239   9.734  0.0484 -0.7736  0.3899
 9549TIP3    H252843   4.668   0.313   9.684  0.4660 -0.3728 -0.0423
 9550TIP3   OH252844   6.661   1.971   9.555 -0.3783 -0.1219 -0.0425
 9550TIP3    H152845   6.589   2.018   9.598 -0.7118 -1.2035  0.6129
 9550TIP3    H252846   6.678   1.896   9.612  0.4701 -0.5405 -0.8219
 9551TIP3   OH252847   5.488   1.101   9.120  0.6166  0.2733  0.5068
 9551TIP3    H152848   5.506   1.033   9.184  0.8795  0.4110  0.5775
 9551TIP3    H252849   5.571   1.145   9.107  1.0766 -1.0398 -1.4452
 9552TIP3   OH252850   4.815   0.621  11.950  0.0566  0.1754  0.0597
 9552TIP3    H152851   4.746   0.563  11.983 -1.3559  0.9673 -1.4088
 9552TIP3    H252852   4.882   0.618  12.019 -2.6358  1.5977  3.0010
 9553TIP3   OH252853   2.594   1.037   8.840  0.2936  0.6381  0.2219
 9553TIP3    H152854   2.519   0.985   8.812 -1.5346  2.0932  2.0866
 9553TIP3    H252855   2.558   1.124   8.857  2.2403  1.1968  1.9358
 9554TIP3   OH252856   3.997   3.097  11.400  0.2800 -0.5043  0.5609
 9554TIP3    H152857   3.923   3.128  11.349 -1.1216 -0.2726  2.6316
 9554TIP3    H252858   3.980   3.004  11.415  0.4182 -0.4631  1.0044
 9555TIP3   OH252859   2.236   4.894  10.287 -0.2272  0.5390  0.3072
 9555TIP3    H152860   2.231   4.813  10.237 -1.5291  0.4858  0.5028
 9555TIP3    H252861   2.148   4.932  10.281  0.2291  1.6921  0.6236
 9556TIP3   OH252862   5.257   2.202  10.701  0.1757 -0.0250 -0.7031
 9556TIP3    H152863   5.255   2.137  10.771  2.2452 -0.3544 -0.8918
 9556TIP3    H252864   5.218   2.157  10.626 -1.5614  0.1518  0.0420
 9557TIP3   OH252865   0.360   4.482   8.540 -0.1351  0.9030 -0.4186
 9557TIP3    H152866   0.359   4.474   8.445  0.2693  1.5693 -0.4814
 9557TIP3    H252867   0.391   4.397   8.571  0.0972  0.8087 -0.9014
 9558TIP3   OH252868   2.005   5.557   8.426  0.0487 -0.0986  0.3841
 9558TIP3    H152869   2.001   5.601   8.341 -0.4321 -0.6659  0.1018
 9558TIP3    H252870   1.918   5.571   8.465 -0.0051 -0.5238  0.4240
 9559TIP3   OH252871   3.174   0.246   8.843  0.1847  0.2513 -0.1760
 9559TIP3    H152872   3.142   0.331   8.814 -3.4848  0.2842  3.0631
 9559TIP3    H252873   3.114   0.183   8.804  0.8153 -0.5255  0.0818
 9560TIP3   OH252874   6.136   2.020   9.848 -0.1855 -0.1279  0.3703
 9560TIP3    H152875   6.084   2.009   9.928 -1.0489  2.1161  0.1910
 9560TIP3    H252876   6.177   2.106   9.858  0.1266 -0.0406 -1.3684
 9561TIP3   OH252877   0.112   6.183   8.554  1.0800 -0.3289 -0.1479
 9561TIP3    H152878   0.200   6.220   8.555  1.3086 -0.8806  0.6894
 9561TIP3    H252879   0.072   6.213   8.635  1.1158 -1.5117  0.3381
 9562TIP3   OH252880   3.682   1.254  10.270 -0.2905  0.1845 -0.3728
 9562TIP3    H152881   3.602   1.305  10.254 -0.5280 -0.2506 -0.6070
 9562TIP3    H252882   3.753   1.315  10.255 -0.5840  0.6564  0.1069
 9563TIP3   OH252883   3.755   3.944  11.690  0.2832 -0.5663 -0.2547
 9563TIP3    H152884   3.683   3.898  11.648  0.2067  0.5196 -1.3833
 9563TIP3    H252885   3.833   3.912  11.645  0.2112  0.5056 -1.2002
 9564TIP3   OH252886   5.811   3.701   9.326  0.1012  0.8380 -0.1497
 9564TIP3    H152887   5.762   3.619   9.334  0.3347  0.7055 -0.0879
 9564TIP3    H252888   5.878   3.697   9.395  0.1789  1.0350 -0.2115
 9565TIP3   OH252889   3.270   2.888   8.797  0.0184 -0.7984 -0.2501
 9565TIP3    H152890   3.234   2.884   8.886 -0.9129 -0.2677 -0.5927
 9565TIP3    H252891   3.339   2.821   8.796 -0.5664 -1.4324  0.6038
 9566TIP3   OH252892   3.396   5.079  10.585  0.2729  0.0285  0.0515
 9566TIP3    H152893   3.430   5.076  10.495 -0.3255  0.1111 -0.1847
 9566TIP3    H252894   3.368   4.990  10.604  0.1499  0.0679  0.0562
 9567TIP3   OH252895   5.865   4.563   9.765  0.1334 -0.0576 -0.1872
 9567TIP3    H152896   5.875   4.654   9.793  1.0300  0.1391 -1.0985
 9567TIP3    H252897   5.770   4.549   9.762 -0.0276  1.0405 -0.6445
 9568TIP3   OH252898   5.168   3.603   9.445  0.6697  0.3505 -0.3899
 9568TIP3    H152899   5.105   3.645   9.503  0.2750  0.0827 -0.6145
 9568TIP3    H252900   5.115   3.572   9.371  1.0561  0.0670 -0.5517
 9569TIP3   OH252901   2.489   0.667  10.964 -0.0119  0.3770  0.4651
 9569TIP3    H152902   2.514   0.634  11.050 -1.0082 -2.1606 -0.1274
 9569TIP3    H252903   2.563   0.644  10.907 -0.7687 -1.0413  0.0203
 9570TIP3   OH252904   1.862   2.464  10.105 -0.0319  0.2902  0.0918
 9570TIP3    H152905   1.846   2.387  10.051  1.1956  1.7151 -2.4501
 9570TIP3    H252906   1.787   2.521  10.089 -0.2050  0.2853  0.8131
 9571TIP3   OH252907   1.652   6.347  11.123 -0.2543 -0.7837  0.1007
 9571TIP3    H152908   1.733   6.298  11.138  0.4115  0.6575  1.4519
 9571TIP3    H252909   1.602   6.292  11.062  1.7096 -1.7145 -0.7577
 9572TIP3   OH252910   0.070   5.998  11.836  0.4143  0.4021  0.4967
 9572TIP3    H152911   0.015   5.963  11.906 -0.1687 -4.6227 -2.0869
 9572TIP3    H252912   0.018   6.068  11.797 -1.1850  0.2269  2.1952
 9573TIP3   OH252913   4.689   3.959  10.750 -0.0185  0.1138  0.3402
 9573TIP3    H152914   4.700   3.996  10.837 -1.2367  1.3653  0.0040
 9573TIP3    H252915   4.599   3.981  10.725 -0.2030 -1.5550 -0.6275
 9574TIP3   OH252916   4.869   4.863   9.753  0.5180 -0.2260  0.4239
 9574TIP3    H152917   4.962   4.841   9.744  0.3767 -0.7210  0.1677
 9574TIP3    H252918   4.832   4.848   9.667  0.4842  1.4064  0.1303
 9575TIP3   OH252919   1.346   1.693  10.518  0.0419 -0.6467 -0.3113
 9575TIP3    H152920   1.345   1.786  10.542 -0.1124 -0.6377 -0.3499
 9575TIP3    H252921   1.348   1.647  10.602  0.1679 -0.6081 -0.2929
 9576TIP3   OH252922   2.647   5.026   8.559 -0.3616 -0.4225  0.6365
 9576TIP3    H152923   2.604   4.989   8.482  0.0075 -0.3409  0.3910
 9576TIP3    H252924   2.664   5.117   8.536  2.2712 -1.0714 -0.2901
 9577TIP3   OH252925   3.026   4.242   8.899 -0.2823 -0.2510 -0.0834
 9577TIP3    H152926   3.012   4.160   8.946  1.9464 -0.1110  0.9542
 9577TIP3    H252927   3.090   4.220   8.831  0.5897  0.6963  0.4217
 9578TIP3   OH252928   1.779   0.767  11.344 -0.2241  0.3906  0.2449
 9578TIP3    H152929   1.864   0.801  11.315  0.3732 -1.3156 -0.1336
 9578TIP3    H252930   1.784   0.767  11.439  0.0370  0.7214  0.2295
 9579TIP3   OH252931   6.460   6.393  10.120 -0.0045 -0.2128 -0.1003
 9579TIP3    H152932   6.434   6.390  10.028 -3.3832 -0.0751  0.7209
 9579TIP3    H252933   6.464   6.487  10.141 -1.3965 -0.2347  0.3645
 9580TIP3   OH252934   5.360   3.933   9.452  0.3403  0.2641 -0.7424
 9580TIP3    H152935   5.432   3.913   9.391  1.1802  1.3529 -0.1534
 9580TIP3    H252936   5.370   4.026   9.470 -1.2334  0.4364 -0.6252
 9581TIP3   OH252937   4.831   1.946  10.798  0.0052  0.7924 -0.2852
 9581TIP3    H152938   4.881   1.925  10.877 -0.0986  2.4801  0.2568
 9581TIP3    H252939   4.863   1.884  10.733  3.1584  2.0334 -0.0982
 9582TIP3   OH252940   4.180   0.669   9.006  0.4926  0.4849 -0.7886
 9582TIP3    H152941   4.147   0.708   9.087  0.3530  0.6717 -0.9362
 9582TIP3    H252942   4.113   0.688   8.941  0.2519 -0.3207 -0.7823
 9583TIP3   OH252943   3.379   1.851  11.290 -0.2367 -0.1924 -0.2268
 9583TIP3    H152944   3.400   1.758  11.299 -2.4853 -0.8019 -0.6334
 9583TIP3    H252945   3.439   1.895  11.350  2.1245 -1.6798 -1.3718
 9584TIP3   OH252946   6.499   1.650  10.089  0.2348  0.2654 -0.2903
 9584TIP3    H152947   6.560   1.594  10.136  1.5905  2.6507  1.0414
 9584TIP3    H252948   6.529   1.649   9.999 -0.8931 -2.4742 -0.7036
 9585TIP3   OH252949   3.473   6.155   9.648 -0.3416  0.0941 -0.2620
 9585TIP3    H152950   3.452   6.233   9.596  1.9143 -0.7633 -2.7002
 9585TIP3    H252951   3.542   6.183   9.707 -0.1829  0.1676 -0.4806
 9586TIP3   OH252952   4.505   2.643  11.031 -0.5053  0.4137 -0.2106
 9586TIP3    H152953   4.588   2.601  11.051 -0.6849  0.2752  0.2389
 9586TIP3    H252954   4.513   2.731  11.068 -1.2896 -0.2230  1.5915
 9587TIP3   OH252955   1.045   5.493  11.394 -0.0519  0.0475  0.0050
 9587TIP3    H152956   1.064   5.520  11.304 -2.4088  1.1274 -0.2235
 9587TIP3    H252957   0.983   5.421  11.385  0.1872 -0.2646  0.7647
 9588TIP3   OH252958   1.082   6.289   8.994 -0.2169 -0.3392 -0.2935
 9588TIP3    H152959   1.033   6.262   9.072 -1.3692 -0.0688 -0.8916
 9588TIP3    H252960   1.014   6.309   8.929  0.6420  1.5481 -0.6817
 9589TIP3   OH252961   6.091   6.558  11.199  0.3861  0.1848 -0.3301
 9589TIP3    H152962   6.105   6.494  11.269 -0.7629 -0.0471 -0.2898
 9589TIP3    H252963   6.069   6.505  11.122 -1.4688  0.5040 -0.0854
 9590TIP3   OH252964   3.310   3.436   9.587  0.5999 -0.4582  0.1864
 9590TIP3    H152965   3.332   3.469   9.674 -0.6717 -2.2635  1.2639
 9590TIP3    H252966   3.391   3.397   9.555  0.9916 -0.0797  0.6992
 9591TIP3   OH252967   1.796   4.243   9.174 -0.0782 -0.2670 -0.1756
 9591TIP3    H152968   1.774   4.303   9.102 -0.9668  1.1582  1.2286
 9591TIP3    H252969   1.889   4.259   9.190 -0.6523  2.0355  1.2634
 9592TIP3   OH252970   2.198   6.590   8.734  0.4914 -0.2084 -0.8547
 9592TIP3    H152971   2.222   6.515   8.680  1.3853  0.6732 -1.7226
 9592TIP3    H252972   2.102   6.594   8.730  0.5455  0.1386 -2.8402
 9593TIP3   OH252973   0.838   0.888  11.715  0.3143  0.1460  0.3272
 9593TIP3    H152974   0.898   0.901  11.788 -3.0762  2.2422  3.0671
 9593TIP3    H252975   0.793   0.806  11.735 -1.1018  1.0668  1.0779
 9594TIP3   OH252976   5.002   1.023  10.574  0.3385  0.1261  0.2803
 9594TIP3    H152977   5.033   1.032  10.664 -0.6682 -0.2865  0.6822
 9594TIP3    H252978   4.968   1.109  10.551  0.3801  0.1664  0.3712
 9595TIP3   OH252979   1.423   4.635  11.373  0.6524 -0.0895  0.8019
 9595TIP3    H152980   1.473   4.584  11.309 -0.6947  0.3264 -0.6355
 9595TIP3    H252981   1.413   4.575  11.448  1.5148 -0.8993  0.3010
 9596TIP3   OH252982   4.064   4.464  10.122 -0.2135 -0.2999 -0.1158
 9596TIP3    H152983   4.032   4.378  10.094 -0.5780 -0.5375  0.9754
 9596TIP3    H252984   4.149   4.474  10.078  0.0392 -1.4221  0.0950
 9597TIP3   OH252985   2.346   3.031   9.593  0.0887  0.1484 -0.0240
 9597TIP3    H152986   2.390   3.032   9.678 -0.0270 -2.5790  0.1493
 9597TIP3    H252987   2.263   3.075   9.608  0.3494  0.2885  1.0912
 9598TIP3   OH252988   5.621   4.566  10.154 -0.1276 -0.2673 -0.0934
 9598TIP3    H152989   5.646   4.639  10.098  0.3707 -0.7122 -0.4645
 9598TIP3    H252990   5.676   4.493  10.124  2.1584  0.1216  2.7141
 9599TIP3   OH252991   1.924   6.547  11.464  0.3430 -0.0134  0.2404
 9599TIP3    H152992   1.883   6.611  11.522  0.2821 -0.3886  0.6168
 9599TIP3    H252993   1.863   6.537  11.391  1.3822  2.0519 -1.0009
 9600TIP3   OH252994   0.945   2.969   8.707 -0.2257  0.5851  0.3294
 9600TIP3    H152995   1.033   2.948   8.735  0.1876  0.4577 -0.9969
 9600TIP3    H252996   0.888   2.910   8.757  0.5983 -0.8264 -0.3449
 9601TIP3   OH252997   3.630   6.142  10.371  0.2440 -0.2548  0.0282
 9601TIP3    H152998   3.648   6.212  10.433  1.2218 -1.2809  0.9373
 9601TIP3    H252999   3.535   6.127  10.379  0.3507 -0.3635  1.2612
 9602TIP3   OH253000   4.784   1.278   9.317  0.5736  0.3502  0.1768
 9602TIP3    H153001   4.857   1.251   9.261  0.8492  1.5055 -0.0340
 9602TIP3    H253002   4.707   1.243   9.273  0.9099  0.0136 -0.1577
 9603TIP3   OH253003   1.494   6.115  11.054 -0.0378  0.1404 -0.0709
 9603TIP3    H153004   1.417   6.172  11.054  0.1373  0.3878  0.3635
 9603TIP3    H253005   1.468   6.038  11.004 -1.6713 -1.2255  2.6577
 9604TIP3   OH253006   4.651   4.052   9.943 -0.2148 -0.1453  0.4222
 9604TIP3    H153007   4.632   4.025  10.033  0.3956 -1.6843  0.1330
 9604TIP3    H253008   4.574   4.024   9.893 -1.2825  2.1640  0.6701
 9605TIP3   OH253009   3.162   2.050   9.871  0.0185  0.3035 -0.2941
 9605TIP3    H153010   3.203   1.981   9.819  0.9023 -0.8816  1.8471
 9605TIP3    H253011   3.233   2.086   9.923 -1.0347  0.5439  1.0241
 9606TIP3   OH253012   0.910   4.899  11.434 -0.2399 -0.4484 -0.4423
 9606TIP3    H153013   0.894   4.975  11.490 -0.5842 -0.5815 -0.3549
 9606TIP3    H253014   1.005   4.887  11.436 -0.1655  0.0872 -0.6007
 9607TIP3   OH253015   0.268   1.710  10.676 -0.2281  0.1284 -0.0261
 9607TIP3    H153016   0.177   1.726  10.649 -0.7521 -2.1670  0.1700
 9607TIP3    H253017   0.263   1.696  10.770  0.0781 -1.3037 -0.1923
 9608TIP3   OH253018   5.544   5.313  11.277  0.1671  0.1340 -0.0044
 9608TIP3    H153019   5.486   5.370  11.226  0.3173 -0.7991 -1.2532
 9608TIP3    H253020   5.600   5.374  11.325 -1.2490  1.0583  0.5760
 9609TIP3   OH253021   2.086   4.749   8.877  0.0226 -0.2354  0.5658
 9609TIP3    H153022   2.000   4.790   8.873 -0.2126 -0.7116  0.7778
 9609TIP3    H253023   2.106   4.742   8.970  1.0089  1.3647  0.5200
 9610TIP3   OH253024   3.830   5.391  10.065  0.0589  0.9264 -0.4017
 9610TIP3    H153025   3.925   5.381  10.055  0.0972  1.8671 -1.0197
 9610TIP3    H253026   3.814   5.484  10.051 -0.9153  0.8425  0.0940
 9611TIP3   OH253027   0.636   3.039  11.162 -0.0221 -0.2880  0.0336
 9611TIP3    H153028   0.694   3.116  11.153  1.1232 -1.0674  0.4851
 9611TIP3    H253029   0.663   2.999  11.244 -1.6961 -0.3130  0.6058
 9612TIP3   OH253030   5.544   1.730  11.330  0.1390 -0.2057  0.9016
 9612TIP3    H153031   5.533   1.794  11.400 -0.8319 -0.1156  0.6777
 9612TIP3    H253032   5.510   1.648  11.367  2.3208 -0.8847  1.5602
 9613TIP3   OH253033   1.089   0.469   9.342  0.8216 -0.3314  0.0239
 9613TIP3    H153034   1.051   0.392   9.300  1.4819 -0.9662  0.5629
 9613TIP3    H253035   1.168   0.436   9.386  0.0662  0.2437  1.9195
 9614TIP3   OH253036   5.185   4.852  11.494 -0.0153 -0.1225  0.8084
 9614TIP3    H153037   5.157   4.897  11.573  0.1948 -2.6863  2.4572
 9614TIP3    H253038   5.174   4.759  11.514 -0.1751 -0.8911 -2.2723
 9615TIP3   OH253039   0.912   4.073   9.707  0.1757 -0.6111  0.2727
 9615TIP3    H153040   0.861   4.148   9.739 -0.6679 -0.3824 -1.4998
 9615TIP3    H253041   0.942   4.099   9.620 -0.7888 -2.5804 -0.7351
 9616TIP3   OH253042   6.635   6.239  11.148  0.1460  0.4879  0.2115
 9616TIP3    H153043   6.674   6.325  11.165  1.6929 -0.1952  0.1974
 9616TIP3    H253044   6.650   6.189  11.228  1.4237 -0.5408 -0.6342
 9617TIP3   OH253045   5.223   0.858   9.440 -0.2932 -0.0881 -0.6259
 9617TIP3    H153046   5.249   0.817   9.522  1.3180  0.6138 -0.7276
 9617TIP3    H253047   5.235   0.790   9.374  0.7913  0.0400 -0.5808
 9618TIP3   OH253048   4.149   3.565  12.184 -0.2173 -0.1050  0.2805
 9618TIP3    H153049   4.197   3.567  12.101  0.5527  0.0793  0.7155
 9618TIP3    H253050   4.174   3.482  12.225  2.0679  1.2235  1.8132
 9619TIP3   OH253051   6.419   1.176  10.407 -0.5699  0.7336  0.4672
 9619TIP3    H153052   6.332   1.175  10.367 -1.6984  1.7037  2.6940
 9619TIP3    H253053   6.469   1.237  10.354 -1.0509 -0.2267 -1.1580
 9620TIP3   OH253054   2.846   1.565  11.228  0.0976  0.2150  0.8137
 9620TIP3    H153055   2.808   1.526  11.307 -1.4326 -0.4303 -0.2053
 9620TIP3    H253056   2.795   1.645  11.214  1.3638  1.1445  1.2902
 9621TIP3   OH253057   1.621   4.757  11.861 -0.2335  0.4368 -0.2388
 9621TIP3    H153058   1.588   4.847  11.861  0.1386  0.5794  0.7395
 9621TIP3    H253059   1.589   4.719  11.942 -0.9018 -0.5185 -0.9311
 9622TIP3   OH253060   3.558   3.706   8.947  0.2948 -0.6506 -0.1341
 9622TIP3    H153061   3.641   3.739   8.914 -0.5082 -1.1274 -2.9440
 9622TIP3    H253062   3.555   3.733   9.038  1.9938  2.3702 -0.8503
 9623TIP3   OH253063   4.268   0.638  10.866  0.0551  0.4762  0.2449
 9623TIP3    H153064   4.231   0.572  10.924  1.0385  0.2949  0.6678
 9623TIP3    H253065   4.219   0.627  10.784  0.3129 -0.8799  0.2525
 9624TIP3   OH253066   4.116   5.406  11.671 -0.0591  0.6228  0.1287
 9624TIP3    H153067   4.135   5.393  11.578  1.4223  1.1222  0.3373
 9624TIP3    H253068   4.201   5.424  11.711 -0.8154  1.5631  1.3933
 9625TIP3   OH253069   0.608   5.926  11.292 -0.2365  0.5570 -0.0545
 9625TIP3    H153070   0.617   5.919  11.387  1.3933 -0.9527 -0.2633
 9625TIP3    H253071   0.526   5.881  11.272  0.1360 -0.4111  0.5285
 9626TIP3   OH253072   4.421   3.909  10.910  0.1210  0.1760  0.2240
 9626TIP3    H153073   4.433   3.835  10.850  2.0953  0.6474 -0.0317
 9626TIP3    H253074   4.461   3.879  10.992 -2.9235 -0.6323  1.5827
 9627TIP3   OH253075   4.448   5.715  11.188 -0.1615  0.3828  0.2284
 9627TIP3    H153076   4.392   5.637  11.190  0.1211  0.1759  1.9460
 9627TIP3    H253077   4.534   5.683  11.216 -0.0863  1.3476  1.1401
 9628TIP3   OH253078   3.619   6.125   8.944  0.0203  0.3035  0.0920
 9628TIP3    H153079   3.620   6.214   8.908 -0.3124 -0.4555 -1.9063
 9628TIP3    H253080   3.703   6.116   8.989  0.6713  1.1371 -0.9186
 9629TIP3   OH253081   3.365   0.980  12.389 -0.0150 -0.0570 -0.2155
 9629TIP3    H153082   3.295   0.992  12.325 -0.7660 -0.5029  0.4958
 9629TIP3    H253083   3.333   0.911  12.447  1.6118 -1.2539 -0.6718
 9630TIP3   OH253084   2.734   3.734   9.717  0.2993 -0.3340 -0.2801
 9630TIP3    H153085   2.675   3.659   9.723 -1.4423  1.0892  3.0669
 9630TIP3    H253086   2.683   3.801   9.670  1.2914 -0.7045 -1.9536
 9631TIP3   OH253087   1.927   0.804  12.489  0.1774  0.2044  0.5095
 9631TIP3    H153088   1.869   0.730  12.470 -0.2309  1.0205 -1.8620
 9631TIP3    H253089   1.876   0.881  12.463  1.1547  1.2185  1.4759
 9632TIP3   OH253090   3.835   6.639   9.750 -0.3384  0.0322 -0.1680
 9632TIP3    H153091   3.909   6.700   9.743  1.6488 -2.1644  0.3416
 9632TIP3    H253092   3.803   6.650   9.839  1.1859 -0.8518  0.5326
 9633TIP3   OH253093   2.012   5.412   8.950  0.0604 -0.1463 -0.3422
 9633TIP3    H153094   1.931   5.454   8.979  0.3928  0.6025 -0.4610
 9633TIP3    H253095   1.983   5.347   8.886 -0.6576 -1.6194  1.3895
 9634TIP3   OH253096   6.535   3.137  10.895 -0.3576  0.0621  0.4051
 9634TIP3    H153097   6.476   3.135  10.971 -0.3569 -0.9568  0.3898
 9634TIP3    H253098   6.557   3.045  10.879  2.0226  0.4807  0.9948
 9635TIP3   OH253099   0.917   4.654  10.332  0.0643  0.1978  0.0022
 9635TIP3    H153100   0.965   4.576  10.360  1.3149  0.6049 -0.9035
 9635TIP3    H253101   0.903   4.704  10.413  1.0838  0.0157  0.3014
 9636TIP3   OH253102   3.867   5.310   9.204  0.1154 -0.2667  0.2708
 9636TIP3    H153103   3.872   5.227   9.252  0.2726  0.6739  1.9560
 9636TIP3    H253104   3.777   5.340   9.219 -1.0307 -1.6056 -3.0148
 9637TIP3   OH253105   0.188   2.572  10.671  0.3988 -0.2078  0.1451
 9637TIP3    H153106   0.134   2.493  10.678 -0.4783  0.3107 -0.6425
 9637TIP3    H253107   0.125   2.644  10.666  1.1004  0.3116 -2.1619
 9638TIP3   OH253108   5.962   0.532   9.269 -0.3474  0.2277  0.0535
 9638TIP3    H153109   5.994   0.496   9.352 -0.1444 -0.2569 -0.2270
 9638TIP3    H253110   6.037   0.578   9.231 -0.8151  1.6135  0.7632
 9639TIP3   OH253111   5.249   1.683  11.052 -0.4517 -0.3588 -0.1995
 9639TIP3    H153112   5.171   1.632  11.028 -1.0397  0.7513 -0.7486
 9639TIP3    H253113   5.301   1.687  10.972 -0.8184  0.5822 -0.4068
 9640TIP3   OH253114   5.274   5.045  11.772  0.2814  0.4926  0.3302
 9640TIP3    H153115   5.190   5.041  11.817  0.5531  0.3015  0.8384
 9640TIP3    H253116   5.316   4.961  11.792  0.3183  0.3100 -0.4721
 9641TIP3   OH253117   1.663   2.925   8.949 -0.3215  0.0147  0.0783
 9641TIP3    H153118   1.694   2.892   8.865  1.5576  0.7764  0.4217
 9641TIP3    H253119   1.653   2.847   9.004  0.6912 -0.3116 -0.1756
 9642TIP3   OH253120   4.110   0.938  12.254  0.4767 -0.0470 -0.2087
 9642TIP3    H153121   4.137   0.947  12.345 -0.0881  0.3052 -0.0716
 9642TIP3    H253122   4.018   0.964  12.254  0.7670  1.0304 -1.0676
 9643TIP3   OH253123   1.124   4.211  10.985  0.3331  0.1638 -0.0440
 9643TIP3    H153124   1.147   4.224  10.893  1.0446 -2.0759 -0.2438
 9643TIP3    H253125   1.199   4.247  11.033  0.0503  1.1584 -0.3294
 9644TIP3   OH253126   1.646   3.812   8.811 -0.0391  0.1819  0.2879
 9644TIP3    H153127   1.561   3.855   8.819  0.3572  0.9017  0.6459
 9644TIP3    H253128   1.670   3.789   8.901 -0.2227 -0.7528  0.1079
 9645TIP3   OH253129   4.440   5.952  11.331  0.3841  0.2403  0.0374
 9645TIP3    H153130   4.506   5.996  11.277 -1.0613  0.2505 -1.8386
 9645TIP3    H253131   4.438   5.862  11.298 -0.0331  0.0462  0.5749
 9646TIP3   OH253132   1.530   1.546  11.015  0.1366 -0.2294  0.2562
 9646TIP3    H153133   1.437   1.562  11.001  0.2359 -0.5090 -0.7991
 9646TIP3    H253134   1.548   1.582  11.102 -0.6666  1.0834 -0.0896
 9647TIP3   OH253135   2.583   5.208  11.035  0.0952  0.3780  0.0922
 9647TIP3    H153136   2.568   5.137  11.098  1.2817 -0.0996 -0.1326
 9647TIP3    H253137   2.661   5.181  10.987 -1.8215 -0.2314 -2.9342
 9648TIP3   OH253138   6.719   2.790   9.535  0.5910 -0.5191 -0.5193
 9648TIP3    H153139   6.756   2.860   9.589 -1.1536  0.9396 -1.0833
 9648TIP3    H253140   6.678   2.836   9.461  0.8032 -2.2812 -1.8028
 9649TIP3   OH253141   5.452   5.712  11.006 -0.3045 -0.2440  0.3578
 9649TIP3    H153142   5.474   5.731  10.915 -0.9858  1.4470  0.5153
 9649TIP3    H253143   5.416   5.623  11.004 -1.9233  0.3806 -1.3196
 9650TIP3   OH253144   0.984   2.972   9.938  0.2947 -0.0588 -0.2214
 9650TIP3    H153145   0.969   2.980   9.844 -0.4314 -0.6182 -0.1647
 9650TIP3    H253146   0.922   2.904   9.966  0.3384  0.2678  0.6971
 9651TIP3   OH253147   3.812   1.597   9.945 -0.2845 -0.0338 -0.1716
 9651TIP3    H153148   3.807   1.690   9.923  2.5485  0.2577 -0.0450
 9651TIP3    H253149   3.777   1.553   9.868 -1.2122  1.1242 -0.4461
 9652TIP3   OH253150   3.678   6.703  10.729 -0.0173 -0.2024  0.0971
 9652TIP3    H153151   3.724   6.784  10.710  0.6354 -0.5059  0.3269
 9652TIP3    H253152   3.736   6.657  10.791 -0.8944 -0.3482  0.8320
 9653TIP3   OH253153   2.176   6.287  11.226  0.0785 -0.3299  0.2124
 9653TIP3    H153154   2.192   6.234  11.305  0.8122 -0.7666 -0.2221
 9653TIP3    H253155   2.131   6.227  11.167  1.1799 -0.5774 -0.3966
 9654TIP3   OH253156   0.205   3.134   9.173  0.0334  0.3645 -0.3913
 9654TIP3    H153157   0.295   3.123   9.142 -0.8831  0.5177 -3.4605
 9654TIP3    H253158   0.198   3.227   9.195  0.6361  0.3417 -0.0919
 9655TIP3   OH253159   0.750   5.402   8.875 -0.3707 -0.0280 -0.0730
 9655TIP3    H153160   0.790   5.455   8.806 -1.3332 -0.9132 -1.3622
 9655TIP3    H253161   0.656   5.409   8.860 -0.5929 -0.3984  1.0458
 9656TIP3   OH253162   1.305   3.538  10.703  0.4550  0.1816  0.3128
 9656TIP3    H153163   1.269   3.563  10.618 -1.0331 -0.8778  0.5735
 9656TIP3    H253164   1.276   3.447  10.715  1.0429  0.1559  1.7374
 9657TIP3   OH253165   2.789   4.382   8.798 -0.4800 -0.0357  0.3461
 9657TIP3    H153166   2.852   4.315   8.825 -2.1700 -1.2691  1.4682
 9657TIP3    H253167   2.823   4.416   8.715  0.6160 -2.0476 -0.0878
 9658TIP3   OH253168   1.465   5.213  10.451  0.4444 -0.5340  0.4126
 9658TIP3    H153169   1.481   5.161  10.372  1.4728  0.8438 -0.3418
 9658TIP3    H253170   1.533   5.184  10.512  0.5575 -0.5916  0.2611
 9659TIP3   OH253171   4.261   4.699  11.049 -0.5539  0.2601 -0.2533
 9659TIP3    H153172   4.327   4.718  11.116 -0.4186  0.5697 -0.4749
 9659TIP3    H253173   4.227   4.613  11.074  0.3885 -0.2003 -0.5016
 9660TIP3   OH253174   0.745   1.407  10.679 -0.1105 -0.1876  0.4263
 9660TIP3    H153175   0.725   1.365  10.595 -1.9693 -3.3287  2.2883
 9660TIP3    H253176   0.660   1.429  10.716  0.6551  0.6310  1.7856
 9661TIP3   OH253177   0.594   0.021  10.911  0.8773 -0.3713 -0.1205
 9661TIP3    H153178   0.588   0.080  10.986  1.9618  0.5117 -0.6967
 9661TIP3    H253179   0.516   0.040  10.859  0.8125 -0.0289  0.1005
 9662TIP3   OH253180   3.543   3.474  10.656 -0.1848  0.2878  0.6920
 9662TIP3    H153181   3.581   3.503  10.573  0.1325 -1.3322  0.2293
 9662TIP3    H253182   3.489   3.547  10.686  1.3270  1.6761  0.1006
 9663TIP3   OH253183   2.256   5.677   8.481 -0.2972  0.3740 -0.6218
 9663TIP3    H153184   2.322   5.608   8.477  0.9266  1.5299 -1.3106
 9663TIP3    H253185   2.177   5.637   8.445  0.3736 -0.6768 -0.9704
 9664TIP3   OH253186   5.564   2.620  10.795  0.3266  0.0911 -0.3319
 9664TIP3    H153187   5.508   2.696  10.779 -0.2558  0.1066  1.6124
 9664TIP3    H253188   5.653   2.654  10.784  0.0858  1.1700  0.8042
 9665TIP3   OH253189   4.730   4.768   9.545  0.5072  0.5391 -0.1218
 9665TIP3    H153190   4.659   4.722   9.501  0.4050  1.7792 -1.3447
 9665TIP3    H253191   4.726   4.857   9.510  3.1344  0.4681 -0.8129
 9666TIP3   OH253192   4.863   1.864  11.462 -0.0581 -0.7898 -0.0313
 9666TIP3    H153193   4.797   1.903  11.405  0.7505 -1.3307 -1.3845
 9666TIP3    H253194   4.892   1.936  11.519 -0.9331 -0.2602 -0.2447
 9667TIP3   OH253195   4.925   4.553   9.508  0.2929  0.3492  0.0572
 9667TIP3    H153196   4.895   4.643   9.522 -1.9370 -0.4028  0.6317
 9667TIP3    H253197   4.850   4.509   9.468  1.8539 -0.9268 -1.6332
 9668TIP3   OH253198   6.683   6.097  11.365 -0.7696  0.3232  0.3035
 9668TIP3    H153199   6.718   6.009  11.375 -0.2482  0.4686 -0.1805
 9668TIP3    H253200   6.662   6.126  11.454  0.7571  0.4037  0.6500
 9669TIP3   OH253201   4.731   2.124  10.258 -0.1590 -0.7595  0.5653
 9669TIP3    H153202   4.811   2.165  10.224  0.0141  0.8918  2.7103
 9669TIP3    H253203   4.688   2.194  10.307 -1.1893 -2.5240  2.3098
 9670TIP3   OH253204   6.326   1.532   9.113  0.3016 -0.1589  0.1028
 9670TIP3    H153205   6.361   1.531   9.024  0.8457 -1.3676  0.3091
 9670TIP3    H253206   6.402   1.541   9.169 -0.0878  1.1206  0.4462
 9671TIP3   OH253207   1.014   5.926   8.911 -0.4155  0.2163  0.2260
 9671TIP3    H153208   1.013   5.831   8.910  1.7869  0.1358 -1.3362
 9671TIP3    H253209   0.928   5.952   8.879 -1.2396 -1.2060  1.1760
 9672TIP3   OH253210   0.408   6.114  10.803  0.8871 -0.1322  0.5286
 9672TIP3    H153211   0.485   6.169  10.813  1.7578 -1.2727  0.3873
 9672TIP3    H253212   0.398   6.070  10.887  1.1770 -0.9372  0.1610
 9673TIP3   OH253213   0.844   1.659  10.740 -0.5203  0.4916  0.5730
 9673TIP3    H153214   0.841   1.733  10.680  0.6030  1.2268  1.3811
 9673TIP3    H253215   0.822   1.583  10.686 -1.2300  1.3456 -0.3709
 9674TIP3   OH253216   2.342   0.907   8.767  1.0205 -0.1302  0.3000
 9674TIP3    H153217   2.344   0.997   8.801 -0.7932 -0.5592  1.7134
 9674TIP3    H253218   2.324   0.853   8.844  0.1683 -1.5191 -0.8160
 9675TIP3   OH253219   6.271   6.428  10.394 -0.2659 -0.2007 -0.5825
 9675TIP3    H153220   6.260   6.376  10.314  0.0301  0.1751 -0.8690
 9675TIP3    H253221   6.323   6.372  10.452 -0.2612 -0.3707 -0.7503
 9676TIP3   OH253222   3.776   3.708   9.856 -0.0015  0.3418  0.5186
 9676TIP3    H153223   3.711   3.659   9.806  1.8227 -2.5695  0.7638
 9676TIP3    H253224   3.781   3.662   9.940  0.5846  2.0650  1.4796
 9677TIP3   OH253225   5.839   6.593   8.753 -0.5825  0.1515  0.3456
 9677TIP3    H153226   5.829   6.595   8.658 -2.9560 -0.6339  0.5205
 9677TIP3    H253227   5.931   6.615   8.767  0.3132 -1.4146 -2.2052
 9678TIP3   OH253228   0.178   2.046  10.639  0.1197 -0.2993  0.3368
 9678TIP3    H153229   0.264   2.012  10.614 -0.7296 -2.4727  0.1185
 9678TIP3    H253230   0.118   1.972  10.625 -2.3898  2.0126 -2.8169
 9679TIP3   OH253231   0.847   4.208  11.571 -0.0197  0.1077 -0.5031
 9679TIP3    H153232   0.846   4.122  11.612 -0.1879  0.1713 -0.3716
 9679TIP3    H253233   0.940   4.231  11.565  0.0086  0.1089 -0.1281
 9680TIP3   OH253234   1.429   0.871  11.673 -0.3149  0.5255 -0.5113
 9680TIP3    H153235   1.441   0.956  11.631 -0.1897  1.3785  1.1454
 9680TIP3    H253236   1.346   0.880  11.720  0.1854  0.0928  0.4791
 9681TIP3   OH253237   3.234   6.689  11.862  0.0396 -0.6611 -0.1257
 9681TIP3    H153238   3.272   6.714  11.946 -2.0139  1.0357  0.3868
 9681TIP3    H253239   3.194   6.604  11.877  1.6758 -1.4670 -0.0974
 9682TIP3   OH253240   4.421   3.073  10.117  0.1073  0.2200 -0.3657
 9682TIP3    H153241   4.341   3.020  10.121  0.7643 -1.0681 -2.5152
 9682TIP3    H253242   4.392   3.162  10.136 -1.6696 -0.3481 -0.2379
 9683TIP3   OH253243   4.582   1.601  11.874 -0.0795 -0.7748 -0.1506
 9683TIP3    H153244   4.494   1.608  11.837 -0.4970 -0.7799  0.8101
 9683TIP3    H253245   4.570   1.553  11.956  0.8293 -0.8395 -0.0461
 9684TIP3   OH253246   1.259   1.578  10.286 -0.0087  0.0164  0.0242
 9684TIP3    H153247   1.274   1.637  10.360  0.0745  0.4929 -0.3654
 9684TIP3    H253248   1.215   1.502  10.324  1.3437 -0.4007  0.8141
 9685TIP3   OH253249   2.532   4.832   9.514  0.3332  0.1048 -0.8395
 9685TIP3    H153250   2.450   4.782   9.504 -0.2451  1.1701 -1.5675
 9685TIP3    H253251   2.590   4.797   9.447  0.0520  0.1695 -1.1178
 9686TIP3   OH253252   6.071   3.815  10.162 -0.3336  0.5251 -0.6776
 9686TIP3    H153253   5.998   3.754  10.156  0.3274 -0.3865  0.2287
 9686TIP3    H253254   6.138   3.779  10.103 -0.5715  1.3372 -1.4809
 9687TIP3   OH253255   3.615   4.011   9.855  0.4718  0.0630  0.4912
 9687TIP3    H153256   3.691   3.981   9.806 -0.0973  1.0189 -1.0603
 9687TIP3    H253257   3.650   4.074   9.919  0.7901  2.7409 -2.1159
 9688TIP3   OH253258   0.576   0.322  10.262 -0.6256 -0.1269 -0.1689
 9688TIP3    H153259   0.622   0.242  10.290 -0.1381  0.7843  1.8433
 9688TIP3    H253260   0.485   0.306  10.285 -0.3565  0.2768  1.3531
 9689TIP3   OH253261   0.164   1.639   9.912 -0.7047  0.4377 -0.4888
 9689TIP3    H153262   0.179   1.686   9.830 -0.0926 -1.2841 -1.4062
 9689TIP3    H253263   0.181   1.705   9.980  3.3153  0.8196 -1.5913
 9690TIP3   OH253264   4.306   5.740  10.391  0.3985  0.6781  0.1716
 9690TIP3    H153265   4.244   5.705  10.328  0.9900 -0.6401  0.2848
 9690TIP3    H253266   4.262   5.815  10.430 -0.9452  0.0270 -0.0597
 9691TIP3   OH253267   0.748   6.208  12.358 -0.2607 -0.2601  0.1958
 9691TIP3    H153268   0.763   6.296  12.323  0.0287 -1.5965 -3.4508
 9691TIP3    H253269   0.835   6.169  12.365 -0.5396 -1.4533 -1.9946
 9692TIP3   OH253270   0.133   6.332  11.404 -0.0201 -0.2974  0.0646
 9692TIP3    H153271   0.102   6.243  11.389  1.6151 -1.2565  1.9870
 9692TIP3    H253272   0.226   6.323  11.422 -0.1041  1.5974  1.8443
 9693TIP3   OH253273   0.154   0.771  12.150  0.2922  0.2537  0.2379
 9693TIP3    H153274   0.223   0.719  12.191 -0.3415  0.5202  1.7087
 9693TIP3    H253275   0.082   0.709  12.136  1.1237 -0.2793 -2.2749
 9694TIP3   OH253276   0.587   0.938  11.978  0.5520 -0.0603  0.9569
 9694TIP3    H153277   0.564   0.978  12.062 -1.8855 -0.5866  0.6263
 9694TIP3    H253278   0.556   0.847  11.986 -0.7565  0.1758 -0.8488
 9695TIP3   OH253279   2.948   1.972   8.602 -0.1955 -0.3073 -0.0805
 9695TIP3    H153280   3.010   2.045   8.604 -0.2504 -0.2655  0.1904
 9695TIP3    H253281   2.862   2.014   8.599 -0.1999 -0.3680 -0.8988
 9696TIP3   OH253282   1.087   1.650  11.677  0.1955 -0.3137 -0.2996
 9696TIP3    H153283   1.106   1.688  11.764  0.6650  0.2309 -0.6291
 9696TIP3    H253284   1.129   1.564  11.679 -0.6735 -0.7374  0.3722
 9697TIP3   OH253285   2.637   1.449   9.102  0.0118 -0.1914  0.0118
 9697TIP3    H153286   2.575   1.433   9.031 -1.8387  1.0774  1.2507
 9697TIP3    H253287   2.719   1.471   9.058 -0.8174 -0.4160 -1.7095
 9698TIP3   OH253288   0.552   0.164  11.162 -0.5739 -0.7274 -0.2575
 9698TIP3    H153289   0.461   0.164  11.192 -0.8237 -0.0869 -0.9683
 9698TIP3    H253290   0.604   0.154  11.242 -1.2412 -0.1213  0.2729
 9699TIP3   OH253291   3.261   2.060   8.832 -0.4923  0.0020  0.5495
 9699TIP3    H153292   3.275   2.003   8.908  0.7222  0.3283  0.5858
 9699TIP3    H253293   3.313   2.021   8.762 -0.8568  0.2325  0.1432
 9700TIP3   OH253294   0.752   6.244  10.751  0.7138  0.5776 -0.0856
 9700TIP3    H153295   0.829   6.249  10.694  0.1754 -0.3380 -0.9451
 9700TIP3    H253296   0.787   6.230  10.838  1.5311  0.0369 -0.4863
 9701TIP3   OH253297   2.624   2.265   9.271  0.4517 -0.5255  0.0584
 9701TIP3    H153298   2.675   2.186   9.251  0.2692 -0.6430  0.0463
 9701TIP3    H253299   2.687   2.325   9.311  0.9796 -0.0313 -1.4493
 9702TIP3   OH253300   2.519   3.404   9.057 -0.2175 -0.1012  0.2653
 9702TIP3    H153301   2.476   3.347   8.993 -0.1002 -1.0819  1.0357
 9702TIP3    H253302   2.586   3.349   9.097  1.0133  1.0781 -0.1161
 9703TIP3   OH253303   5.225   3.777  11.694 -0.5352 -0.2672 -0.7344
 9703TIP3    H153304   5.317   3.803  11.685 -0.4221 -0.5187 -0.3251
 9703TIP3    H253305   5.223   3.687  11.662 -0.0413 -1.3447  2.0007
 9704TIP3   OH253306   0.537   1.403   9.060  0.2917 -0.1201  0.3936
 9704TIP3    H153307   0.577   1.420   8.974  1.5206 -0.3719  0.8903
 9704TIP3    H253308   0.611   1.379   9.116 -0.7575 -2.4238  0.9149
 9705TIP3   OH253309   3.571   0.690  10.749 -0.6839 -0.2747 -0.1520
 9705TIP3    H153310   3.549   0.764  10.692  0.3558  0.9365  0.9386
 9705TIP3    H253311   3.545   0.613  10.699  1.0582  0.6506 -2.6955
 9706TIP3   OH253312   5.768   5.288   9.468  0.2242 -0.3179 -0.0033
 9706TIP3    H153313   5.860   5.262   9.480  0.3265  0.0719  0.0748
 9706TIP3    H253314   5.772   5.360   9.405 -0.0119 -0.1794  0.1393
 9707TIP3   OH253315   1.246   4.295   9.505  0.1349  0.4620  0.2803
 9707TIP3    H153316   1.197   4.302   9.587 -0.7993 -0.4186 -0.1871
 9707TIP3    H253317   1.335   4.272   9.532 -0.1002  0.4370  1.0531
 9708TIP3   OH253318   2.257   0.815  10.892  0.3137  0.6119  0.1362
 9708TIP3    H153319   2.289   0.905  10.893  0.7063  0.5330 -1.5890
 9708TIP3    H253320   2.312   0.769  10.955 -0.1834  1.6456  1.3657
 9709TIP3   OH253321   0.611   4.184   9.507  0.3688 -0.5724 -0.2327
 9709TIP3    H153322   0.594   4.140   9.590 -0.3247 -0.9045 -0.5410
 9709TIP3    H253323   0.695   4.229   9.520 -0.9070  1.5076  1.5278
 9710TIP3   OH253324   4.705   1.062  10.968  0.1475 -0.5518 -0.1540
 9710TIP3    H153325   4.649   1.108  11.031  1.9230  2.0301 -0.2832
 9710TIP3    H253326   4.781   1.035  11.020  0.3721 -0.8741 -0.6473
 9711TIP3   OH253327   6.349   5.644   8.710  0.2666 -0.0688  0.0843
 9711TIP3    H153328   6.378   5.718   8.657  0.4244 -0.3136 -0.1752
 9711TIP3    H253329   6.406   5.645   8.787 -1.7689  1.9955  1.6998
 9712TIP3   OH253330   3.439   0.674   9.971 -0.1616  0.5824  0.0872
 9712TIP3    H153331   3.502   0.625   9.917 -0.9898  1.2572 -1.5383
 9712TIP3    H253332   3.465   0.765   9.960  1.1284  0.6310  2.7952
 9713TIP3   OH253333   0.524   5.867   8.548 -0.4958 -0.3147  0.9308
 9713TIP3    H153334   0.438   5.824   8.557 -0.8632 -0.0869 -1.0799
 9713TIP3    H253335   0.503   5.959   8.530  0.0680 -0.5458 -1.1733
 9714TIP3   OH253336   2.378   1.024  11.547  0.6162  0.2256 -0.3599
 9714TIP3    H153337   2.351   0.938  11.579  0.2368  0.4315 -0.1119
 9714TIP3    H253338   2.332   1.034  11.463 -0.4685  0.7635  0.2743
 9715TIP3   OH253339   2.153   1.441   9.944 -0.4658  0.3350 -0.4534
 9715TIP3    H153340   2.141   1.500   9.869 -0.1257  0.0795 -0.7099
 9715TIP3    H253341   2.247   1.422   9.945 -0.5130  0.1121 -0.1318
 9716TIP3   OH253342   1.257   4.149  10.068  0.6709 -0.4994 -0.7203
 9716TIP3    H153343   1.170   4.112  10.049  0.1084 -0.4697  1.5790
 9716TIP3    H253344   1.242   4.242  10.078  0.7404 -0.6409  0.8242
 9717TIP3   OH253345   4.376   2.890  10.815 -0.0849 -0.7497 -0.0631
 9717TIP3    H153346   4.282   2.876  10.808 -0.7270  1.7839  2.2107
 9717TIP3    H253347   4.398   2.861  10.903  1.0422 -0.1231 -0.1250
 9718TIP3   OH253348   3.955   3.300  10.869 -0.4222 -0.1225 -0.1534
 9718TIP3    H153349   4.019   3.318  10.938 -0.7968 -0.0710  0.1816
 9718TIP3    H253350   3.982   3.356  10.796  0.0324 -0.2493 -0.0846
 9719TIP3   OH253351   1.676   3.038  10.120  0.7305 -0.4511  0.5478
 9719TIP3    H153352   1.643   2.982  10.050  0.5178 -0.1146  0.3742
 9719TIP3    H253353   1.612   3.028  10.191  0.9649 -0.8196  0.7102
 9720TIP3   OH253354   3.679   4.275  12.345  0.7009  0.4590  0.0770
 9720TIP3    H153355   3.746   4.344  12.343  1.6442 -0.3699  1.4055
 9720TIP3    H253356   3.709   4.214  12.413 -2.1794  0.8279  1.8835
 9721TIP3   OH253357   3.306   3.896  11.748  0.6867 -0.8899 -0.2803
 9721TIP3    H153358   3.238   3.936  11.802  1.1734 -1.2195  0.6165
 9721TIP3    H253359   3.300   3.803  11.768  2.1582 -0.8025  0.7554
 9722TIP3   OH253360   6.456   5.594  12.380  0.3039  0.1491 -0.2818
 9722TIP3    H153361   6.486   5.665  12.323 -1.7638  1.3106 -0.0248
 9722TIP3    H253362   6.520   5.593  12.452  1.0869  0.8850 -0.9414
 9723TIP3   OH253363   6.088   5.189   9.371 -0.6788 -0.1626 -0.4409
 9723TIP3    H153364   6.032   5.157   9.300  0.5978 -0.4710 -1.3528
 9723TIP3    H253365   6.177   5.169   9.342 -0.0451  0.9562  0.6354
 9724TIP3   OH253366   0.182   4.869  10.916  0.5715 -0.3382 -0.3056
 9724TIP3    H153367   0.236   4.790  10.904  0.2126 -0.7145  0.4818
 9724TIP3    H253368   0.193   4.918  10.834  3.2336  0.2939  0.3270
 9725TIP3   OH253369   2.531   5.106   8.819  0.5281  0.0771  0.1665
 9725TIP3    H153370   2.579   5.096   8.737  0.3434 -0.3399  0.1034
 9725TIP3    H253371   2.567   5.038   8.876 -1.2834 -1.5732 -0.5259
 9726TIP3   OH253372   5.244   5.297  10.853 -0.1415 -0.1548 -0.2494
 9726TIP3    H153373   5.309   5.365  10.872 -0.8684 -0.0825  2.3813
 9726TIP3    H253374   5.213   5.269  10.939 -2.6967 -1.0546 -1.3552
 9727TIP3   OH253375   2.005   1.454  10.584 -0.4079  0.2082  0.6218
 9727TIP3    H153376   1.952   1.381  10.618  0.1749  0.7080  2.7764
 9727TIP3    H253377   2.022   1.509  10.661  1.2384  1.3129 -0.4671
 9728TIP3   OH253378   3.511   1.213   9.808 -0.3440  0.2690  0.2933
 9728TIP3    H153379   3.603   1.235   9.796 -0.5357  0.7178 -0.4378
 9728TIP3    H253380   3.491   1.237   9.898 -0.1801  1.8071 -0.0539
 9729TIP3   OH253381   3.292   1.346  10.894 -0.2781 -0.0878 -0.5707
 9729TIP3    H153382   3.308   1.258  10.928  3.2188  0.7216  0.2141
 9729TIP3    H253383   3.197   1.349  10.881 -0.6065 -3.7837 -0.2100
 9730TIP3   OH253384   0.943   0.758   8.981  0.2656  0.1124 -0.3313
 9730TIP3    H153385   0.874   0.692   8.984  1.3792 -1.0738  0.0987
 9730TIP3    H253386   0.965   0.774   9.073  2.0283 -1.1469 -0.4847
 9731TIP3   OH253387   2.957   5.989   9.218  0.0276  0.4242  0.0189
 9731TIP3    H153388   3.001   5.972   9.135  0.6879 -0.0686  0.4682
 9731TIP3    H253389   2.876   5.938   9.213  0.1705  0.2184 -0.2328
 9732TIP3   OH253390   4.106   1.853  10.860  0.1178 -0.1167  0.1331
 9732TIP3    H153391   4.014   1.840  10.882  0.6165 -0.2061  2.4391
 9732TIP3    H253392   4.127   1.939  10.897  0.7209  0.3541 -1.2681
 9733TIP3   OH253393   5.642   1.445  11.541 -0.1848  0.3285 -0.1009
 9733TIP3    H153394   5.655   1.499  11.619 -1.3092  1.7774 -0.8529
 9733TIP3    H253395   5.589   1.371  11.572 -0.0622  0.5335  0.6308
 9734TIP3   OH253396   4.658   3.800   9.057 -0.1336 -0.6792 -0.7866
 9734TIP3    H153397   4.633   3.772   8.969 -0.2092  2.0934 -1.7526
 9734TIP3    H253398   4.600   3.875   9.075  1.5105  0.3279  0.6022
 9735TIP3   OH253399   3.435   6.671   8.880  0.3693  0.6472  0.4223
 9735TIP3    H153400   3.383   6.750   8.896 -0.9948  0.0443 -0.7647
 9735TIP3    H253401   3.522   6.704   8.859 -0.2013  1.8649 -0.1487
 9736TIP3   OH253402   5.384   5.829  11.368 -0.1058  0.5552 -0.3379
 9736TIP3    H153403   5.302   5.861  11.330 -0.3265 -0.6163 -0.8733
 9736TIP3    H253404   5.431   5.909  11.394 -1.4555  1.2336  0.0863
 9737TIP3   OH253405   3.793   2.035  10.930  0.0242 -0.1950  0.2808
 9737TIP3    H153406   3.787   1.950  10.888  0.3760  1.0482 -2.5008
 9737TIP3    H253407   3.711   2.043  10.979 -1.6492 -0.7764 -2.2423
 9738TIP3   OH253408   1.210   1.961   9.462  0.0532  0.1893  0.0757
 9738TIP3    H153409   1.244   1.874   9.441  0.0919  0.4712 -1.1480
 9738TIP3    H253410   1.280   2.021   9.435 -0.9409  0.7234 -1.5091
 9739TIP3   OH253411   4.504   3.855   9.582 -0.2560  0.4410  0.3735
 9739TIP3    H153412   4.453   3.891   9.654 -0.6708  2.2528 -0.7470
 9739TIP3    H253413   4.483   3.912   9.507  1.0698 -0.6259 -0.8726
 9740TIP3   OH253414   3.181   5.399   8.687 -0.4486  0.2356 -0.1784
 9740TIP3    H153415   3.210   5.489   8.699  0.1473  0.1180 -0.7278
 9740TIP3    H253416   3.246   5.346   8.733 -0.6261  0.0633 -0.1219
 9741TIP3   OH253417   6.297   2.015  11.338 -0.0832  0.1997 -0.0097
 9741TIP3    H153418   6.252   2.010  11.423 -0.2191 -0.7138 -0.1230
 9741TIP3    H253419   6.242   1.963  11.279 -0.6444  1.8196 -0.9716
 9742TIP3   OH253420   2.254   1.039  11.318  0.0523 -0.1449  0.4744
 9742TIP3    H153421   2.238   0.987  11.239 -2.4653  0.5905  0.4224
 9742TIP3    H253422   2.324   1.100  11.292 -0.1475 -0.4678 -0.9189
 9743TIP3   OH253423   0.796   5.137   8.818  0.3967  0.2927  0.4289
 9743TIP3    H153424   0.752   5.217   8.846 -0.1711 -0.1181  0.7460
 9743TIP3    H253425   0.859   5.119   8.888  0.9046  0.7441  0.0973
 9744TIP3   OH253426   5.748   5.117  10.014  0.5477  0.3506 -0.7282
 9744TIP3    H153427   5.804   5.040  10.010  0.7781  0.5119 -0.6166
 9744TIP3    H253428   5.808   5.190  10.030  0.2944  0.5065 -0.4752
 9745TIP3   OH253429   5.397   5.165  10.624  0.3485 -0.2392 -0.5039
 9745TIP3    H153430   5.360   5.254  10.621  0.4650 -0.2104 -1.1257
 9745TIP3    H253431   5.488   5.178  10.652 -0.1516 -0.3325  1.3110
 9746TIP3   OH253432   5.740   4.565  11.077 -0.0336  0.1240 -0.1797
 9746TIP3    H153433   5.768   4.653  11.104  0.8539  0.2618 -1.4912
 9746TIP3    H253434   5.646   4.574  11.062 -0.0409  0.7171  0.1853
 9747TIP3   OH253435   5.136   3.588  11.170  0.1229 -0.4707  0.4018
 9747TIP3    H153436   5.084   3.508  11.180  0.6694 -0.6599  2.0725
 9747TIP3    H253437   5.108   3.643  11.244  0.0366  0.7358 -0.5019
 9748TIP3   OH253438   6.521   0.418   9.531  0.3497  0.2386 -0.0881
 9748TIP3    H153439   6.603   0.460   9.558  0.0196  0.0667  1.2509
 9748TIP3    H253440   6.497   0.363   9.606 -1.6707  1.2615  0.0741
 9749TIP3   OH253441   4.528   1.410  10.497  0.1350  0.2132  0.2063
 9749TIP3    H153442   4.455   1.401  10.559  1.6450 -1.1517  1.8952
 9749TIP3    H253443   4.584   1.478  10.536  0.9098 -0.3895  0.1599
 9750TIP3   OH253444   0.035   2.932   8.763 -0.0091  0.1827  0.1275
 9750TIP3    H153445  -0.041   2.983   8.734 -0.4270 -0.8608 -0.6570
 9750TIP3    H253446   0.110   2.988   8.744 -0.5469  1.1368  0.6988
 9751TIP3   OH253447   4.909   5.240  10.026 -0.0373  0.1627 -0.2234
 9751TIP3    H153448   4.962   5.222   9.948 -1.9857 -2.0260 -1.1655
 9751TIP3    H253449   4.873   5.327  10.010  1.5628  0.8037 -0.5409
 9752TIP3   OH253450   6.672   6.193  11.674 -0.1631 -0.0464  0.0755
 9752TIP3    H153451   6.716   6.275  11.695 -1.0279  0.2225  0.9376
 9752TIP3    H253452   6.580   6.210  11.693 -0.4326 -1.0548 -0.2558
 9753TIP3   OH253453   5.350   6.388   9.732 -0.1531  0.0061  0.0021
 9753TIP3    H153454   5.438   6.372   9.698 -0.0697 -0.1937  0.3167
 9753TIP3    H253455   5.343   6.333   9.809 -1.3755 -1.8187 -1.3132
 9754TIP3   OH253456   2.015   5.078  10.233  0.3575  0.6557  0.5652
 9754TIP3    H153457   2.020   5.171  10.212  2.7123  0.4354 -0.1037
 9754TIP3    H253458   1.933   5.049  10.193  1.3017  1.7292 -2.4131
 9755TIP3   OH253459   3.256   3.976  10.637  0.0466 -0.1539 -0.1705
 9755TIP3    H153460   3.193   3.912  10.669 -0.2183 -0.5357 -1.3956
 9755TIP3    H253461   3.231   3.990  10.546  1.3281  0.1854 -0.4850
 9756TIP3   OH253462   0.514   3.657   9.577  0.3645  0.6177  0.2715
 9756TIP3    H153463   0.515   3.569   9.540 -2.6444  1.3043 -1.8433
 9756TIP3    H253464   0.549   3.712   9.507 -1.0071  1.4260  0.1848
 9757TIP3   OH253465   4.947   4.668  11.401 -0.4582 -0.0082 -0.1543
 9757TIP3    H153466   5.037   4.651  11.428 -0.5115 -0.9009 -0.4958
 9757TIP3    H253467   4.955   4.733  11.331 -0.1663  0.6906  0.5166
 9758TIP3   OH253468   5.580   6.466   9.568 -0.5328  0.2485 -0.2014
 9758TIP3    H153469   5.585   6.528   9.641  0.2100 -0.6684  0.5458
 9758TIP3    H253470   5.552   6.519   9.493  1.9119  1.9039 -0.0415
 9759TIP3   OH253471   0.496   5.344  10.596  1.0984 -0.0038  0.3361
 9759TIP3    H153472   0.524   5.408  10.531  0.2214 -1.1470 -1.2315
 9759TIP3    H253473   0.570   5.336  10.655  2.7706 -0.4437 -1.7178
 9760TIP3   OH253474   4.312   3.536   9.004  0.3176 -0.4479 -0.1718
 9760TIP3    H153475   4.217   3.525   9.010  0.2832 -0.4987 -0.7956
 9760TIP3    H253476   4.347   3.461   9.052  0.0478  0.0126  0.7844
 9761TIP3   OH253477   3.935   5.046  10.476  0.6214 -0.4728  0.1536
 9761TIP3    H153478   3.938   4.987  10.552  1.0650  1.9588  2.1582
 9761TIP3    H253479   3.847   5.084  10.479  0.3719 -0.9024 -1.0573
 9762TIP3   OH253480   0.538   1.153   9.897  0.4839  0.2688 -0.3567
 9762TIP3    H153481   0.574   1.207   9.968 -0.3320 -0.5170  0.6831
 9762TIP3    H253482   0.443   1.164   9.904  0.3902  0.1535 -1.3289
 9763TIP3   OH253483   0.329   5.209  11.207 -0.2134  0.1453 -0.4910
 9763TIP3    H153484   0.405   5.264  11.229 -1.1086  0.7894  1.2080
 9763TIP3    H253485   0.356   5.121  11.235 -0.3614  0.5138  0.8993
 9764TIP3   OH253486   0.247   5.434  11.396  0.3118  0.0064  0.5234
 9764TIP3    H153487   0.244   5.525  11.425 -0.1646  0.8142 -1.8677
 9764TIP3    H253488   0.315   5.432  11.329 -1.0146 -0.9173 -0.8703
 9765TIP3   OH253489   1.057   4.243   9.280 -0.3773 -0.0643 -0.0021
 9765TIP3    H153490   1.004   4.321   9.263  1.6507  1.1116 -1.2973
 9765TIP3    H253491   1.125   4.272   9.341  0.5323 -0.7515 -0.6665
 9766TIP3   OH253492   5.275   6.729  10.133 -0.0855 -0.1538  0.4456
 9766TIP3    H153493   5.335   6.719  10.059 -0.5085 -1.9830  0.2907
 9766TIP3    H253494   5.293   6.816  10.168  0.4329  0.5776 -1.5296
 9767TIP3   OH253495   3.158   0.466  11.330 -0.2466  0.3551 -0.2995
 9767TIP3    H153496   3.064   0.458  11.313 -0.5676  1.9129  0.5615
 9767TIP3    H253497   3.165   0.475  11.425  0.8406 -0.3342 -0.2881
 9768TIP3   OH253498   5.220   2.831  10.287 -0.4993 -0.3598 -0.6963
 9768TIP3    H153499   5.303   2.789  10.267 -0.6085 -0.5621 -0.7227
 9768TIP3    H253500   5.164   2.813  10.211 -0.5206 -0.0967 -0.7476
 9769TIP3   OH253501   4.323   0.906  10.902 -0.2951 -0.5844 -0.2946
 9769TIP3    H153502   4.393   0.921  10.839  1.7389  0.5005  2.0623
 9769TIP3    H253503   4.308   0.812  10.899 -0.6429 -0.5213 -2.6850
 9770TIP3   OH253504   5.781   1.753   9.233 -0.0321  0.0472 -0.3934
 9770TIP3    H153505   5.689   1.762   9.259  0.2292  0.5375  0.3886
 9770TIP3    H253506   5.810   1.671   9.273 -0.3277 -0.5147 -1.2859
 9771TIP3   OH253507   3.031   5.829   9.783 -0.0218  0.4381 -0.2142
 9771TIP3    H153508   3.020   5.924   9.782  1.6193  0.6577 -0.8626
 9771TIP3    H253509   3.075   5.809   9.700 -2.3981 -1.2002 -1.1977
 9772TIP3   OH253510   6.704   2.589  11.236  0.5718 -0.5460  0.3670
 9772TIP3    H153511   6.746   2.668  11.200  1.0767 -0.5197  0.9931
 9772TIP3    H253512   6.671   2.617  11.321 -2.5653  0.0141 -0.8642
 9773TIP3   OH253513   4.362   0.880  11.231 -0.1126  0.5715 -0.5328
 9773TIP3    H153514   4.273   0.846  11.224 -0.6709  1.2167  2.1753
 9773TIP3    H253515   4.418   0.809  11.201 -1.4870  0.2049 -2.4282
 9774TIP3   OH253516   0.369   3.987   9.286  0.3871 -0.0327  0.3098
 9774TIP3    H153517   0.282   3.969   9.323 -1.2911 -1.9231 -3.8483
 9774TIP3    H253518   0.367   4.080   9.264 -0.7836 -0.1097 -0.0087
 9775TIP3   OH253519   1.435   3.780   9.416 -0.4666 -0.0158 -0.3429
 9775TIP3    H153520   1.354   3.817   9.452 -0.6099 -0.1003 -0.5760
 9775TIP3    H253521   1.492   3.769   9.492  0.3573  2.5633 -0.4762
 9776TIP3   OH253522   0.046   5.191  11.130  0.2712 -0.1841 -0.1861
 9776TIP3    H153523   0.142   5.185  11.132  0.2036 -1.4292 -0.3068
 9776TIP3    H253524   0.026   5.264  11.189  1.2715 -0.1105  0.0895
 9777TIP3   OH253525   0.924   4.916  10.249  0.3794 -0.5291  0.6772
 9777TIP3    H153526   0.871   4.837  10.253  2.3704 -2.1203 -1.6790
 9777TIP3    H253527   1.013   4.888  10.271  0.7990  1.5563  2.0119
 9778TIP3   OH253528   0.729   5.980   9.102 -0.1415 -0.0220  0.2817
 9778TIP3    H153529   0.726   5.885   9.095 -1.1137  0.0123  0.1809
 9778TIP3    H253530   0.719   5.998   9.196 -0.8803  0.0090  0.2013
 9779TIP3   OH253531   4.575   1.849  11.591  0.3243  0.5423  0.2869
 9779TIP3    H153532   4.512   1.784  11.562  0.8070 -0.0444  0.5473
 9779TIP3    H253533   4.583   1.909  11.516 -0.1928  0.3673  0.0888
 9780TIP3   OH253534   4.533   4.405  11.797 -0.5695 -0.3597 -0.2818
 9780TIP3    H153535   4.549   4.362  11.881  2.3389  1.3911  0.2006
 9780TIP3    H253536   4.568   4.345  11.732  1.3185  0.1591  0.1914
 9781TIP3   OH253537   3.739   1.809  10.518  0.0533  0.1223  0.1256
 9781TIP3    H153538   3.815   1.864  10.535 -0.6187  0.4644  2.2257
 9781TIP3    H253539   3.751   1.733  10.575 -0.2167 -0.7995 -1.0008
 9782TIP3   OH253540   1.712   4.382   9.471 -0.4202  0.4533  0.0580
 9782TIP3    H153541   1.755   4.337   9.544 -1.0739 -0.8071 -0.3078
 9782TIP3    H253542   1.648   4.439   9.514 -0.0678  0.5144  0.5123
 9783TIP3   OH253543   4.547   5.239   8.476  0.3406  0.0329  0.4048
 9783TIP3    H153544   4.575   5.313   8.530  1.1595 -0.7386  1.0860
 9783TIP3    H253545   4.475   5.199   8.525  1.0787 -0.6631  0.9537
 9784TIP3   OH253546   1.768   6.112  10.833  1.1490 -0.3960 -0.0093
 9784TIP3    H153547   1.725   6.159  10.762 -0.9340  0.1765  1.5180
 9784TIP3    H253548   1.722   6.028  10.838 -0.7583  0.6627  2.3801
 9785TIP3   OH253549   1.710   2.118  10.241  0.3755  0.3768  0.7251
 9785TIP3    H153550   1.762   2.145  10.165  0.4103  1.2800  1.0645
 9785TIP3    H253551   1.669   2.036  10.213  0.8358  0.4011 -0.0627
 9786TIP3   OH253552   5.793   6.288   9.599 -0.6096  0.5360 -0.0955
 9786TIP3    H153553   5.762   6.224   9.663  1.4010  0.4888  0.9139
 9786TIP3    H253554   5.715   6.338   9.576 -2.0232 -1.5260 -0.0839
 9787TIP3   OH253555   0.416   1.463  10.810  0.2542 -0.0253  0.0984
 9787TIP3    H153556   0.352   1.412  10.860 -1.4329  2.4275  0.6179
 9787TIP3    H253557   0.378   1.471  10.723  0.4441  0.4007  0.0480
 9788TIP3   OH253558   2.632   6.104  12.007  0.5387  0.5343 -0.1466
 9788TIP3    H153559   2.642   6.011  12.026 -0.3289  0.9625  2.9625
 9788TIP3    H253560   2.710   6.145  12.044 -0.8813  1.3586  2.1693
 9789TIP3   OH253561   3.309   0.920   9.534 -0.6749  0.3226 -0.0960
 9789TIP3    H153562   3.286   0.835   9.497 -1.7147  0.7962 -0.5639
 9789TIP3    H253563   3.358   0.899   9.613 -0.6993 -0.7092 -0.3465
 9790TIP3   OH253564   5.831   2.553  10.781  0.4322 -0.3621 -0.7353
 9790TIP3    H153565   5.805   2.535  10.871  1.1026 -0.3247 -0.5252
 9790TIP3    H253566   5.889   2.629  10.788 -2.6770  2.3261 -1.6289
 9791TIP3   OH253567   0.159   4.044   8.488 -0.5255  0.1966  0.6269
 9791TIP3    H153568   0.131   4.115   8.430 -2.1103 -0.6436  0.2942
 9791TIP3    H253569   0.077   4.009   8.524  0.1518 -1.8419  0.3162
 9792TIP3   OH253570   0.808   1.451   8.933 -0.1310  0.2577 -1.0620
 9792TIP3    H153571   0.816   1.445   9.028 -1.9061  1.5478 -0.7740
 9792TIP3    H253572   0.891   1.490   8.905  0.5589 -0.4671 -0.1032
 9793TIP3   OH253573   0.986   0.916  11.996 -0.0922  0.6416 -0.0038
 9793TIP3    H153574   0.973   0.872  12.080  0.9063 -0.8926 -0.6116
 9793TIP3    H253575   0.955   1.005  12.011 -1.0593  0.0807  1.6366
 9794TIP3   OH253576   5.382   0.478   9.477  0.7041 -0.5965  0.1911
 9794TIP3    H153577   5.347   0.389   9.480 -1.2788 -0.0491 -2.5583
 9794TIP3    H253578   5.345   0.521   9.555  0.4399 -1.7439  0.7243
 9795TIP3   OH253579   0.900   2.312   9.610  0.3112 -0.1360  0.0215
 9795TIP3    H153580   0.892   2.352   9.696  0.0763 -0.8068  0.3156
 9795TIP3    H253581   0.971   2.248   9.620 -2.0034 -2.7641  0.7263
 9796TIP3   OH253582   3.752   4.803  12.045 -0.5549 -0.2683  0.4557
 9796TIP3    H153583   3.670   4.839  12.079  0.7120  1.5820  1.7693
 9796TIP3    H253584   3.807   4.792  12.123 -0.3462 -3.9415 -0.0460
 9797TIP3   OH253585   6.439   2.123  10.255  0.8009  0.5689  0.6889
 9797TIP3    H153586   6.490   2.042  10.265  2.2154  1.2096 -0.8880
 9797TIP3    H253587   6.428   2.133  10.161 -1.7348  0.8261  0.9598
 9798TIP3   OH253588   5.136   5.962  11.310  0.0102 -0.5570 -0.4854
 9798TIP3    H153589   5.153   5.943  11.217 -0.3223 -2.2621 -0.2330
 9798TIP3    H253590   5.043   5.943  11.321  0.1251 -0.6875  0.2759
 9799TIP3   OH253591   4.059   4.278  10.686  0.0980  0.3558  0.0330
 9799TIP3    H153592   4.069   4.260  10.593  0.7308 -1.7020  0.4556
 9799TIP3    H253593   4.146   4.304  10.715  0.0237  0.4621  0.1648
 9800TIP3   OH253594   6.103   5.687  11.876 -0.0595  0.3219  0.0414
 9800TIP3    H153595   6.033   5.681  11.811 -0.2183  3.2631 -0.2173
 9800TIP3    H253596   6.074   5.632  11.948 -2.6312  1.3087 -0.1241
 9801TIP3   OH253597   1.843   1.009  12.196  0.5326 -0.3774  0.0128
 9801TIP3    H153598   1.807   0.980  12.280  0.7985 -0.4866  0.0893
 9801TIP3    H253599   1.802   1.095  12.181 -1.7925 -1.5866 -1.1543
 9802TIP3   OH253600   2.610   3.412   9.397  0.7013 -0.1562 -0.2093
 9802TIP3    H153601   2.698   3.400   9.432  1.2311 -2.0168 -1.9579
 9802TIP3    H253602   2.574   3.323   9.393 -0.9913  0.4884 -0.2477
 9803TIP3   OH253603   5.041   4.977   8.568 -0.1648 -0.8896  0.2677
 9803TIP3    H153604   4.965   5.018   8.527  0.1230 -0.2015  0.4094
 9803TIP3    H253605   5.006   4.899   8.611 -0.6438 -1.0493 -0.3941
 9804TIP3   OH253606   4.418   1.700   9.951  0.1954 -0.3787 -0.7354
 9804TIP3    H153607   4.387   1.714  10.041 -1.8741 -0.9889 -1.3113
 9804TIP3    H253608   4.463   1.782   9.929 -1.1631  0.6442  0.1148
 9805TIP3   OH253609   3.548   1.056   9.334  0.6309  0.5771  0.1528
 9805TIP3    H153610   3.534   1.113   9.409  1.0565  4.4073 -2.4288
 9805TIP3    H253611   3.460   1.027   9.309  0.4918 -0.8689  2.0298
 9806TIP3   OH253612   2.274   6.547  10.150 -0.3157 -0.2560  0.0473
 9806TIP3    H153613   2.238   6.582  10.232 -1.3996  0.3113 -0.6500
 9806TIP3    H253614   2.326   6.620  10.114 -1.9564  0.4285 -1.0307
 9807TIP3   OH253615   2.045   4.744  10.732  0.0490  0.0389  0.1292
 9807TIP3    H153616   1.990   4.771  10.659 -2.3904  0.5990  2.0539
 9807TIP3    H253617   2.021   4.652  10.748  2.6414 -1.0192 -1.4575
 9808TIP3   OH253618   5.501   0.259  10.709 -0.0872  0.0842  0.0777
 9808TIP3    H153619   5.436   0.261  10.638  0.1592  1.9020 -0.1451
 9808TIP3    H253620   5.574   0.209  10.674 -0.8496 -0.9138 -0.1270
 9809TIP3   OH253621   5.355   5.613  12.139 -0.4285 -0.3710 -0.1427
 9809TIP3    H153622   5.399   5.619  12.224  2.2596  2.1541 -1.5538
 9809TIP3    H253623   5.266   5.643  12.156  0.1357  0.3917  1.7315
 9810TIP3   OH253624   4.164   3.624   9.552  0.0965  0.1133 -0.0354
 9810TIP3    H153625   4.193   3.578   9.474 -1.9943 -0.6417 -0.4334
 9810TIP3    H253626   4.121   3.703   9.519  0.3162  0.4341  0.4311
 9811TIP3   OH253627   3.004   5.746  11.856  0.2619 -0.2428  0.5945
 9811TIP3    H153628   3.004   5.799  11.936 -0.2066  0.1186  0.3591
 9811TIP3    H253629   2.913   5.749  11.826  0.5633  0.1665 -0.3091
 9812TIP3   OH253630   0.193   0.231   9.642 -0.1287  0.1091  0.2409
 9812TIP3    H153631   0.211   0.267   9.555  2.6655  1.1713  1.1439
 9812TIP3    H253632   0.225   0.298   9.703 -0.6305 -1.2438  2.0792
 9813TIP3   OH253633   1.449   0.003  11.239 -0.2447 -0.0385 -0.4589
 9813TIP3    H153634   1.399   0.083  11.223 -0.4252  0.1763  1.0671
 9813TIP3    H253635   1.425  -0.056  11.168 -2.2219  0.2743 -0.0833
 9814TIP3   OH253636   3.074   4.979   8.653  0.0725  0.2240 -0.3523
 9814TIP3    H153637   3.102   5.041   8.721  1.8992 -0.2974 -0.5573
 9814TIP3    H253638   3.132   4.998   8.579  0.5490 -1.5583 -0.4846
 9815TIP3   OH253639   0.588   2.118   9.789 -0.2282 -0.1266  0.0148
 9815TIP3    H153640   0.670   2.168   9.781  0.1609 -0.7672 -0.0840
 9815TIP3    H253641   0.520   2.185   9.792  0.3574  0.4629  0.8874
 9816TIP3   OH253642   3.513   0.254  11.077 -0.1178 -0.4120 -0.2941
 9816TIP3    H153643   3.589   0.214  11.119 -0.5909 -0.9168  0.1035
 9816TIP3    H253644   3.527   0.243  10.984 -0.6552 -2.3483 -0.1902
 9817TIP3   OH253645   5.685   0.666  12.717 -0.3308 -0.4342 -0.1846
 9817TIP3    H153646   5.594   0.671  12.690 -0.2427 -1.9325 -0.8880
 9817TIP3    H253647   5.702   0.572  12.727  1.7760 -0.4067 -2.4605
 9818TIP3   OH253648   0.505   4.559   8.762 -0.1582 -0.3467  0.1170
 9818TIP3    H153649   0.445   4.547   8.688 -0.1700 -2.1033  0.3830
 9818TIP3    H253650   0.449   4.588   8.834 -0.4481 -0.4760 -0.0550
 9819TIP3   OH253651   2.027   3.418  10.584  0.0283  0.0921  0.0152
 9819TIP3    H153652   2.102   3.423  10.525 -0.6307  0.0478 -0.8510
 9819TIP3    H253653   2.055   3.359  10.654  0.0514 -1.7510 -1.4552
 9820TIP3   OH253654   5.142   3.332   9.805  0.0877  0.3151 -0.0303
 9820TIP3    H153655   5.186   3.318   9.721 -0.5794  0.0372 -0.3448
 9820TIP3    H253656   5.211   3.324   9.870  0.6119  0.5086 -0.5493
 9821TIP3   OH253657   2.155   2.727  10.503 -0.0312 -0.0538 -0.1201
 9821TIP3    H153658   2.121   2.743  10.416  0.0940 -0.1840 -0.1944
 9821TIP3    H253659   2.077   2.723  10.559 -0.2242 -1.3737 -0.4533
 9822TIP3   OH253660   5.005   0.024  10.867  0.3007  0.0082 -0.0615
 9822TIP3    H153661   5.000  -0.031  10.789  1.0001  0.6627 -0.5786
 9822TIP3    H253662   5.001   0.114  10.834  1.6113  0.3209  0.5420
 9823TIP3   OH253663   0.133   4.565  11.080  0.1378  0.0265 -0.0576
 9823TIP3    H153664   0.163   4.490  11.030  0.8030 -1.5498  2.5133
 9823TIP3    H253665   0.195   4.572  11.154 -1.3400  1.5404  1.1377
 9824TIP3   OH253666   0.051   3.141  11.147 -0.1953 -0.3850  0.7399
 9824TIP3    H153667   0.025   3.225  11.184 -0.2047  0.2652 -0.6824
 9824TIP3    H253668   0.146   3.149  11.134 -0.0148 -1.0001  1.5407
 9825TIP3   OH253669   5.812   1.417  11.860  0.3589  0.0010  0.0726
 9825TIP3    H153670   5.810   1.323  11.840  1.2497  0.1842 -0.9939
 9825TIP3    H253671   5.737   1.453  11.814  1.0630  0.0632 -1.0786
 9826TIP3   OH253672   0.819   0.735  12.178  0.1704  0.2814 -0.0601
 9826TIP3    H153673   0.746   0.762  12.122 -0.9988  0.8749  1.6592
 9826TIP3    H253674   0.780   0.722  12.264  1.5645 -2.4059  0.2797
 9827TIP3   OH253675   3.588   2.272   9.170  0.0978  0.1535  0.0491
 9827TIP3    H153676   3.662   2.274   9.109  0.1988 -1.1498  0.0971
 9827TIP3    H253677   3.627   2.284   9.256  0.3559 -1.0974  0.1308
 9828TIP3   OH253678   2.287   1.213   9.608  0.1112 -0.3311 -0.1559
 9828TIP3    H153679   2.335   1.268   9.670 -0.7672 -0.3969  0.6140
 9828TIP3    H253680   2.252   1.274   9.543 -2.3193  0.3728  1.6264
 9829TIP3   OH253681   0.071   2.878  10.304 -0.1336  0.2123 -0.1875
 9829TIP3    H153682   0.003   2.926  10.257  1.1143  2.5384  0.2169
 9829TIP3    H253683   0.046   2.886  10.396  0.6492  1.1427 -0.0288
 9830TIP3   OH253684   4.552   1.560   9.457 -0.3877  0.2926 -0.5941
 9830TIP3    H153685   4.532   1.559   9.550  0.0075 -2.0738 -0.4905
 9830TIP3    H253686   4.644   1.536   9.451 -0.1748  1.2172 -1.5916
 9831TIP3   OH253687   2.832   3.441   9.545  0.0796 -0.2055  0.7121
 9831TIP3    H153688   2.889   3.511   9.575  1.3365 -1.2234  0.7645
 9831TIP3    H253689   2.891   3.370   9.519 -1.1611 -1.3784  0.9535
 9832TIP3   OH253690   0.407   2.555   9.111 -0.5651  0.0210 -0.2287
 9832TIP3    H153691   0.376   2.489   9.050  0.8672 -0.2742 -0.6771
 9832TIP3    H253692   0.379   2.525   9.197 -1.9859  0.0767 -0.6516
 9833TIP3   OH253693   0.913   3.992  11.356 -0.3557 -0.0732  0.3330
 9833TIP3    H153694   0.842   3.968  11.416 -2.7872  0.4376 -2.1715
 9833TIP3    H253695   0.946   4.075  11.391  0.4643 -1.2650  2.6329
 9834TIP3   OH253696   4.928   0.497   9.639  0.4782 -0.7543  0.0738
 9834TIP3    H153697   4.912   0.491   9.545 -0.0306  0.6706  0.0466
 9834TIP3    H253698   4.861   0.557   9.671  0.4098 -1.5060  1.4160
 9835TIP3   OH253699   4.588   2.931   9.001  0.4380  0.3363 -1.0402
 9835TIP3    H153700   4.617   2.849   9.041  0.8290  0.4787 -1.0277
 9835TIP3    H253701   4.493   2.921   8.992  0.7173 -1.0389 -3.1406
 9836TIP3   OH253702   0.525   0.382  10.909  0.0004 -0.3306  0.4143
 9836TIP3    H153703   0.495   0.473  10.910  0.6176 -0.0989  2.9209
 9836TIP3    H253704   0.452   0.332  10.945 -0.4294 -0.9319 -1.1675
 9837TIP3   OH253705   2.633   0.044  10.643 -0.4007 -0.5567 -0.3568
 9837TIP3    H153706   2.635  -0.051  10.659  2.3931 -0.4578  0.4646
 9837TIP3    H253707   2.697   0.057  10.572 -0.3121  0.7779 -0.0570
 9838TIP3   OH253708   3.419   1.101  11.428 -0.2720  0.4491  0.3434
 9838TIP3    H153709   3.333   1.075  11.395  0.5464 -3.1499  0.6770
 9838TIP3    H253710   3.422   1.068  11.518  1.1994  1.2150  0.6124
 9839TIP3   OH253711   2.881   5.584   8.577 -0.4253 -0.2921 -0.0686
 9839TIP3    H153712   2.869   5.643   8.652  0.5929  0.0450 -0.1492
 9839TIP3    H253713   2.911   5.641   8.506 -0.6341 -0.7220 -0.5085
 9840TIP3   OH253714   6.314   0.282  11.813 -0.3595  0.2867  0.0854
 9840TIP3    H153715   6.335   0.371  11.782 -1.4438  0.5285 -0.0209
 9840TIP3    H253716   6.323   0.286  11.908  2.1354 -0.2189 -0.0708
 9841TIP3   OH253717   1.488   0.180  11.713  0.1452  0.0829  0.4827
 9841TIP3    H153718   1.465   0.145  11.799 -2.0419  1.6527  0.6165
 9841TIP3    H253719   1.478   0.106  11.653 -0.4989 -0.4758  1.2705
 9842TIP3   OH253720   3.657   5.097  11.087 -0.9319 -0.4560 -0.0982
 9842TIP3    H153721   3.597   5.158  11.046 -0.1756 -0.7681 -1.7381
 9842TIP3    H253722   3.632   5.011  11.053 -0.7245 -0.8210  0.6362
 9843TIP3   OH253723   3.320   5.908  12.484  0.1077  0.1215  0.4167
 9843TIP3    H153724   3.358   5.845  12.545 -0.5286  0.5140  1.2213
 9843TIP3    H253725   3.395   5.957  12.450  0.3646  0.7581  1.8476
 9844TIP3   OH253726   3.183   0.916  10.221 -0.1106  0.1442 -0.0982
 9844TIP3    H153727   3.171   0.836  10.272  1.6095 -0.9682 -1.3152
 9844TIP3    H253728   3.160   0.987  10.281 -0.6324 -1.2012  1.3564
 9845TIP3   OH253729   0.422   1.495  11.516  0.2933 -0.2493  0.2278
 9845TIP3    H153730   0.407   1.581  11.556  0.5524 -0.1340  0.0798
 9845TIP3    H253731   0.334   1.463  11.495  0.0695 -0.7852  1.8356
 9846TIP3   OH253732   2.368   5.037  11.481 -0.1879 -0.1511 -0.5068
 9846TIP3    H153733   2.304   4.966  11.491  0.8595 -1.6285 -3.1930
 9846TIP3    H253734   2.314   5.114  11.463 -1.3188 -0.4676  1.3071
 9847TIP3   OH253735   0.592   3.455  10.042  0.7355 -0.0523 -0.5319
 9847TIP3    H153736   0.628   3.389   9.983  1.4170 -0.9627  0.8275
 9847TIP3    H253737   0.648   3.532  10.031 -0.5551  0.6444 -2.7242
 9848TIP3   OH253738   3.080   4.279  10.903  0.3122 -0.0455 -0.0714
 9848TIP3    H153739   3.023   4.354  10.919  1.2314  0.7925 -0.5969
 9848TIP3    H253740   3.126   4.265  10.986 -0.5552 -0.6516  0.3173
 9849TIP3   OH253741   0.994   3.150  10.853 -0.1867  0.2974  0.0853
 9849TIP3    H153742   1.048   3.090  10.904 -1.1700 -0.9237 -0.2406
 9849TIP3    H253743   0.907   3.109  10.852 -0.5395  1.0015 -1.3685
 9850TIP3   OH253744   5.313   6.318  12.174 -0.1196  0.4130 -0.1421
 9850TIP3    H153745   5.355   6.385  12.121  0.9041  0.8350  1.1528
 9850TIP3    H253746   5.327   6.346  12.264  1.3666 -2.1014  0.4995
 9851TIP3   OH253747   4.535   3.353   8.809  0.2703 -0.7678  0.0933
 9851TIP3    H153748   4.502   3.290   8.745 -0.3447 -0.4056  0.0514
 9851TIP3    H253749   4.519   3.312   8.894  0.0341 -0.7501  0.0583
 9852TIP3   OH253750   1.282   6.702  10.630  0.0876  0.1711  0.4208
 9852TIP3    H153751   1.242   6.788  10.616  0.4787  0.4567  1.0223
 9852TIP3    H253752   1.223   6.658  10.691  0.3997  0.3837  0.8768
 9853TIP3   OH253753   1.165   2.407  11.824  0.0690 -0.0901  0.0919
 9853TIP3    H153754   1.202   2.397  11.912 -0.7271  0.6737  0.5267
 9853TIP3    H253755   1.241   2.426  11.768  0.6615 -1.2155  0.4880
 9854TIP3   OH253756   3.111   0.254  11.899  0.0902 -0.4169 -0.1006
 9854TIP3    H153757   3.143   0.332  11.853  1.2343 -0.8563 -0.0777
 9854TIP3    H253758   3.138   0.181  11.843 -1.0327 -0.8152 -0.1570
 9855TIP3   OH253759   1.955   6.725   9.706  0.4224  0.2918 -0.1114
 9855TIP3    H153760   2.028   6.687   9.658  0.3118  1.3958 -1.2042
 9855TIP3    H253761   1.994   6.794   9.759  0.4668 -0.5863  1.0505
 9856TIP3   OH253762   3.126   0.438   9.098 -0.1186 -0.2779 -0.2721
 9856TIP3    H153763   3.155   0.405   9.013 -0.6447 -0.2479 -0.4695
 9856TIP3    H253764   3.180   0.392   9.162 -0.1609 -0.7727 -0.5918
 9857TIP3   OH253765   3.045   1.082  11.057 -0.5409 -0.2031 -0.1895
 9857TIP3    H153766   3.130   1.046  11.033 -0.1272  0.8005 -0.2936
 9857TIP3    H253767   3.058   1.177  11.056 -1.4883 -0.0514  0.4337
 9858TIP3   OH253768   2.554   1.136  10.938  0.1156  0.1959 -0.2891
 9858TIP3    H153769   2.626   1.073  10.941 -0.6600 -0.6710  1.4130
 9858TIP3    H253770   2.592   1.218  10.966  0.7980  0.1547 -1.0512
 9859TIP3   OH253771   4.297   3.534   9.964 -0.0718  0.0451 -0.3217
 9859TIP3    H153772   4.332   3.535   9.875 -1.4159 -0.1031 -0.8608
 9859TIP3    H253773   4.256   3.619   9.975 -0.9419 -0.3736 -0.2645
 9860TIP3   OH253774   4.912   6.355   9.572  0.4034  0.3237  0.0057
 9860TIP3    H153775   4.865   6.438   9.571 -2.3400 -1.1004 -0.2738
 9860TIP3    H253776   5.005   6.379   9.574 -0.2973  3.3371  0.6006
 9861TIP3   OH253777   0.732   3.750  10.868  0.3354 -0.0706  0.4634
 9861TIP3    H153778   0.780   3.743  10.950  1.4240  2.0357  0.0923
 9861TIP3    H253779   0.800   3.758  10.801 -0.5393 -1.0366 -0.5902
 9862TIP3   OH253780   4.986   1.731  12.343 -0.4286 -0.2136  0.0850
 9862TIP3    H153781   5.065   1.690  12.307  0.2784  0.0802  1.2387
 9862TIP3    H253782   4.923   1.659  12.348 -0.4301 -0.3428 -1.3310
 9863TIP3   OH253783   3.964   2.395   9.522  0.0132 -0.4468 -0.4602
 9863TIP3    H153784   3.935   2.401   9.613  0.5312  0.3095 -0.3328
 9863TIP3    H253785   3.924   2.471   9.479  2.2386  1.0205 -0.1310
 9864TIP3   OH253786   1.659   5.470  10.142 -0.9138  0.3071 -0.3610
 9864TIP3    H153787   1.718   5.503  10.074 -3.1533  2.0492 -1.6134
 9864TIP3    H253788   1.661   5.375  10.131 -0.0579  0.4566 -1.8761
 9865TIP3   OH253789   6.620   2.556   9.899 -0.4546  0.2776  0.4795
 9865TIP3    H153790   6.672   2.508   9.964  0.4952  1.9652  1.0359
 9865TIP3    H253791   6.540   2.581   9.946 -1.1336 -1.0395  0.0707
 9866TIP3   OH253792   1.072   0.594  11.531 -0.8956 -0.8876  0.1757
 9866TIP3    H153793   1.046   0.593  11.623 -1.6868 -0.0005 -0.0258
 9866TIP3    H253794   0.992   0.614  11.483 -0.1660  0.4238 -0.5746
 9867TIP3   OH253795   4.377   3.174   8.677 -0.1649  0.6746  0.2872
 9867TIP3    H153796   4.370   3.081   8.657  0.6251  0.4087  1.1551
 9867TIP3    H253797   4.287   3.205   8.680 -0.5160 -0.3700  1.3328
 9868TIP3   OH253798   5.282   5.393  10.457  0.1285 -0.3033  0.1325
 9868TIP3    H153799   5.373   5.398  10.428 -0.0429  0.1753 -0.3376
 9868TIP3    H253800   5.251   5.484  10.455 -0.0702 -0.3368  1.2335
 9869TIP3   OH253801   4.943   3.140   9.473 -0.0907  0.5267 -0.3842
 9869TIP3    H153802   4.920   3.175   9.559 -1.1988  0.5456 -0.6785
 9869TIP3    H253803   5.021   3.189   9.448  0.7676 -0.0755  0.9672
 9870TIP3   OH253804   3.910   4.559   9.111 -0.2263 -0.1757  0.3626
 9870TIP3    H153805   3.974   4.520   9.051  0.2674  1.0374  0.0523
 9870TIP3    H253806   3.962   4.620   9.163 -0.7670 -0.7726  1.6172
 9871TIP3   OH253807   1.059   6.267  11.428  0.3606  0.0117 -0.1963
 9871TIP3    H153808   1.132   6.323  11.401  0.4474 -0.3318 -0.6868
 9871TIP3    H253809   0.985   6.298  11.376  0.5835 -0.8057 -1.0359
 9872TIP3   OH253810   1.763   6.063  11.192 -0.6971  0.1993  0.2773
 9872TIP3    H153811   1.685   6.078  11.138 -0.2784  3.4373  0.3815
 9872TIP3    H253812   1.828   6.027  11.131 -0.9931  1.5484 -0.9031
 9873TIP3   OH253813   0.787   0.710  10.201 -0.6299 -0.2921 -0.0616
 9873TIP3    H153814   0.876   0.685  10.222  0.0239  1.0026 -1.1176
 9873TIP3    H253815   0.737   0.692  10.281  0.0322 -3.3317 -0.2224
 9874TIP3   OH253816   3.218   3.219  11.553  0.1892 -0.0088 -0.2111
 9874TIP3    H153817   3.292   3.220  11.614  0.3669  1.6211 -0.4125
 9874TIP3    H253818   3.165   3.295  11.579 -0.5865 -0.2425 -1.0689
 9875TIP3   OH253819   1.474   4.278   9.268 -0.4950  1.0062  0.2880
 9875TIP3    H153820   1.445   4.365   9.295 -2.0025  0.4879  0.4158
 9875TIP3    H253821   1.428   4.262   9.186 -1.4372 -0.2725  1.0341
 9876TIP3   OH253822   3.268   2.634  10.336  0.3607  0.4530  0.3013
 9876TIP3    H153823   3.344   2.675  10.377  0.9848  0.8430 -1.1741
 9876TIP3    H253824   3.192   2.670  10.382  1.0021  1.3899  0.6390
 9877TIP3   OH253825   0.756   1.698  11.775  0.3058  0.1364 -0.3022
 9877TIP3    H153826   0.691   1.768  11.787 -1.4779 -1.1382 -1.8126
 9877TIP3    H253827   0.834   1.743  11.744 -0.4424  1.5694 -0.2111
 9878TIP3   OH253828   3.467   6.464   9.495  0.1488 -0.3417  0.7743
 9878TIP3    H153829   3.557   6.492   9.474 -0.0596 -0.3892 -0.2280
 9878TIP3    H253830   3.438   6.527   9.561  0.0881  1.1758 -0.6356
 9879TIP3   OH253831   0.593   1.692  10.441 -0.3165 -0.5613  0.3618
 9879TIP3    H153832   0.644   1.662  10.366  0.9503  2.7075 -0.2608
 9879TIP3    H253833   0.504   1.700  10.407  0.2713  1.0751 -0.9478
 9880TIP3   OH253834   1.430   0.670   9.421 -0.4449  0.1301  0.6353
 9880TIP3    H153835   1.373   0.715   9.484 -0.7159 -0.1641  0.6009
 9880TIP3    H253836   1.407   0.578   9.429  0.1888 -0.0221  0.7878
 9881TIP3   OH253837   4.526   2.519   9.400  0.7166  0.1520  0.7439
 9881TIP3    H153838   4.533   2.450   9.467  0.6336  0.8770  1.5095
 9881TIP3    H253839   4.599   2.501   9.340  0.8308 -0.4689  1.0566
 9882TIP3   OH253840   4.811   0.018   9.999  0.8254  0.6183 -0.5488
 9882TIP3    H153841   4.827  -0.047  10.067 -0.7065 -0.3338 -1.0396
 9882TIP3    H253842   4.819   0.102  10.044  0.7087  0.0335  0.6079
 9883TIP3   OH253843   6.574   6.513  11.552  0.0225  0.2787  0.2892
 9883TIP3    H153844   6.640   6.491  11.486  0.3306  0.1545  0.6378
 9883TIP3    H253845   6.497   6.541  11.501  0.1097 -0.2376 -0.1253
 9884TIP3   OH253846   5.692   3.928  10.375  0.1747 -0.2374 -0.2585
 9884TIP3    H153847   5.624   3.909  10.439  0.5152  1.2827  0.6204
 9884TIP3    H253848   5.646   3.971  10.303  0.1711  0.9385  0.4065
 9885TIP3   OH253849   6.249   1.426  11.276 -0.2497 -0.1435 -0.0146
 9885TIP3    H153850   6.311   1.355  11.259 -0.1080  0.2498 -1.2099
 9885TIP3    H253851   6.277   1.462  11.360 -0.8898 -2.0712  1.0952
 9886TIP3   OH253852   2.931   1.899   9.626  0.6440 -0.2291 -0.1466
 9886TIP3    H153853   2.875   1.824   9.605  3.1617 -2.8304  1.6090
 9886TIP3    H253854   2.996   1.864   9.687  2.3762  3.2970  0.2974
 9887TIP3   OH253855   5.359   6.125  10.220  0.0818  0.3585 -0.0778
 9887TIP3    H153856   5.425   6.167  10.165 -0.0636  1.1702  0.3509
 9887TIP3    H253857   5.295   6.194  10.238  1.2708  0.8339  2.9994
 9888TIP3   OH253858   6.158   5.660   9.834  0.2025 -0.1402  0.2786
 9888TIP3    H153859   6.104   5.691   9.907 -0.8552  0.3324 -0.6834
 9888TIP3    H253860   6.196   5.740   9.797 -2.3376  0.1318 -2.0587
 9889TIP3   OH253861   5.982   6.370   9.009 -0.8945  0.0027 -0.4442
 9889TIP3    H153862   5.945   6.307   9.071 -1.6975  0.7767 -0.1179
 9889TIP3    H253863   6.045   6.319   8.959  2.4528  0.0770  3.2450
 9890TIP3   OH253864   1.710   1.830  10.658  0.7980  0.5265  0.3107
 9890TIP3    H153865   1.736   1.910  10.614  0.5869 -0.4875 -1.7831
 9890TIP3    H253866   1.747   1.760  10.604  1.0024 -0.8039  2.0923
 9891TIP3   OH253867   5.174   1.060  10.360  0.4975 -0.2324  0.1603
 9891TIP3    H153868   5.114   1.054  10.435  0.0338 -1.4847 -0.2728
 9891TIP3    H253869   5.235   0.987  10.372  0.1345 -0.7326 -0.8970
 9892TIP3   OH253870   3.697   0.241  10.554  0.2573  0.2733  0.2005
 9892TIP3    H153871   3.683   0.307  10.486 -0.2453 -1.3340 -1.3425
 9892TIP3    H253872   3.702   0.158  10.506 -1.6226 -1.1251  2.2127
 9893TIP3   OH253873   1.198   4.068   8.859 -1.2264 -0.0143  0.4517
 9893TIP3    H153874   1.125   4.129   8.852 -1.8036 -0.5454  1.5820
 9893TIP3    H253875   1.264   4.102   8.799 -1.6095  1.6194  0.9186
 9894TIP3   OH253876   2.137   3.703  10.208  0.1521 -0.3235  0.1941
 9894TIP3    H153877   2.130   3.795  10.183 -0.4303  0.1553  1.9865
 9894TIP3    H253878   2.222   3.697  10.253  1.0110 -1.0819 -1.4481
 9895TIP3   OH253879   4.288   0.979  12.050 -0.2770 -0.5156 -0.7877
 9895TIP3    H153880   4.234   0.953  12.124 -1.0384 -0.7201 -1.3922
 9895TIP3    H253881   4.243   1.055  12.013 -0.8147 -1.3514 -1.9623
 9896TIP3   OH253882   4.195   3.300   9.156  0.5167  0.0110  0.0707
 9896TIP3    H153883   4.205   3.358   9.232 -0.0410  0.2154 -0.0010
 9896TIP3    H253884   4.273   3.245   9.157  0.3869 -0.1727  0.9476
 9897TIP3   OH253885   0.658   0.539  10.444 -0.1529 -0.0618 -0.2206
 9897TIP3    H153886   0.589   0.562  10.506 -0.9548  0.8304 -1.3926
 9897TIP3    H253887   0.615   0.481  10.381  0.2458  0.2410 -0.7804
 9898TIP3   OH253888   6.006   5.092  11.953 -0.2409  0.2250 -0.1103
 9898TIP3    H153889   6.009   5.115  11.861 -1.4581  1.7686  0.1823
 9898TIP3    H253890   5.924   5.131  11.985  0.1889 -0.1923  1.6270
 9899TIP3   OH253891   2.992   6.195  12.344 -0.4709  0.2240 -0.3287
 9899TIP3    H153892   2.937   6.134  12.393 -0.7465  1.3084  0.7478
 9899TIP3    H253893   3.058   6.225  12.406 -0.0680  0.6937 -0.9606
 9900TIP3   OH253894   3.020   4.291  10.006 -0.0987  0.3025  0.6383
 9900TIP3    H153895   2.932   4.321  10.026 -0.6826 -1.1575  0.3732
 9900TIP3    H253896   3.063   4.367   9.967 -2.0717  0.3593 -1.6564
 9901TIP3   OH253897   1.153   5.856   9.893  0.3766 -0.1376  0.3114
 9901TIP3    H153898   1.155   5.898   9.979 -0.4725 -0.3442  0.4357
 9901TIP3    H253899   1.207   5.912   9.837 -2.0815  2.1458  0.0191
 9902TIP3   OH253900   1.568   2.039  11.992 -0.5071  0.2484  0.0485
 9902TIP3    H153901   1.650   2.024  11.947  0.8582  3.8643  1.0209
 9902TIP3    H253902   1.502   1.995  11.938  1.7077 -0.4876 -2.2163
 9903TIP3   OH253903   6.550   5.264   9.068  0.1991  0.3081 -0.2281
 9903TIP3    H153904   6.632   5.260   9.118 -1.3564  1.9587  2.7914
 9903TIP3    H253905   6.498   5.331   9.113 -2.2470  0.4616 -2.9432
 9904TIP3   OH253906   4.115   3.800   9.768 -0.1108 -0.0079  0.1927
 9904TIP3    H153907   4.150   3.743   9.699 -0.5618  0.7893 -0.7321
 9904TIP3    H253908   4.023   3.775   9.775 -0.0101 -0.2436  0.6707
 9905TIP3   OH253909   1.822   0.243   9.213 -0.5664  0.3206  0.3318
 9905TIP3    H153910   1.905   0.202   9.239 -0.8201  0.2738  1.1145
 9905TIP3    H253911   1.848   0.320   9.162 -0.0241  0.5959  1.0012
 9906TIP3   OH253912   5.402   5.347  12.051 -0.2593 -0.0922 -0.1981
 9906TIP3    H153913   5.311   5.329  12.026  0.3297  0.7307 -3.4229
 9906TIP3    H253914   5.396   5.419  12.114 -1.8478  0.0063 -0.4193
 9907TIP3   OH253915   0.789   5.978   8.715 -0.4810  0.6521  0.0060
 9907TIP3    H153916   0.759   6.053   8.765 -2.3295 -1.5638  2.5043
 9907TIP3    H253917   0.715   5.956   8.658 -0.1034  0.4921 -0.4330
 9908TIP3   OH253918   4.081   6.056  11.836 -0.4238 -0.5742 -0.2967
 9908TIP3    H153919   4.066   5.967  11.867  0.0747 -0.3692  0.5699
 9908TIP3    H253920   4.054   6.055  11.744 -0.9345 -1.4739 -0.1423
 9909TIP3   OH253921   0.831   6.518  10.940 -0.6299  0.0693  0.0996
 9909TIP3    H153922   0.760   6.575  10.968 -0.3678 -0.1361  1.2588
 9909TIP3    H253923   0.910   6.563  10.971 -0.3802 -0.5837  0.4143
 9910TIP3   OH253924   1.888   4.913   8.971 -0.3180  0.2661  0.4870
 9910TIP3    H153925   1.833   4.934   9.046 -1.3006 -0.3100 -0.0560
 9910TIP3    H253926   1.848   4.961   8.898  0.9676  1.3048  0.4218
 9911TIP3   OH253927   2.770   2.368   9.727  0.4167  0.0863 -0.2981
 9911TIP3    H153928   2.813   2.286   9.750 -0.7382 -0.2992  0.6290
 9911TIP3    H253929   2.681   2.341   9.703  0.1102  1.0417 -0.2536
 9912TIP3   OH253930   1.035   4.852  11.774  0.4421 -0.0665 -0.3196
 9912TIP3    H153931   0.986   4.811  11.846 -0.3275 -1.1676 -1.4307
 9912TIP3    H253932   1.121   4.811  11.777  1.2383  1.5585  1.3664
 9913TIP3   OH253933   6.395   1.991   9.666  0.0913 -0.1279  0.3822
 9913TIP3    H153934   6.359   1.907   9.695  1.2120 -0.0062  2.2706
 9913TIP3    H253935   6.355   2.006   9.580 -2.0002 -1.4161  1.0619
 9914TIP3   OH253936   3.915   3.508   9.488  0.3741  0.3069 -0.0771
 9914TIP3    H153937   3.989   3.529   9.545  1.0250 -1.7408 -0.1115
 9914TIP3    H253938   3.952   3.455   9.417 -0.7622  1.1087 -1.3370
 9915TIP3   OH253939   3.527   0.779  11.012 -0.1925  0.5547 -0.4607
 9915TIP3    H153940   3.536   0.740  10.925  0.3417  0.2029 -0.2523
 9915TIP3    H253941   3.474   0.717  11.061 -0.2141  0.5935 -0.4347
 9916TIP3   OH253942   4.143   2.632  10.590  0.2751 -0.1667 -0.6000
 9916TIP3    H153943   4.075   2.565  10.583  1.0927 -0.8350 -3.2280
 9916TIP3    H253944   4.225   2.583  10.591  0.8465  0.5793  3.1862
 9917TIP3   OH253945   2.732   3.367  11.810  0.0322 -0.8083  0.1605
 9917TIP3    H153946   2.637   3.365  11.798 -0.0161 -1.9896  0.5652
 9917TIP3    H253947   2.764   3.296  11.756  0.8282  0.3131 -0.8860
 9918TIP3   OH253948   2.585   0.101   8.803 -0.2010 -0.1562  0.6834
 9918TIP3    H153949   2.540   0.179   8.835 -2.5792 -0.8820 -0.6581
 9918TIP3    H253950   2.672   0.132   8.776 -1.1346  2.0444  0.0272
 9919TIP3   OH253951   3.317   1.759  10.004  0.0017  0.3333  0.3764
 9919TIP3    H153952   3.223   1.774  10.008 -0.2378 -0.9965  0.0049
 9919TIP3    H253953   3.349   1.783  10.091 -0.9804 -1.1438  1.1815
 9920TIP3   OH253954   0.036   5.587   8.653  0.5102 -0.1864  0.5273
 9920TIP3    H153955   0.004   5.570   8.742 -1.7090 -1.2945 -0.3907
 9920TIP3    H253956  -0.039   5.627   8.608  1.2032 -0.6770 -1.1369
 9921TIP3   OH253957   6.084   5.716   8.795  0.0227 -1.3485 -0.5944
 9921TIP3    H153958   6.118   5.806   8.795 -1.3751 -0.7953  0.0823
 9921TIP3    H253959   6.160   5.663   8.771  1.1504 -0.0919  0.0049
 9922TIP3   OH253960   6.126   4.170  10.547 -0.5655 -0.0947  0.1601
 9922TIP3    H153961   6.081   4.252  10.525  0.9490  0.0559 -2.9108
 9922TIP3    H253962   6.058   4.103  10.542 -1.3568  0.6684  0.3791
 9923TIP3   OH253963   4.040   2.181   8.899 -0.8417  0.5662 -0.0486
 9923TIP3    H153964   4.103   2.112   8.919 -0.2125  0.5953 -1.7323
 9923TIP3    H253965   4.094   2.260   8.891 -0.8950  0.4513 -2.2945
 9924TIP3   OH253966   0.557   2.533  10.464 -0.2129 -0.3839 -0.7372
 9924TIP3    H153967   0.594   2.614  10.428  0.6934 -0.3620  0.2013
 9924TIP3    H253968   0.633   2.476  10.479 -0.5136 -0.3300  1.2423
 9925TIP3   OH253969   5.949   1.101  10.458  0.0680 -0.1491 -0.5459
 9925TIP3    H153970   5.884   1.170  10.446 -0.2735 -0.7475 -2.3933
 9925TIP3    H253971   6.024   1.128  10.405  0.6030 -0.4069  0.0529
 9926TIP3   OH253972   4.296   6.715  10.693  0.3267 -0.0399  0.1701
 9926TIP3    H153973   4.334   6.794  10.731  0.1233  0.6916 -1.0886
 9926TIP3    H253974   4.271   6.661  10.768  0.5334  1.0596  1.0436
 9927TIP3   OH253975   1.063   1.097  10.202 -0.3319  0.1835 -0.2655
 9927TIP3    H153976   1.107   1.170  10.244 -0.6251  0.5897 -0.6634
 9927TIP3    H253977   1.094   1.020  10.250 -0.4239  0.6112  0.4870
 9928TIP3   OH253978   0.530   3.457  11.641 -0.2983  0.2857  0.4441
 9928TIP3    H153979   0.458   3.507  11.681 -1.5037 -0.7608 -0.3367
 9928TIP3    H253980   0.495   3.369  11.631  0.7944 -0.0350 -0.7667
 9929TIP3   OH253981   3.541   4.387  10.391 -0.1108 -0.4101 -0.2009
 9929TIP3    H153982   3.622   4.426  10.360 -0.2638 -0.0760 -0.1885
 9929TIP3    H253983   3.491   4.461  10.426 -0.1494 -0.7109  0.3842
 9930TIP3   OH253984   0.765   2.351  10.469  0.1305  0.3554  0.4422
 9930TIP3    H153985   0.756   2.330  10.562  1.6647  1.9764  1.0207
 9930TIP3    H253986   0.856   2.381  10.460  0.4155 -0.9300 -1.8508
 9931TIP3   OH253987   5.614   5.464  10.882  0.3200 -0.1095  0.2346
 9931TIP3    H153988   5.686   5.500  10.832  0.6486 -0.4494  0.4556
 9931TIP3    H253989   5.614   5.370  10.861  0.9959 -0.4149  1.5012
 9932TIP3   OH253990   3.081   5.964  10.966 -0.0304  0.4315 -0.2006
 9932TIP3    H153991   3.119   6.039  11.012  1.4036 -0.3537 -0.0201
 9932TIP3    H253992   3.156   5.906  10.950 -1.3607 -2.0275  1.7238
 9933TIP3   OH253993   3.245   1.182   9.427 -0.1664  0.0299 -0.1216
 9933TIP3    H153994   3.315   1.242   9.452  1.6164 -2.1758  0.5604
 9933TIP3    H253995   3.269   1.099   9.468 -1.4310 -1.6910 -2.5838
 9934TIP3   OH253996   3.332   0.653   9.405 -0.0450  0.2340 -0.3314
 9934TIP3    H153997   3.352   0.591   9.335  0.5759  1.8045 -1.5950
 9934TIP3    H253998   3.401   0.638   9.470  1.5040  1.1627 -1.6928
 9935TIP3   OH253999   0.052   3.455  11.789 -0.0325 -0.0758 -0.5472
 9935TIP3    H154000  -0.009   3.514  11.834  1.3963  1.6333 -0.7371
 9935TIP3    H254001   0.029   3.368  11.821 -1.1213  0.7466  1.0642
 9936TIP3   OH254002   3.093   2.894  10.748  0.0817  0.1024 -0.3379
 9936TIP3    H154003   3.155   2.881  10.676 -0.5964 -0.6177 -0.8016
 9936TIP3    H254004   3.007   2.889  10.707 -0.2988  1.7242  0.2001
 9937TIP3   OH254005   1.712   5.049   8.822 -0.1321 -0.1379 -0.8719
 9937TIP3    H154006   1.717   5.116   8.890  1.4988 -1.8329  0.8161
 9937TIP3    H254007   1.633   5.071   8.771  0.2291  2.8603 -0.2860
 9938TIP3   OH254008   4.322   2.207   9.432  0.1128  0.1587 -0.0709
 9938TIP3    H154009   4.329   2.113   9.447  1.6558  0.0281 -1.3881
 9938TIP3    H254010   4.231   2.228   9.453  0.0610 -1.3776  1.4349
 9939TIP3   OH254011   3.916   0.176  10.816  0.8190  0.3396 -0.2438
 9939TIP3    H154012   3.972   0.119  10.869 -1.3013 -0.0205  1.7976
 9939TIP3    H254013   3.948   0.165  10.726  2.1137 -2.1042  0.4298
 9940TIP3   OH254014   0.358   5.310  10.024 -0.3695  0.8553 -0.1174
 9940TIP3    H154015   0.402   5.292  10.108  0.2255 -0.3233 -0.6522
 9940TIP3    H254016   0.290   5.243  10.017  1.0354 -0.5128 -1.5612
 9941TIP3   OH254017   1.964   6.104  11.745 -0.5989  0.7177 -0.8010
 9941TIP3    H154018   1.989   6.012  11.736 -1.8785  0.4141 -1.5271
 9941TIP3    H254019   1.877   6.101  11.786 -0.7947  1.5823 -1.1355
 9942TIP3   OH254020   1.580   1.786  11.504 -0.3755  0.1529 -0.0967
 9942TIP3    H154021   1.616   1.717  11.559  1.6261  2.8298  2.2112
 9942TIP3    H254022   1.487   1.790  11.528  0.4269  1.2515  3.3112
 9943TIP3   OH254023   1.271   1.669  11.213  0.0879  0.1303  0.4599
 9943TIP3    H154024   1.178   1.689  11.225  0.1663  1.7437 -1.1688
 9943TIP3    H254025   1.272   1.587  11.164 -0.6574  1.5766 -2.1939
 9944TIP3   OH254026   1.941   5.290   8.575 -0.3179 -0.2687 -0.5082
 9944TIP3    H154027   1.873   5.229   8.547 -0.7965  0.0109  0.0273
 9944TIP3    H254028   1.950   5.352   8.502 -0.4396 -0.4710 -0.6923
 9945TIP3   OH254029   6.621   4.529   9.961 -0.1748 -0.5025  0.6431
 9945TIP3    H154030   6.708   4.519   9.922 -1.3489  1.5919 -3.0099
 9945TIP3    H254031   6.572   4.452   9.930 -0.6836  0.4080 -0.9558
 9946TIP3   OH254032   1.678   1.448  11.930  0.5058  0.0812 -0.8633
 9946TIP3    H154033   1.765   1.488  11.934 -0.2048  1.7417 -1.2345
 9946TIP3    H254034   1.685   1.370  11.986  2.1580  0.2859 -0.7365
 9947TIP3   OH254035   5.373   4.203  10.301  0.0387  0.1140 -0.1796
 9947TIP3    H154036   5.347   4.208  10.209 -1.2066 -1.2934  0.0427
 9947TIP3    H254037   5.414   4.117  10.309  1.5874  0.8770  0.2649
 9948TIP3   OH254038   1.115   6.734  11.799 -0.6002  0.1837 -0.2661
 9948TIP3    H154039   1.188   6.677  11.821 -0.2029  0.9023  0.3581
 9948TIP3    H254040   1.060   6.734  11.877 -0.4312  0.8861 -0.1354
 9949TIP3   OH254041   5.281   4.446   9.023 -0.5162 -0.0848 -0.3844
 9949TIP3    H154042   5.221   4.385   9.067  1.2443 -2.1641 -0.7004
 9949TIP3    H254043   5.271   4.528   9.072 -0.6564 -1.5067  2.1606
 9950TIP3   OH254044   5.142   0.443  12.479  0.0070  0.6399  0.3657
 9950TIP3    H154045   5.066   0.389  12.458  0.2397  0.3284  0.3166
 9950TIP3    H254046   5.184   0.398  12.552 -0.2892  1.2304  0.9152
 9951TIP3   OH254047   3.184   6.561   8.902  0.2046 -0.1192  0.7201
 9951TIP3    H154048   3.267   6.605   8.888  0.6293 -0.9201  0.6510
 9951TIP3    H254049   3.151   6.595   8.985 -0.8648  2.4261 -0.6468
 9952TIP3   OH254050   6.235   0.277  11.175 -0.2633 -0.3326 -0.1967
 9952TIP3    H154051   6.211   0.285  11.082  2.2800  0.5657 -0.8680
 9952TIP3    H254052   6.286   0.197  11.179 -0.8038 -0.6419  0.5494
 9953TIP3   OH254053   0.039   4.622   8.832 -0.4811 -0.2016 -0.3308
 9953TIP3    H154054   0.007   4.561   8.898  0.2495  0.1876  0.3993
 9953TIP3    H254055  -0.025   4.694   8.833 -0.9724 -0.6229 -0.7165
 9954TIP3   OH254056   6.241   5.576  10.584  0.7188 -0.2280 -0.1945
 9954TIP3    H154057   6.192   5.495  10.592 -1.0335  0.9558  2.6104
 9954TIP3    H254058   6.210   5.615  10.502 -0.5249 -1.0870 -0.1553
 9955TIP3   OH254059   4.611   2.270   9.884 -0.0651 -0.4263 -0.4100
 9955TIP3    H154060   4.661   2.231   9.955  1.3985  0.1031 -1.1011
 9955TIP3    H254061   4.665   2.254   9.806 -0.7033  0.6506 -1.0964
 9956TIP3   OH254062   0.814   5.258  12.287  0.2823 -0.3363  0.1605
 9956TIP3    H154063   0.778   5.209  12.213 -1.7266 -0.1824  0.9529
 9956TIP3    H254064   0.809   5.197  12.360  2.4353 -0.5513  0.1748
 9957TIP3   OH254065   4.496   5.009   9.492  0.1559 -0.6516 -0.2780
 9957TIP3    H154066   4.519   5.100   9.475 -1.2693 -0.1486  0.3297
 9957TIP3    H254067   4.490   4.968   9.406  1.8717 -0.4866 -0.5217
 9958TIP3   OH254068   3.519   4.601   9.944 -0.0171 -0.0382 -0.4727
 9958TIP3    H154069   3.457   4.626   9.876 -0.6817  1.4725  0.6451
 9958TIP3    H254070   3.572   4.532   9.904 -3.0432 -2.1686 -1.1271
 9959TIP3   OH254071   6.642   2.654  11.505 -0.5988  0.5637  0.4337
 9959TIP3    H154072   6.557   2.648  11.550 -0.6378  0.5211  0.3527
 9959TIP3    H254073   6.706   2.661  11.577 -0.3576 -2.5194  0.6427
 9960TIP3   OH254074   4.808   4.784  10.203  0.5529  0.8674  0.0471
 9960TIP3    H154075   4.743   4.721  10.234 -0.9974  1.0264 -2.6111
 9960TIP3    H254076   4.890   4.754  10.243 -0.4270 -1.7805  0.3050
 9961TIP3   OH254077   3.844   0.050   9.192 -0.4324  0.2080 -0.4671
 9961TIP3    H154078   3.905   0.109   9.148  0.4374  0.0270  0.4539
 9961TIP3    H254079   3.843  -0.029   9.138  0.9440 -0.1748  0.0430
 9962TIP3   OH254080   1.187   6.457  11.918  0.0963 -0.3118 -0.0108
 9962TIP3    H154081   1.247   6.395  11.960  1.1997  0.4812 -0.3778
 9962TIP3    H254082   1.157   6.412  11.840 -0.8046 -1.2186  0.8290
 9963TIP3   OH254083   0.122   5.566  11.894 -0.4246  0.4465 -0.2016
 9963TIP3    H154084   0.034   5.595  11.871 -0.4884 -0.2187 -0.8558
 9963TIP3    H254085   0.113   5.527  11.981 -0.5465  1.3890  0.2150
 9964TIP3   OH254086   5.061   3.685  11.419  0.2785  0.0584  0.7963
 9964TIP3    H154087   5.069   3.771  11.460  0.8333  0.1218  0.5555
 9964TIP3    H254088   5.136   3.636  11.451 -0.4956 -0.6325  1.6168
 9965TIP3   OH254089   5.579   5.579   8.991  0.0753 -0.1124  0.3190
 9965TIP3    H154090   5.631   5.499   9.006  1.9674  0.9482 -0.2883
 9965TIP3    H254091   5.638   5.637   8.944 -1.2154  1.7254  0.8804
 9966TIP3   OH254092   0.897   4.255  10.661  0.2331 -0.1399  0.0581
 9966TIP3    H154093   0.891   4.286  10.571  0.0429  0.6360  0.3328
 9966TIP3    H254094   0.989   4.262  10.684 -0.0406  1.9025  0.6878
 9967TIP3   OH254095   0.275   4.586  10.200  0.1153 -0.0723 -0.0309
 9967TIP3    H154096   0.347   4.608  10.259 -1.1791 -0.7790  1.9228
 9967TIP3    H254097   0.299   4.627  10.117  1.9858  1.0597  0.9861
 9968TIP3   OH254098   5.453   4.853   9.803 -0.4448  0.2540  0.3236
 9968TIP3    H154099   5.400   4.817   9.874 -0.1537 -1.2120 -0.1776
 9968TIP3    H254100   5.416   4.940   9.788 -2.0005 -0.3044  0.7286
 9969TIP3   OH254101   4.922   4.059   9.624  0.4549  0.0671 -0.1588
 9969TIP3    H154102   4.864   4.094   9.556 -0.8977 -0.3094  0.7532
 9969TIP3    H254103   4.978   3.997   9.577  0.8599  1.2084 -1.2480
 9970TIP3   OH254104   3.232   5.852   8.898  0.2598  0.4629 -0.2095
 9970TIP3    H154105   3.141   5.878   8.912  0.4517  0.5600  0.9446
 9970TIP3    H254106   3.280   5.934   8.889  0.3389  0.4298 -0.0920
 9971TIP3   OH254107   1.162   4.006  11.179 -0.0587 -0.0192  0.3358
 9971TIP3    H154108   1.120   4.063  11.114 -0.2589 -0.4043  0.1266
 9971TIP3    H254109   1.089   3.963  11.223  0.0985 -0.2394  0.3795
 9972TIP3   OH254110   2.179   4.493   8.869  0.0197 -0.0043  0.1772
 9972TIP3    H154111   2.268   4.500   8.834 -0.1820  0.0459 -0.3423
 9972TIP3    H254112   2.141   4.580   8.855 -0.5610 -0.4075 -0.8909
 9973TIP3   OH254113   3.050   5.701  11.207  0.0250  0.0221 -0.2432
 9973TIP3    H154114   3.102   5.771  11.247 -0.3117  0.3219 -0.3343
 9973TIP3    H254115   2.966   5.742  11.185 -0.2720 -0.4802 -0.0448
 9974TIP3   OH254116   1.658   2.565   9.803 -0.2786  0.1144 -0.4328
 9974TIP3    H154117   1.742   2.611   9.804 -0.8434  1.2008 -1.0802
 9974TIP3    H254118   1.620   2.583   9.889 -0.6430  1.1581 -0.8021
 9975TIP3   OH254119   4.179   1.013   8.940 -0.3113  0.0598 -0.0689
 9975TIP3    H154120   4.249   0.949   8.942  0.4254  0.8277 -0.8778
 9975TIP3    H254121   4.203   1.077   9.008 -0.5099  0.0478  0.0157
 9976TIP3   OH254122   2.680   5.251  11.927  0.1827 -0.3450 -0.2716
 9976TIP3    H154123   2.623   5.185  11.889 -1.0353  1.4066 -1.6731
 9976TIP3    H254124   2.746   5.201  11.975 -0.8041 -2.5371 -1.0613
 9977TIP3   OH254125   3.771   3.148   9.106  0.2973  0.4060  0.1711
 9977TIP3    H154126   3.726   3.096   9.038  1.1306  0.8916 -0.7738
 9977TIP3    H254127   3.738   3.237   9.093 -0.9316  0.2098  1.6250
 9978TIP3   OH254128   1.513   0.048  10.923  0.5974 -0.2291 -0.4300
 9978TIP3    H154129   1.422   0.029  10.947  0.3610  2.0204  0.6856
 9978TIP3    H254130   1.507   0.094  10.839  0.7432 -0.4037 -0.5371
 9979TIP3   OH254131   4.464   5.200   9.710 -0.1527  0.2249  0.9028
 9979TIP3    H154132   4.503   5.281   9.677  0.0437  0.8285  2.5200
 9979TIP3    H254133   4.409   5.169   9.638  1.5409  0.5456 -0.6035
 9980TIP3   OH254134   1.565   6.278  12.010 -0.1277 -0.4342  0.0900
 9980TIP3    H154135   1.494   6.307  11.952 -1.2056  0.3135  1.6972
 9980TIP3    H254136   1.521   6.224  12.075  1.3583 -3.0016 -0.8825
 9981TIP3   OH254137   2.243   0.728   8.960 -0.0922  0.2793  0.5421
 9981TIP3    H154138   2.316   0.666   8.968  1.3674  1.6452 -1.3280
 9981TIP3    H254139   2.236   0.768   9.047  1.7743  0.4885  0.6336
 9982TIP3   OH254140   6.018   2.718  11.926 -0.5949 -0.1944  0.1307
 9982TIP3    H154141   5.963   2.640  11.933 -2.4861  0.8189 -2.1075
 9982TIP3    H254142   6.094   2.689  11.875 -1.1049 -0.6992 -0.3587
 9983TIP3   OH254143   4.802   2.904   8.773 -0.0053  0.3549 -0.2648
 9983TIP3    H154144   4.739   2.926   8.842 -1.4508  0.4035 -1.5454
 9983TIP3    H254145   4.861   2.841   8.813  1.2229  2.7663  2.0049
 9984TIP3   OH254146   1.416   3.882   8.956 -0.6378 -0.3247 -0.6440
 9984TIP3    H154147   1.343   3.917   8.905 -0.6888 -0.1675 -0.4637
 9984TIP3    H254148   1.446   3.956   9.008 -0.3229 -0.3797 -0.7472
 9985TIP3   OH254149   0.374   2.332   9.756  0.0128 -0.2736  0.3604
 9985TIP3    H154150   0.344   2.358   9.669  1.4931  0.1204 -0.0606
 9985TIP3    H254151   0.427   2.406   9.786 -1.0165 -0.1144  1.9014
 9986TIP3   OH254152   6.436   1.694  11.134 -0.3001  0.5460 -0.1700
 9986TIP3    H154153   6.490   1.623  11.101 -0.4269 -0.4913  1.6972
 9986TIP3    H254154   6.498   1.756  11.173 -0.3368 -0.2633  1.2675
 9987TIP3   OH254155   4.170   6.005  11.374 -0.0663  0.2474  0.3896
 9987TIP3    H154156   4.165   5.916  11.408 -1.4354  0.3070  0.4257
 9987TIP3    H254157   4.259   6.014  11.340  0.4989 -0.6832  1.5855
 9988TIP3   OH254158   6.671   1.187   8.584  0.4968 -0.0643 -0.3427
 9988TIP3    H154159   6.743   1.249   8.599  1.6717 -1.4595  0.0293
 9988TIP3    H254160   6.705   1.126   8.519  0.0717 -1.3861  0.6361
 9989TIP3   OH254161   3.903   4.458  11.945  0.1479 -0.4738 -0.2351
 9989TIP3    H154162   3.936   4.392  11.884 -1.4508 -0.0109 -1.6718
 9989TIP3    H254163   3.958   4.535  11.931 -1.7669  0.5340 -3.1138
 9990TIP3   OH254164   2.274   6.232  11.935 -0.5927 -1.1842  0.2593
 9990TIP3    H154165   2.230   6.251  11.851 -1.7627  2.9487  1.5437
 9990TIP3    H254166   2.367   6.233  11.914 -0.8095  0.9748 -0.9228
 9991TIP3   OH254167   1.203   5.051  11.254 -0.1012  0.3300 -0.2550
 9991TIP3    H154168   1.235   5.138  11.278  1.3120  0.0052 -0.8561
 9991TIP3    H254169   1.242   4.993  11.319  0.2734 -0.0466 -0.8179
 9992TIP3   OH254170   5.314   3.794   9.171  0.4796 -0.4289 -0.3354
 9992TIP3    H154171   5.408   3.805   9.188  0.6755 -0.3398 -1.4328
 9992TIP3    H254172   5.293   3.709   9.210  1.0219 -0.4710 -0.1189
 9993TIP3   OH254173   3.600   2.200   9.714  0.7055  0.2320  0.3377
 9993TIP3    H154174   3.534   2.270   9.709  1.5121  0.9495 -1.0065
 9993TIP3    H254175   3.683   2.247   9.719  1.1667 -0.5373  5.2768
 9994TIP3   OH254176   3.668   0.412  11.808  0.7397 -0.2021 -0.5115
 9994TIP3    H154177   3.621   0.384  11.887  0.8488  0.1542 -0.3168
 9994TIP3    H254178   3.672   0.507  11.816 -0.7687  0.0180 -1.7936
 9995TIP3   OH254179   0.593   3.726  10.403  0.5193 -0.3502 -0.6930
 9995TIP3    H154180   0.560   3.639  10.383 -0.1384  0.0426 -1.3495
 9995TIP3    H254181   0.520   3.785  10.383  0.4921  0.2440  1.0392
 9996TIP3   OH254182   4.615   2.868   8.551  0.3234 -0.1414 -0.4662
 9996TIP3    H154183   4.677   2.886   8.621  0.7872 -1.4698 -0.5073
 9996TIP3    H254184   4.669   2.855   8.473 -0.2065  1.6382 -1.1685
 9997TIP3   OH254185   4.036   5.528  11.901 -0.0468  0.4202  0.4003
 9997TIP3    H154186   4.070   5.492  11.819 -0.2858  0.4339  0.2941
 9997TIP3    H254187   4.076   5.474  11.969 -0.7350 -0.3319  0.2276
 9998TIP3   OH254188   5.471   6.019   9.898  0.2977  0.0205  0.2950
 9998TIP3    H154189   5.391   6.069   9.917  0.4073  0.8465 -1.2496
 9998TIP3    H254190   5.534   6.084   9.869  1.2430 -0.7429  0.5905
 9999TIP3   OH254191   3.229   5.095   9.547  0.0504 -0.2867 -0.1206
 9999TIP3    H154192   3.199   5.139   9.627 -1.0028 -0.9788 -0.1134
 9999TIP3    H254193   3.318   5.067   9.567  0.5568  1.3168  0.0788
10000TIP3   OH254194   4.915   6.556  11.024  0.4797 -0.5828  0.3049
10000TIP3    H154195   4.925   6.465  10.996  0.6684 -0.5239  0.1860
10000TIP3    H254196   4.961   6.607  10.957 -2.2242 -0.1576 -1.3909
10001TIP3   OH254197   3.213   5.144   9.815 -0.1981  0.5618  0.1597
10001TIP3    H154198   3.299   5.141   9.856 -0.4835  1.8912  0.9293
10001TIP3    H254199   3.152   5.126   9.887 -0.6315  1.4361  0.0325
10002TIP3   OH254200   1.020   2.513  10.438 -0.5426 -0.0353  0.8425
10002TIP3    H154201   1.040   2.499  10.530  0.4885 -1.1464  0.4778
10002TIP3    H254202   1.102   2.494  10.392 -0.6948  1.6785 -0.2178
10003TIP3   OH254203   0.784   4.447   9.511  0.2629 -0.0460 -0.3414
10003TIP3    H154204   0.693   4.463   9.535  0.5574  0.5455  0.4620
10003TIP3    H254205   0.830   4.527   9.538  1.0045 -0.3162 -0.7806
10004TIP3   OH254206   4.454   1.207   9.630 -0.5330  0.1138 -0.7167
10004TIP3    H154207   4.533   1.260   9.641  0.4760 -1.6769  1.6129
10004TIP3    H254208   4.382   1.271   9.628  0.8777  1.7667 -2.4968
10005TIP3   OH254209   3.724   3.068   9.376  0.1051  0.2643 -0.1155
10005TIP3    H154210   3.755   3.128   9.308 -1.9878  2.0848  0.4412
10005TIP3    H254211   3.801   3.054   9.432  0.9730  1.4065 -0.9674
10006TIP3   OH254212   5.735   5.838  10.163  0.2308 -0.1974  0.2024
10006TIP3    H154213   5.793   5.766  10.190  0.1628 -0.7132 -0.9694
10006TIP3    H254214   5.784   5.917  10.183  1.2367 -0.6212 -0.5147
10007TIP3   OH254215   6.493   5.986  11.839 -0.0278 -0.2180  0.1924
10007TIP3    H154216   6.417   5.941  11.874 -0.2503  0.1287  0.1617
10007TIP3    H254217   6.563   5.967  11.901  0.0103 -1.0212 -0.0909
10008TIP3   OH254218   3.948   4.085   9.809 -0.1274  0.1487  1.0319
10008TIP3    H154219   3.926   4.014   9.749 -2.3492  1.0349  0.6752
10008TIP3    H254220   3.985   4.041   9.885 -1.3944 -1.4212  0.8145
10009TIP3   OH254221   0.286   3.278  10.305 -0.2941  0.4273 -0.0936
10009TIP3    H154222   0.220   3.253  10.242  0.7470 -0.1232 -0.9981
10009TIP3    H254223   0.260   3.234  10.386 -0.6279 -0.3917 -0.6331
10010TIP3   OH254224   6.608   3.014  10.188 -0.0962 -0.5759  0.4998
10010TIP3    H154225   6.529   3.060  10.159 -0.5663 -1.5973  0.1196
10010TIP3    H254226   6.627   2.953  10.117  1.4337  0.0992  0.2846
10011TIP3   OH254227   3.889   0.839  10.560 -0.1857 -0.1608  0.1205
10011TIP3    H154228   3.856   0.836  10.650 -0.1695  0.7967  0.1584
10011TIP3    H254229   3.846   0.914  10.521  0.6841  0.1134 -0.3337
10012TIP3   OH254230   1.790   5.614   9.954  0.2139  0.1512  0.2333
10012TIP3    H154231   1.851   5.610   9.881  0.4095  1.1073  0.3271
10012TIP3    H254232   1.724   5.678   9.927 -0.6511 -0.7334  0.2083
10013TIP3   OH254233   2.032   1.233  10.094 -0.0138  0.3657 -0.1005
10013TIP3    H154234   1.989   1.197  10.016  1.8583 -0.8629 -0.6397
10013TIP3    H254235   2.101   1.290  10.059 -0.4931  1.4857  0.7152
10014TIP3   OH254236   5.863   2.795   9.341  0.4197  0.0904  0.4949
10014TIP3    H154237   5.853   2.728   9.409  1.3830 -1.9751 -1.3177
10014TIP3    H254238   5.954   2.789   9.314  0.1125  1.0438 -0.8428
10015TIP3   OH254239   2.730   6.439  11.470  0.1277 -0.5045  0.0349
10015TIP3    H154240   2.793   6.505  11.499  0.8192 -0.8307 -0.6724
10015TIP3    H254241   2.769   6.356  11.497  0.0391 -0.7133 -0.4645
10016TIP3   OH254242   1.541   1.675  11.263 -0.3464  0.3035 -0.0438
10016TIP3    H154243   1.581   1.716  11.340 -1.1786 -2.4665  2.0032
10016TIP3    H254244   1.447   1.687  11.276 -0.6570 -2.4640  0.8972
10017TIP3   OH254245   5.481   0.160  12.507 -0.3421  0.0421  0.2345
10017TIP3    H154246   5.560   0.214  12.508 -0.6401  0.6291 -2.1068
10017TIP3    H254247   5.410   0.222  12.526 -0.5439  0.2315 -1.0513
10018TIP3   OH254248   6.510   1.565  12.043 -0.2922 -0.6510  0.0711
10018TIP3    H154249   6.574   1.494  12.035  0.2952 -0.1166 -0.0802
10018TIP3    H254250   6.451   1.536  12.112  0.6187 -0.7835  0.8203
10019TIP3   OH254251   3.375   0.244  11.309 -0.0881 -0.1899 -0.4848
10019TIP3    H154252   3.293   0.294  11.315  0.5650  0.6775  2.2987
10019TIP3    H254253   3.385   0.227  11.215 -1.8611  2.3937 -1.2601
10020TIP3   OH254254   4.174   6.040   9.635  0.4134  0.1062 -0.3382
10020TIP3    H154255   4.266   6.018   9.645  1.0820  1.6900 -2.4023
10020TIP3    H254256   4.158   6.035   9.541 -1.7482 -0.5589  0.0054
10021TIP3   OH254257   5.417   1.381  10.165 -0.0608 -0.3180 -0.2180
10021TIP3    H154258   5.463   1.424  10.238  1.2092 -1.9077 -0.0240
10021TIP3    H254259   5.391   1.296  10.200 -2.0584  0.0189 -0.7548
10022TIP3   OH254260   0.745   5.809   9.597  0.3916  0.1813  0.2727
10022TIP3    H154261   0.654   5.807   9.628 -0.6832  0.6010 -2.5752
10022TIP3    H254262   0.791   5.865   9.660 -1.3286  0.1151  1.6646
10023TIP3   OH254263   1.595   0.907  10.641 -0.7351  0.1321  0.1166
10023TIP3    H154264   1.564   0.970  10.706 -1.0991  0.4073 -0.3149
10023TIP3    H254265   1.685   0.887  10.667 -1.2719 -0.7092  1.4169
10024TIP3   OH254266   6.518   6.502   9.620 -0.2272 -0.0476 -0.2287
10024TIP3    H154267   6.455   6.483   9.549  0.4119  0.8046 -1.0404
10024TIP3    H254268   6.517   6.597   9.628  1.1346 -0.0053 -0.4171
10025TIP3   OH254269   2.801   2.567   8.944  0.0842  0.3279  0.0369
10025TIP3    H154270   2.717   2.593   8.906  0.4484  0.8037 -0.4573
10025TIP3    H254271   2.865   2.582   8.874  0.6399  0.3611  0.5440
10026TIP3   OH254272   1.360   2.248   9.760 -0.1392  0.1376  0.3009
10026TIP3    H154273   1.378   2.337   9.729  1.3832 -0.1878  0.2013
10026TIP3    H254274   1.351   2.196   9.680  0.5337 -0.0897  0.3713
10027TIP3   OH254275   6.657   5.070  10.904  0.0437  0.5731  0.1539
10027TIP3    H154276   6.566   5.077  10.933 -0.5260 -2.2349 -0.6671
10027TIP3    H254277   6.706   5.123  10.967 -1.8123 -0.4572  2.6620
10028TIP3   OH254278   0.776   1.383   9.214 -0.5669  0.6998  0.0647
10028TIP3    H154279   0.869   1.362   9.228 -0.7494 -0.0184  0.2133
10028TIP3    H254280   0.740   1.389   9.302 -0.6886  0.8845  0.0023
10029TIP3   OH254281   0.554   6.316  11.625  0.0811 -0.3138 -0.9004
10029TIP3    H154282   0.602   6.299  11.544  1.2654  0.9115 -0.4825
10029TIP3    H254283   0.619   6.353  11.685 -0.4489 -2.2724  1.0586
10030TIP3   OH254284   2.777   1.259  10.728 -0.2337 -0.2269 -0.1527
10030TIP3    H154285   2.769   1.339  10.780  0.7777  0.4946 -1.0592
10030TIP3    H254286   2.700   1.260  10.671 -0.1655  0.1734 -0.2439
10031TIP3   OH254287   5.195   6.371  10.153 -0.5989  0.3034  0.4494
10031TIP3    H154288   5.159   6.408  10.234 -1.2513  3.4542 -1.1516
10031TIP3    H254289   5.180   6.438  10.087  1.0917 -1.6132 -2.0562
10032TIP3   OH254290   5.594   2.200   9.819 -0.0259 -0.4724  0.1657
10032TIP3    H154291   5.593   2.122   9.764  1.2616 -0.3656 -0.0364
10032TIP3    H254292   5.582   2.273   9.758 -0.4181 -0.4534  0.2588
10033TIP3   OH254293   4.808   1.397  10.902 -0.1808  0.3300 -0.4340
10033TIP3    H154294   4.726   1.395  10.852 -0.1135  1.4359 -0.6068
10033TIP3    H254295   4.850   1.314  10.882 -0.5001  0.4388 -1.6468
10034TIP3   OH254296   3.802   2.747  10.413 -0.8604 -0.5756 -0.1644
10034TIP3    H154297   3.800   2.830  10.460  0.2100 -0.2175 -0.7060
10034TIP3    H254298   3.889   2.745  10.372 -1.0094 -1.7900 -0.4652
10035TIP3   OH254299   5.747   2.037  10.283 -0.1130  0.0150 -0.3933
10035TIP3    H154300   5.686   1.985  10.231  0.2535 -0.0902 -0.7252
10035TIP3    H254301   5.694   2.071  10.355 -0.3327 -0.8758 -0.1276
10036TIP3   OH254302   3.280   4.485   9.536 -0.0920  0.4040  0.3246
10036TIP3    H154303   3.339   4.433   9.481 -2.0096 -1.3095 -0.2640
10036TIP3    H254304   3.282   4.572   9.497  0.3403 -0.1937 -1.0526
10037TIP3   OH254305   3.581   1.983  11.108  0.7065  0.1927  0.8907
10037TIP3    H154306   3.648   1.936  11.159  0.4385  0.0348  1.1028
10037TIP3    H254307   3.523   2.021  11.175 -0.2125 -0.8352  0.7064
10038TIP3   OH254308   2.121   2.776  11.317  0.0348  0.1279  0.4642
10038TIP3    H154309   2.105   2.737  11.231  0.5773  0.5927  0.1504
10038TIP3    H254310   2.116   2.702  11.378  0.4812 -0.3442 -0.0591
10039TIP3   OH254311   2.226   3.423  10.355 -0.3174 -0.0372 -0.7468
10039TIP3    H154312   2.265   3.491  10.410 -0.1447 -1.0092  0.3620
10039TIP3    H254313   2.300   3.380  10.312 -0.1242 -1.6067  1.0372
10040TIP3   OH254314   4.955   6.072  10.261 -0.4610  0.0209 -0.2696
10040TIP3    H154315   4.882   6.134  10.257  0.0511  0.6164 -0.4942
10040TIP3    H254316   5.001   6.095  10.342 -1.1932 -1.1298  0.5077
10041TIP3   OH254317   3.334   5.044  11.411 -0.3797 -0.1075 -0.6002
10041TIP3    H154318   3.425   5.070  11.424 -0.5830  0.4327 -0.1897
10041TIP3    H254319   3.295   5.118  11.363 -1.0477  0.5321  0.8575
10042TIP3   OH254320   1.420   2.503   9.648 -0.9153  0.2073 -0.0422
10042TIP3    H154321   1.501   2.540   9.684 -0.1427 -1.1500 -0.3052
10042TIP3    H254322   1.442   2.484   9.556 -0.7729 -2.1728  0.4128
10043TIP3   OH254323   5.901   5.977  10.369 -0.2444  0.4806 -0.1806
10043TIP3    H154324   5.985   5.990  10.414 -0.8533 -0.9087  1.4789
10043TIP3    H254325   5.839   6.030  10.419 -0.7564 -0.2885  0.0184
10044TIP3   OH254326   0.607   0.416   9.730  0.0937 -0.8980 -0.1523
10044TIP3    H154327   0.607   0.500   9.775  0.5355 -1.2034  0.4351
10044TIP3    H254328   0.521   0.378   9.751 -0.0310 -0.6772 -0.2599
10045TIP3   OH254329   3.297   0.409  10.116 -0.4688  0.9366 -0.2762
10045TIP3    H154330   3.274   0.378  10.028  0.9917 -0.7384 -0.1241
10045TIP3    H254331   3.379   0.457  10.103 -0.5694  1.1977  0.0768
10046TIP3   OH254332   0.314   1.495   8.804 -0.2221 -0.2489  0.2877
10046TIP3    H154333   0.275   1.516   8.719  1.0767  0.7265 -0.0992
10046TIP3    H254334   0.377   1.425   8.784 -0.1535 -0.2521  0.5148
10047TIP3   OH254335   4.844   0.022   9.276  0.1620 -0.0788  0.4774
10047TIP3    H154336   4.923   0.075   9.286  0.0957  0.3239 -0.8756
10047TIP3    H254337   4.876  -0.066   9.259  0.2930 -0.2038  1.3537
10048TIP3   OH254338   0.794   5.143  10.283 -0.7923 -0.6374  0.2184
10048TIP3    H154339   0.803   5.050  10.264  0.3960 -0.5683  0.3676
10048TIP3    H254340   0.755   5.180  10.204  0.8512 -0.9215 -0.7782
10049TIP3   OH254341   2.213   4.121  11.260  0.0608 -0.2486  1.1474
10049TIP3    H154342   2.285   4.059  11.249 -0.8164 -1.4182  1.7057
10049TIP3    H254343   2.145   4.089  11.200  0.6021  1.8614 -0.7048
10050TIP3   OH254344   4.930   5.289   8.593  0.2736 -0.6118  0.5303
10050TIP3    H154345   5.000   5.337   8.637  0.4399 -1.3669  1.0933
10050TIP3    H254346   4.850   5.319   8.637  0.4329 -1.3158  1.3172
10051TIP3   OH254347   1.167   2.836   8.829 -0.5589  0.1462 -0.0471
10051TIP3    H154348   1.098   2.803   8.887 -0.6316 -0.0415 -0.2401
10051TIP3    H254349   1.212   2.758   8.798 -1.1606  0.1706 -1.0355
10052TIP3   OH254350   5.271   4.068   9.176 -0.0541 -0.4435 -0.4025
10052TIP3    H154351   5.244   3.977   9.171 -0.5651 -0.4958  2.0167
10052TIP3    H254352   5.365   4.067   9.154 -0.2026 -1.4230 -1.0515
10053TIP3   OH254353   5.448   0.774   9.966 -0.1086 -0.0384 -0.0005
10053TIP3    H154354   5.492   0.755   9.884 -0.0777  1.0273 -0.2487
10053TIP3    H254355   5.359   0.740   9.954  0.9184 -3.5329  1.0430
10054TIP3   OH254356   5.505   0.938   9.341  0.1974 -0.6053 -0.2274
10054TIP3    H154357   5.482   1.007   9.404  0.0908 -0.1078 -0.8027
10054TIP3    H254358   5.528   0.863   9.396 -0.4268 -0.3533  0.3938
10055TIP3   OH254359   2.455   0.180   9.324 -0.1718 -0.1519  0.2134
10055TIP3    H154360   2.372   0.228   9.326  1.1761  2.3954 -0.8723
10055TIP3    H254361   2.472   0.164   9.231  0.8039 -0.1597  0.3815
10056TIP3   OH254362   3.727   2.561  10.765  0.1946 -0.2595  0.2577
10056TIP3    H154363   3.730   2.542  10.671  1.6157  2.0551 -0.2471
10056TIP3    H254364   3.667   2.496  10.800 -1.7553 -0.1551 -2.5194
10057TIP3   OH254365   5.993   1.124  11.077 -0.3051 -0.3063 -0.4194
10057TIP3    H154366   5.984   1.197  11.138  0.1675  0.0441 -0.7604
10057TIP3    H254367   6.075   1.081  11.102  0.1161  0.0977 -1.0674
10058TIP3   OH254368   3.782   2.173  10.557  0.1177 -0.4395  0.5041
10058TIP3    H154369   3.840   2.101  10.582 -1.8570 -2.2500  0.1956
10058TIP3    H254370   3.769   2.162  10.463 -1.7127 -0.9440  0.7595
10059TIP3   OH254371   5.798   1.928  10.743  0.5471 -0.1483  0.1376
10059TIP3    H154372   5.799   1.897  10.653  3.6493  0.1892 -0.0253
10059TIP3    H254373   5.822   1.851  10.795  1.5405  0.3090  0.3755
10060TIP3   OH254374   6.735   5.437  11.573 -0.2213 -0.3597 -0.4778
10060TIP3    H154375   6.707   5.351  11.604 -0.1234 -0.7296 -1.3682
10060TIP3    H254376   6.812   5.419  11.518 -0.6321  0.2099 -1.2625
10061TIP3   OH254377   1.781   4.956   9.231  0.2086 -0.4173  0.4791
10061TIP3    H154378   1.853   4.917   9.280  0.0188 -0.7050  0.5337
10061TIP3    H254379   1.759   5.035   9.280 -0.0851 -0.7854  0.9579
10062TIP3   OH254380   0.253   6.464   9.337 -0.9055 -0.4282  0.0892
10062TIP3    H154381   0.162   6.487   9.358 -0.3212  0.8629  1.3892
10062TIP3    H254382   0.275   6.519   9.263 -0.6088  0.7334  1.0034
10063TIP3   OH254383   1.321   1.294   8.923 -0.2971 -0.0365  0.2282
10063TIP3    H154384   1.288   1.271   9.010  2.0112 -0.8567  0.9533
10063TIP3    H254385   1.319   1.212   8.874  1.7178 -0.4105  0.6915
10064TIP3   OH254386   4.968   2.615   9.186 -0.0759  0.0556  0.1674
10064TIP3    H154387   5.009   2.690   9.143  1.1465 -1.2446 -1.0325
10064TIP3    H254388   5.031   2.544   9.176 -2.6587 -2.1933 -2.0866
10065TIP3   OH254389   5.674   1.667  10.709 -0.4173  0.6040 -0.1022
10065TIP3    H154390   5.705   1.721  10.636  0.3833 -0.3410 -0.4807
10065TIP3    H254391   5.754   1.647  10.759 -0.4606 -1.3481 -0.7337
10066TIP3   OH254392   3.476   2.461   9.961  0.6316  0.4379  0.0886
10066TIP3    H154393   3.472   2.538   9.904  1.5823 -0.5321 -1.3521
10066TIP3    H254394   3.569   2.450   9.980  0.3961  0.3014  1.2542
10067TIP3   OH254395   2.234   2.075  11.208  0.3218  0.0533 -0.6380
10067TIP3    H154396   2.202   2.146  11.264  2.3149  0.2964  0.2633
10067TIP3    H254397   2.329   2.075  11.220  0.4182 -2.7320 -0.6268
10068TIP3   OH254398   6.504   4.715   9.813 -1.0116  0.2947 -0.2212
10068TIP3    H154399   6.549   4.681   9.890 -0.4690  0.2542 -0.5522
10068TIP3    H254400   6.573   4.754   9.760 -1.4367  0.6921 -0.4953
10069TIP3   OH254401   1.306   5.033  11.551 -0.3525  0.2490  0.3086
10069TIP3    H154402   1.292   5.116  11.504  0.3638  0.6639  0.8045
10069TIP3    H254403   1.295   5.056  11.644  0.7998  0.0184  0.5252
10070TIP3   OH254404   1.178   2.103   9.946 -0.9119 -0.1126  0.4726
10070TIP3    H154405   1.230   2.043  10.000 -1.0209  0.3539  1.1079
10070TIP3    H254406   1.244   2.157   9.901 -0.8174 -0.6148  0.0057
10071TIP3   OH254407   4.847   5.037   8.931  0.4877 -0.8393 -0.4396
10071TIP3    H154408   4.874   4.953   8.894 -0.3622 -1.1667 -0.3408
10071TIP3    H254409   4.785   5.073   8.867  0.3309 -0.6098 -0.1632
10072TIP3   OH254410   3.302   3.240  10.655 -0.3244  0.1265  0.3930
10072TIP3    H154411   3.381   3.195  10.684  0.9019  2.6822  1.3078
10072TIP3    H254412   3.234   3.211  10.715 -0.1754 -2.1481 -0.4429
10073TIP3   OH254413   2.562   1.432   8.845 -0.3087 -0.2008 -0.3645
10073TIP3    H154414   2.504   1.506   8.829  0.2335  0.3336  0.1257
10073TIP3    H254415   2.506   1.355   8.834 -0.9000  0.2771 -0.7562
10074TIP3   OH254416   1.273   3.488   9.534 -0.2724 -0.1328 -0.1013
10074TIP3    H154417   1.191   3.528   9.507  0.1070  0.3274 -0.6065
10074TIP3    H254418   1.266   3.397   9.503 -0.5331 -0.0587 -0.2662
10075TIP3   OH254419   4.453   6.044   9.209 -0.3781  0.7658 -0.2883
10075TIP3    H154420   4.528   6.047   9.150 -1.6962  0.5821 -2.0753
10075TIP3    H254421   4.431   5.951   9.215 -1.7302  0.9570 -1.5639
10076TIP3   OH254422   0.314   5.272  12.114 -0.2088  0.1907  0.0061
10076TIP3    H154423   0.259   5.247  12.040 -0.0724  0.1151 -0.0701
10076TIP3    H254424   0.399   5.293  12.075 -0.7834  2.4237 -0.1416
10077TIP3   OH254425   3.366   3.039   9.682  0.2506 -0.3523 -0.1364
10077TIP3    H154426   3.374   2.944   9.674 -0.1492 -0.4750  0.8623
10077TIP3    H254427   3.346   3.055   9.774 -0.9154  0.6130 -0.5225
10078TIP3   OH254428   3.410   1.258  10.486  0.0809 -0.1005  0.1373
10078TIP3    H154429   3.432   1.299  10.403 -0.5273  0.4137  0.2216
10078TIP3    H254430   3.486   1.273  10.542 -0.1847  1.0480  0.2130
10079TIP3   OH254431   6.516   5.480  11.381  0.4751  0.0232 -0.3538
10079TIP3    H154432   6.466   5.399  11.384 -0.8089  0.8014  0.4230
10079TIP3    H254433   6.571   5.476  11.459  0.6562 -0.2490 -0.4950
10080TIP3   OH254434   2.053   4.539  11.106  0.0022 -0.6967 -0.3093
10080TIP3    H154435   2.035   4.498  11.022  0.6324  2.8443 -2.3871
10080TIP3    H254436   2.148   4.549  11.109 -0.1727  2.2283 -0.9421
10081TIP3   OH254437   5.542   5.594  11.701  0.0391  0.3637 -0.2938
10081TIP3    H154438   5.607   5.574  11.768 -0.6123  2.0006  0.8811
10081TIP3    H254439   5.462   5.553  11.733 -0.6896  2.5571  0.8624
10082TIP3   OH254440   0.428   4.131  10.387 -0.0578 -0.0200 -0.1538
10082TIP3    H154441   0.375   4.076  10.329 -2.7472  1.1615  1.0005
10082TIP3    H254442   0.444   4.077  10.464 -1.5656  0.2686  0.4123
10083TIP3   OH254443   4.339   6.671  11.106 -0.5793 -0.2851  0.3147
10083TIP3    H154444   4.324   6.717  11.189 -0.7830  2.5687 -1.1678
10083TIP3    H254445   4.424   6.704  11.076 -1.2727  0.0744 -1.3715
10084TIP3   OH254446   6.266   1.204   9.536  0.1084 -0.6917  0.3885
10084TIP3    H154447   6.229   1.157   9.611  0.3318 -2.5497 -0.6132
10084TIP3    H254448   6.361   1.188   9.542  0.1547 -0.6395 -0.1354
10085TIP3   OH254449   1.816   0.011   9.003 -0.3238 -0.1166 -0.3850
10085TIP3    H154450   1.736   0.043   8.962 -0.2870 -0.8307 -1.0524
10085TIP3    H254451   1.826   0.063   9.082 -2.0223 -0.7138  0.2674
10086TIP3   OH254452   0.383   0.495  10.429  0.0692 -0.2173  0.1884
10086TIP3    H154453   0.349   0.411  10.461 -1.4682 -0.1500 -1.1531
10086TIP3    H254454   0.344   0.505  10.343  1.5907  1.1021 -0.3885
10087TIP3   OH254455   2.384   0.314  11.357  0.7464 -0.4395 -0.6763
10087TIP3    H154456   2.452   0.368  11.317 -0.8656  1.1872 -1.3629
10087TIP3    H254457   2.401   0.225  11.324  0.9897  0.3927 -2.9691
10088TIP3   OH254458   2.261   4.046  10.939 -0.1814 -0.0263  0.2828
10088TIP3    H154459   2.255   4.063  10.845 -1.7756  2.6467  0.7580
10088TIP3    H254460   2.354   4.051  10.959  0.0661  0.6120 -0.9679
10089TIP3   OH254461   3.271   4.494  12.020  0.1468 -0.7948  0.0174
10089TIP3    H154462   3.189   4.542  12.008 -0.1416 -0.9084  1.3654
10089TIP3    H254463   3.274   4.475  12.114  1.6405 -0.9422 -0.0425
10090TIP3   OH254464   5.185   4.115   8.577  0.2603  0.7668 -0.1232
10090TIP3    H154465   5.154   4.089   8.664 -0.3345  1.9584  0.0355
10090TIP3    H254466   5.273   4.079   8.572 -0.3092 -0.8117  0.2830
10091TIP3   OH254467   1.654   5.422   9.777 -0.3085 -0.3979  0.2278
10091TIP3    H154468   1.738   5.377   9.788 -1.0869 -1.6924  1.1022
10091TIP3    H254469   1.649   5.481   9.852 -0.7048 -1.2073  0.8515
10092TIP3   OH254470   2.209   5.637   8.972  0.5752 -0.1070  0.0547
10092TIP3    H154471   2.189   5.545   8.987  0.0803 -0.1565 -0.8555
10092TIP3    H254472   2.168   5.683   9.046 -2.3848 -0.2771 -1.3199
10093TIP3   OH254473   0.187   4.294  11.013  0.0888  0.0632  0.5493
10093TIP3    H154474   0.094   4.281  11.034 -0.1405 -0.0338 -0.4943
10093TIP3    H254475   0.189   4.300  10.918  0.9967  1.3361  0.6374
10094TIP3   OH254476   3.272   1.478  10.645  0.4083  0.0459 -0.2264
10094TIP3    H154477   3.282   1.432  10.728 -0.5527  1.5786  0.7922
10094TIP3    H254478   3.294   1.413  10.579 -0.1751 -1.6400  1.1637
10095TIP3   OH254479   6.311   2.047   9.319  0.1851  0.2320 -0.0400
10095TIP3    H154480   6.375   2.105   9.279  0.4723 -0.0640 -0.0146
10095TIP3    H254481   6.297   1.978   9.254  0.5622 -0.1847  0.3127
10096TIP3   OH254482   1.385   0.663  11.501  0.2098 -0.1972 -0.0772
10096TIP3    H154483   1.426   0.728  11.558 -0.2754  1.4386 -1.5142
10096TIP3    H254484   1.292   0.667  11.523  0.2716 -0.9787  0.3591
10097TIP3   OH254485   2.895   0.478  11.301 -0.1215  0.5025 -0.5650
10097TIP3    H154486   2.827   0.496  11.366  1.7621  4.9229  0.5323
10097TIP3    H254487   2.861   0.513  11.219  0.0530  0.9592 -0.4454
10098TIP3   OH254488   6.210   5.566  12.278  0.5478 -0.0460 -0.3091
10098TIP3    H154489   6.159   5.500  12.325 -0.9414  0.8548 -0.5869
10098TIP3    H254490   6.293   5.571  12.325  0.4476 -1.6542  0.0808
10099TIP3   OH254491   6.277   1.749   9.676  0.3680 -0.0887 -0.1767
10099TIP3    H154492   6.185   1.772   9.687  0.1156  0.0195 -2.1985
10099TIP3    H254493   6.286   1.662   9.715 -0.7253 -0.3520 -0.4971
10100TIP3   OH254494   4.108   0.042  10.969 -0.7634 -0.4208  0.3575
10100TIP3    H154495   4.058   0.048  11.050  0.4662 -0.4859  1.1491
10100TIP3    H254496   4.185  -0.011  10.992  0.0404  0.2832 -0.6186
10101TIP3   OH254497   0.930   1.071   8.971  0.3973  0.3681 -0.1894
10101TIP3    H154498   1.012   1.094   9.015 -0.3740  0.6388  1.1750
10101TIP3    H254499   0.936   0.977   8.956  0.4043  0.1429  1.1449
10102TIP3   OH254500   0.869   3.824   9.594  0.1198 -0.4213 -0.5929
10102TIP3    H154501   0.850   3.772   9.671  0.5762  0.3604  0.0653
10102TIP3    H254502   0.893   3.910   9.628 -0.9057  0.3239 -1.6636
10103TIP3   OH254503   3.236   3.853   9.514  0.2950  0.7711  0.7356
10103TIP3    H154504   3.210   3.815   9.597 -0.6295 -0.8119 -0.2410
10103TIP3    H254505   3.271   3.780   9.463 -1.3356  1.2110 -1.1265
10104TIP3   OH254506   3.109   4.862  10.894 -0.3462 -0.1379  0.0367
10104TIP3    H154507   3.032   4.842  10.841 -0.2812 -4.9982  1.2948
10104TIP3    H254508   3.085   4.835  10.983  1.6054  1.8227  1.2650
10105TIP3   OH254509   3.054   0.379  10.886  0.2130 -0.6874 -0.3651
10105TIP3    H154510   3.062   0.453  10.826  0.9424 -0.3166  0.1837
10105TIP3    H254511   2.998   0.316  10.840  0.2734 -0.1480 -1.1751
10106TIP3   OH254512   1.971   3.903   8.971 -0.1730  0.2089  0.4368
10106TIP3    H154513   1.949   3.993   8.947 -0.7763 -0.1137 -0.2786
10106TIP3    H254514   2.055   3.886   8.928 -1.0913 -0.2601 -1.2963
10107TIP3   OH254515   2.954   1.965  10.009 -0.3226 -0.1685 -0.5410
10107TIP3    H154516   2.983   1.904  10.076 -0.9254 -0.0719 -0.1884
10107TIP3    H254517   3.033   1.983   9.958  0.1086 -0.3629  0.0426
10108TIP3   OH254518   4.434   3.083   9.413  0.3210  0.3087 -0.0519
10108TIP3    H154519   4.417   3.116   9.501 -1.2316  0.7385 -0.4829
10108TIP3    H254520   4.523   3.050   9.417 -0.5383 -2.1290  2.4446
10109TIP3   OH254521   1.027   1.134  11.407  0.2070 -0.2928  0.0843
10109TIP3    H154522   1.017   1.039  11.420 -0.2704 -0.2247  0.2349
10109TIP3    H254523   1.077   1.164  11.482  0.3479 -0.4239  0.0430
10110TIP3   OH254524   2.615   0.590   8.618 -0.2849  0.2311  0.7660
10110TIP3    H154525   2.656   0.654   8.676 -0.1712  0.3769  0.5231
10110TIP3    H254526   2.543   0.637   8.576 -0.1727  0.2150  0.5524
10111TIP3   OH254527   5.586   1.871   9.860 -0.0813 -0.6476 -0.4151
10111TIP3    H154528   5.633   1.807   9.914 -0.4484  1.4706  2.6921
10111TIP3    H254529   5.614   1.852   9.770  2.3720 -2.9754  0.6945
10112TIP3   OH254530   4.555   2.024  10.468  0.6526  0.1018  0.1478
10112TIP3    H154531   4.608   2.031  10.389 -0.0883  0.5241 -0.3149
10112TIP3    H254532   4.540   1.930  10.480 -0.7984  0.1288 -1.2608
10113TIP3   OH254533   2.082   3.304   9.411  0.2592 -0.0362 -0.4073
10113TIP3    H154534   1.998   3.351   9.412  0.4696  0.3376 -0.0288
10113TIP3    H254535   2.111   3.310   9.320  1.1329  2.1319 -0.0510
10114TIP3   OH254536   6.120   0.109  10.046 -0.0491  0.1575  0.1172
10114TIP3    H154537   6.204   0.153  10.032  0.5577 -0.8548  0.4392
10114TIP3    H254538   6.120   0.037   9.983 -1.0610  0.6481 -0.4583
10115TIP3   OH254539   0.140   3.984   9.435  0.4408 -0.6605 -0.1971
10115TIP3    H154540   0.119   4.070   9.471  0.6852 -0.0244 -1.5078
10115TIP3    H254541   0.149   3.927   9.512 -2.4710 -0.1793  0.5918
10116TIP3   OH254542   6.368   2.071  10.669 -0.1573  0.2102  0.6421
10116TIP3    H154543   6.281   2.075  10.708 -1.1613 -0.0976 -1.4318
10116TIP3    H254544   6.389   2.162  10.647 -1.4313  0.0008 -1.7741
10117TIP3   OH254545   5.000   2.548  11.331  0.5435 -0.4248  0.4090
10117TIP3    H154546   4.951   2.627  11.307  0.4310 -1.1375 -1.9716
10117TIP3    H254547   4.936   2.492  11.376  0.2137  0.1866  0.7162
10118TIP3   OH254548   0.908   0.006   9.332 -0.0748 -0.3122 -0.5348
10118TIP3    H154549   0.931   0.029   9.422 -0.1811  2.0829 -1.0548
10118TIP3    H254550   0.813   0.013   9.329  0.0791  3.0467 -1.5618
10119TIP3   OH254551   2.266   2.496   9.172  0.1078  0.4670 -0.1799
10119TIP3    H154552   2.296   2.529   9.257  2.0840  2.8250 -1.6450
10119TIP3    H254553   2.319   2.417   9.158  1.2886  1.2074 -0.0726
10120TIP3   OH254554   1.996   3.084  10.313 -0.0420 -0.2168 -0.6218
10120TIP3    H154555   1.930   3.130  10.261 -0.1317  0.2316 -0.1136
10120TIP3    H254556   2.062   3.056  10.249  0.5824  1.5858 -0.8147
10121TIP3   OH254557   0.217   4.749  11.598 -0.0295 -0.1876 -0.3234
10121TIP3    H154558   0.280   4.692  11.642  0.9676 -0.2258 -1.7213
10121TIP3    H254559   0.144   4.756  11.659  1.4321  0.0927  1.4846
10122TIP3   OH254560   0.977   0.418   8.929  0.3160 -0.3516  0.5654
10122TIP3    H154561   1.054   0.362   8.941 -0.4710 -1.4584  0.5525
10122TIP3    H254562   0.922   0.399   9.004 -0.4545 -0.4001 -0.0051
10123TIP3   OH254563   0.948   3.063  11.327  0.2634  0.6867 -0.7320
10123TIP3    H154564   0.867   3.015  11.341  0.8324 -0.7194 -1.9950
10123TIP3    H254565   1.001   3.045  11.405 -0.9119  2.3366  0.5208
10124TIP3   OH254566   3.084   4.657   9.228  0.1677 -0.0551  0.0790
10124TIP3    H154567   3.076   4.596   9.154 -1.3403  0.0102  0.1681
10124TIP3    H254568   3.066   4.743   9.191  1.3243  0.2388  0.1554
10125TIP3   OH254569   2.291   1.113  10.635 -0.0578 -0.6173 -0.1726
10125TIP3    H154570   2.283   1.126  10.729 -0.8989  0.7256 -0.3958
10125TIP3    H254571   2.367   1.056  10.624  0.8154  0.2227  1.2479
10126TIP3   OH254572   0.549   4.510   9.284 -0.1829  0.1499  0.5551
10126TIP3    H154573   0.526   4.501   9.377 -0.8999 -0.3728  0.3344
10126TIP3    H254574   0.551   4.604   9.269 -0.0855  0.2403  1.0917
10127TIP3   OH254575   1.665   2.358  10.364 -0.0178 -0.3360 -0.4043
10127TIP3    H154576   1.711   2.352  10.447  0.5450 -0.3851 -0.7126
10127TIP3    H254577   1.680   2.273  10.322  0.3265 -0.0505 -0.8717
10128TIP3   OH254578   3.742   5.935   9.096 -0.4832 -0.9556  0.1274
10128TIP3    H154579   3.679   5.868   9.067  0.7247 -1.5793 -1.1842
10128TIP3    H254580   3.692   5.990   9.156 -2.8176 -0.3795 -2.1527
10129TIP3   OH254581   3.371   0.179   9.911 -0.0579  0.0834 -0.4062
10129TIP3    H154582   3.295   0.122   9.898  0.3994 -0.2959 -1.4975
10129TIP3    H254583   3.382   0.224   9.827  0.7658  0.3249 -0.1754
10130TIP3   OH254584   5.042   3.923  11.550 -0.3490 -0.1668  0.1951
10130TIP3    H154585   5.105   3.889  11.614 -0.8369  1.9748  1.9398
10130TIP3    H254586   4.968   3.951  11.603 -0.7523  1.7624 -1.3094
10131TIP3   OH254587   1.996   5.601  11.629  0.4718 -0.0482 -0.2703
10131TIP3    H154588   2.051   5.535  11.671 -2.7592 -3.5706 -1.0441
10131TIP3    H254589   1.916   5.602  11.683  0.0719  2.6986 -0.7950
10132TIP3   OH254590   1.298   2.809  10.342  0.5895  0.2254 -0.0073
10132TIP3    H154591   1.309   2.714  10.339 -1.3166 -0.0067 -2.2933
10132TIP3    H254592   1.250   2.824  10.424  0.4951 -0.8153  0.1466
10133TIP3   OH254593   4.708   3.007  10.425  0.1709  0.2114 -0.2505
10133TIP3    H154594   4.620   2.981  10.451  0.6778 -2.3721 -0.8472
10133TIP3    H254595   4.703   3.102  10.415 -3.1062  0.0045 -2.1947
10134TIP3   OH254596   3.692   0.805   9.372 -0.0550  0.2482  0.2194
10134TIP3    H154597   3.630   0.876   9.354 -1.1253 -0.1280  2.1202
10134TIP3    H254598   3.703   0.760   9.288 -3.2282 -0.3350 -0.0006
10135TIP3   OH254599   1.188   6.301  11.710 -0.0242 -0.8834  0.3849
10135TIP3    H154600   1.125   6.230  11.701 -0.0051 -0.6322 -2.6256
10135TIP3    H254601   1.257   6.280  11.648 -0.2290  1.9283 -0.9499
10136TIP3   OH254602   0.869   2.970   9.664 -0.4055 -0.3426  0.3396
10136TIP3    H154603   0.825   3.039   9.615 -1.0240 -0.8871  0.1050
10136TIP3    H254604   0.801   2.936   9.723  0.3824  0.4728  1.7843
10137TIP3   OH254605   2.737   1.419  10.930  0.0803 -0.0485 -0.1732
10137TIP3    H154606   2.644   1.437  10.943  0.2694  0.5286  0.4899
10137TIP3    H254607   2.781   1.481  10.989  0.8361 -1.6174  0.9715
10138TIP3   OH254608   2.409   0.737   8.515  0.1885  0.1576 -0.0658
10138TIP3    H154609   2.394   0.782   8.597  3.4788  2.1041 -0.3309
10138TIP3    H254610   2.360   0.788   8.450  0.4880  0.8345  0.2272
10139TIP3   OH254611   5.125   4.940  10.928 -0.2296 -0.2871  0.3303
10139TIP3    H154612   5.140   4.930  10.834  1.7929  1.3354  0.4382
10139TIP3    H254613   5.044   4.991  10.934  0.4765  0.9870 -0.5980
10140TIP3   OH254614   4.761   1.033  11.336  0.0297 -0.1382 -0.2886
10140TIP3    H154615   4.828   0.986  11.287 -0.4742 -0.5121 -0.6258
10140TIP3    H254616   4.780   1.012  11.428  2.0817  2.0106 -0.1226
10141TIP3   OH254617   1.750   2.193  12.336  0.0889 -0.3555 -0.1480
10141TIP3    H154618   1.682   2.126  12.348  0.8655 -1.2036 -0.4213
10141TIP3    H254619   1.820   2.166  12.395 -0.1363  0.9973  0.7844
10142TIP3   OH254620   3.403   3.067  11.321  0.4774  1.2421 -0.7601
10142TIP3    H154621   3.332   3.003  11.329  0.5061  1.1703 -1.0459
10142TIP3    H254622   3.394   3.101  11.231  1.1274  0.8479 -0.9788
10143TIP3   OH254623   3.459   5.552  12.174  0.1781 -0.5917  0.5416
10143TIP3    H154624   3.409   5.482  12.132  0.4487 -1.7206  1.9990
10143TIP3    H254625   3.394   5.617  12.199 -0.3046 -1.1189  0.6699
10144TIP3   OH254626   3.787   1.258   9.757 -0.4893  0.3657 -0.2773
10144TIP3    H154627   3.817   1.344   9.726 -0.3761  0.6894  0.6940
10144TIP3    H254628   3.836   1.243   9.838  0.9992 -1.5369 -1.4485
10145TIP3   OH254629   4.737   4.374   8.624 -0.7337 -0.2347 -0.0616
10145TIP3    H154630   4.708   4.307   8.686 -2.4801 -0.0359 -0.5997
10145TIP3    H254631   4.832   4.363   8.619 -0.5136 -0.2620  2.6241
10146TIP3   OH254632   6.053   0.070   8.979 -0.2735  0.3934  0.0022
10146TIP3    H154633   5.974   0.122   8.971  0.7206  1.9005 -0.4793
10146TIP3    H254634   6.117   0.128   9.020  0.9243 -0.3883 -0.6724
10147TIP3   OH254635   5.462   2.894   9.039 -0.2833  0.4012 -0.0997
10147TIP3    H154636   5.390   2.947   9.074 -0.9414  0.2730 -1.1984
10147TIP3    H254637   5.430   2.863   8.954  0.5743 -0.7279 -0.0420
10148TIP3   OH254638   5.669   6.409  10.495 -0.1196  0.2328 -0.3351
10148TIP3    H154639   5.754   6.454  10.495 -0.8358  1.6638  0.3292
10148TIP3    H254640   5.606   6.478  10.516 -1.1793 -1.2896  1.7902
10149TIP3   OH254641   3.188   2.632   9.332 -0.1936  0.0574  0.2854
10149TIP3    H154642   3.152   2.567   9.272 -0.3115 -1.4340  1.9087
10149TIP3    H254643   3.121   2.701   9.335  0.0400  0.4286 -1.6213
10150TIP3   OH254644   0.447   6.387   9.715  0.1303  0.4859  0.3442
10150TIP3    H154645   0.389   6.423   9.783  0.1339 -1.1409  1.2596
10150TIP3    H254646   0.515   6.454   9.705 -0.9794  1.6715  0.4607
10151TIP3   OH254647   2.437   5.368  11.659 -0.2072 -0.4938 -0.0024
10151TIP3    H154648   2.469   5.288  11.701 -0.5132 -1.3204 -1.2873
10151TIP3    H254649   2.510   5.398  11.605  0.0451  0.3348  0.7747
10152TIP3   OH254650   1.078   5.758   8.666 -0.4516  0.4396  0.2007
10152TIP3    H154651   1.137   5.693   8.628  1.9113  1.7707  1.3625
10152TIP3    H254652   1.016   5.707   8.717 -0.8269 -1.0738 -1.6374
10153TIP3   OH254653   2.390   0.858  11.134 -0.0083  0.4220 -0.4298
10153TIP3    H154654   2.445   0.851  11.212 -0.7388  1.1394  0.1745
10153TIP3    H254655   2.431   0.800  11.070  0.5113 -0.3230  0.5481
10154TIP3   OH254656   4.226   6.539   8.818 -0.5348 -0.1832  0.4240
10154TIP3    H154657   4.250   6.453   8.853 -1.1196 -0.1900  0.8295
10154TIP3    H254658   4.309   6.578   8.791 -0.1449 -0.4725  1.1752
10155TIP3   OH254659   5.841   0.022  12.271  0.2015  0.0633 -0.4748
10155TIP3    H154660   5.918  -0.006  12.222  0.7878 -1.2410  1.1279
10155TIP3    H254661   5.855   0.116  12.286 -1.1026  1.1800 -4.6453
10156TIP3   OH254662   4.030   1.726  11.554  0.1829  0.4603 -1.2167
10156TIP3    H154663   4.043   1.773  11.637  0.1267 -0.7341 -0.5064
10156TIP3    H254664   4.016   1.795  11.490  0.0218  1.4183 -0.1943
10157TIP3   OH254665   2.312   3.743   9.852 -0.0729  0.0765 -0.4140
10157TIP3    H154666   2.227   3.718   9.890 -0.3227  1.1416 -0.2276
10157TIP3    H254667   2.288   3.790   9.772  0.3817 -0.3319 -0.7922
10158TIP3   OH254668   5.182   4.843   9.638  0.0713 -0.1705 -0.5587
10158TIP3    H154669   5.175   4.937   9.623 -1.6450 -0.2443 -0.4133
10158TIP3    H254670   5.189   4.834   9.733 -1.7584 -0.2473 -0.4019
10159TIP3   OH254671   0.560   4.763   9.188 -0.0566  0.2548  0.0968
10159TIP3    H154672   0.478   4.779   9.141  0.0039  0.2335 -0.0190
10159TIP3    H254673   0.627   4.801   9.131  0.0389  0.0427  0.0667
10160TIP3   OH254674   4.417   1.341   9.353  0.5407 -0.1353  0.7262
10160TIP3    H154675   4.356   1.351   9.426  0.7401  1.2236  0.7243
10160TIP3    H254676   4.476   1.416   9.360  0.2975  0.2738 -1.0769
10161TIP3   OH254677   4.560   1.055   9.396  0.1139 -0.8486 -0.3651
10161TIP3    H154678   4.486   1.112   9.376 -1.7282 -2.5050  1.3085
10161TIP3    H254679   4.571   1.063   9.491  1.1681 -1.7119 -0.3979
10162TIP3   OH254680   4.116   4.447   8.954  0.0377 -0.6612 -0.5125
10162TIP3    H154681   4.195   4.468   9.003 -1.4683 -1.0925  2.2823
10162TIP3    H254682   4.117   4.351   8.947  0.1500 -0.6138 -1.1790
10163TIP3   OH254683   2.192   1.273  10.435  0.0649  0.1743 -0.2356
10163TIP3    H154684   2.237   1.202  10.480 -0.3616  0.4406  0.6310
10163TIP3    H254685   2.138   1.314  10.503 -1.8623 -0.4306 -1.3289
10164TIP3   OH254686   3.603   2.039   8.636 -0.0618 -0.0350  0.3631
10164TIP3    H154687   3.688   2.082   8.629 -0.4662  0.5462 -1.3535
10164TIP3    H254688   3.623   1.946   8.643  0.7283  0.1929  1.4441
10165TIP3   OH254689   5.857   1.421   9.291 -0.3449 -0.0490  0.5326
10165TIP3    H154690   5.766   1.404   9.318 -0.0868  0.2343  1.6304
10165TIP3    H254691   5.852   1.434   9.197 -1.2704 -1.2920  0.3838
10166TIP3   OH254692   3.532   0.215   8.791 -0.3759 -0.3562  0.1822
10166TIP3    H154693   3.474   0.259   8.729 -0.0302 -1.0163 -0.6323
10166TIP3    H254694   3.491   0.230   8.877 -2.5169 -1.8969 -0.4820
10167TIP3   OH254695   5.161   1.590   9.690  0.1300  0.5445  0.2765
10167TIP3    H154696   5.157   1.506   9.645  1.2322  0.2389  0.7066
10167TIP3    H254697   5.155   1.567   9.783  2.1415  0.7476  0.5045
10168TIP3   OH254698   5.475   0.744  11.032  0.1664  0.3955  0.2136
10168TIP3    H154699   5.567   0.747  11.058  0.1339 -1.0972  0.5561
10168TIP3    H254700   5.428   0.711  11.108 -0.7603  1.6469  0.2319
10169TIP3   OH254701   0.892   0.598   9.523 -0.7850 -0.1425  0.1591
10169TIP3    H154702   0.814   0.567   9.479 -0.7070  0.2720 -0.2818
10169TIP3    H254703   0.965   0.559   9.476 -0.6764  0.9402 -0.6070
10170TIP3   OH254704   2.758   1.787  10.721  0.5725  0.2806 -0.3183
10170TIP3    H154705   2.833   1.822  10.769 -0.0848  0.2105  0.8038
10170TIP3    H254706   2.691   1.855  10.728  1.5527  1.9239 -4.2736
10171TIP3   OH254707   5.758   4.850   9.070 -0.8379  0.2046 -0.2506
10171TIP3    H154708   5.788   4.917   9.009  0.3261 -0.5082 -0.4821
10171TIP3    H254709   5.668   4.831   9.042 -0.8247  0.9271 -0.8147
10172TIP3   OH254710   0.949   5.215  11.970 -0.6730  0.6605  0.0297
10172TIP3    H154711   0.860   5.184  11.988 -0.9758  0.2815 -1.9008
10172TIP3    H254712   0.936   5.296  11.922  0.0720  1.3309  0.9296
10173TIP3   OH254713   0.937   0.564  10.800 -0.4563  0.2552  0.3386
10173TIP3    H154714   0.885   0.484  10.804 -2.6327  1.6332  1.3262
10173TIP3    H254715   1.014   0.545  10.853 -0.7010 -1.3174  0.1787
10174TIP3   OH254716   0.376   3.396   9.288 -0.0076  0.1228 -0.2985
10174TIP3    H154717   0.401   3.360   9.203 -0.1260  0.6103 -0.5454
10174TIP3    H254718   0.286   3.427   9.275  0.1917  0.7686 -0.1843
10175TIP3   OH254719   0.723   5.323  10.727 -0.2310  0.1831  0.0325
10175TIP3    H154720   0.746   5.317  10.820  1.1753 -1.0245 -0.3630
10175TIP3    H254721   0.794   5.372  10.687 -0.7792  0.6084 -0.4523
10176TIP3   OH254722   4.347   5.957   8.844  0.2370  0.4276  0.1201
10176TIP3    H154723   4.385   5.871   8.863  1.6163  1.4440  2.5920
10176TIP3    H254724   4.421   6.008   8.812 -0.7572  0.5244 -2.1722
10177TIP3   OH254725   3.770   2.886  11.735 -0.1496  0.2733  0.8096
10177TIP3    H154726   3.773   2.889  11.831 -0.5000  0.9565  0.8029
10177TIP3    H254727   3.707   2.954  11.711 -0.4810 -0.2677  0.1144
10178TIP3   OH254728   0.922   6.046  10.932  0.1358  0.1305 -0.0087
10178TIP3    H154729   0.836   6.007  10.920 -0.5048  1.4477  0.2094
10178TIP3    H254730   0.958   6.054  10.843 -1.0393  1.9288 -0.3579
10179TIP3   OH254731   0.780   2.325   9.925 -0.1738  0.0393  0.2834
10179TIP3    H154732   0.770   2.313  10.019  0.9465 -0.3122  0.3669
10179TIP3    H254733   0.793   2.420   9.915 -0.1366  0.0570  0.4944
10180TIP3   OH254734   1.462   6.184  12.255 -0.3248 -0.2113  0.4237
10180TIP3    H154735   1.368   6.189  12.273 -0.4103  1.2596 -0.3235
10180TIP3    H254736   1.500   6.254  12.308  0.4133 -0.9877  0.9500
10181TIP3   OH254737   6.608   2.379  10.102  0.0632  0.1770  0.6940
10181TIP3    H154738   6.568   2.446  10.159  0.5229  0.3815  0.7821
10181TIP3    H254739   6.538   2.315  10.087 -0.4970  0.8685  0.3022
10182TIP3   OH254740   3.601   1.988   9.501  0.6948  0.1364  0.0369
10182TIP3    H154741   3.588   2.067   9.554  1.5112 -0.7962  1.7328
10182TIP3    H254742   3.690   1.996   9.467  0.6382  0.1212 -0.1161
10183TIP3   OH254743   4.986   5.940  10.699 -0.0574 -0.0363 -0.2530
10183TIP3    H154744   5.036   5.880  10.643 -0.6094  0.6889 -1.5780
10183TIP3    H254745   4.898   5.901  10.703  0.4429 -1.0627  1.6836
10184TIP3   OH254746   4.010   4.295  11.755  0.5364  0.6014 -0.6520
10184TIP3    H154747   3.948   4.238  11.709 -0.1447  0.8366 -0.0343
10184TIP3    H254748   4.022   4.369  11.695  0.9690  0.1058 -1.1942
10185TIP3   OH254749   4.457   4.619  11.264  0.1793 -0.0954 -0.2965
10185TIP3    H154750   4.414   4.686  11.316 -0.0618  0.1191 -0.7688
10185TIP3    H254751   4.478   4.550  11.327 -0.8781 -0.2213 -0.0662
10186TIP3   OH254752   5.564   0.320  10.990  0.0138  0.2425  0.2648
10186TIP3    H154753   5.569   0.320  10.895  0.9510 -0.2229  0.3033
10186TIP3    H254754   5.655   0.320  11.019 -0.2615  0.3672  1.1584
10187TIP3   OH254755   3.292   1.614   9.151  0.6925 -0.2790  0.4569
10187TIP3    H154756   3.280   1.597   9.245 -1.1465  0.8115  0.4517
10187TIP3    H254757   3.217   1.573   9.109  1.1078 -0.1085 -0.4842
10188TIP3   OH254758   0.443   4.832  10.846 -0.0666 -0.0801  0.4334
10188TIP3    H154759   0.424   4.924  10.833  0.4581  0.5711  3.5536
10188TIP3    H254760   0.538   4.825  10.831  0.4047  0.5194  2.7562
10189TIP3   OH254761   5.385   4.736  10.055  0.0665  0.6577 -0.2387
10189TIP3    H154762   5.405   4.676  10.126 -2.6594 -0.0041  0.0506
10189TIP3    H254763   5.430   4.817  10.079 -0.5714  0.3682  2.1328
10190TIP3   OH254764   1.429   5.819   8.739  0.3221 -0.0313 -0.3897
10190TIP3    H154765   1.461   5.796   8.827 -0.8958 -0.4636 -0.0396
10190TIP3    H254766   1.363   5.887   8.755  0.5385  0.3368 -1.0359
10191TIP3   OH254767   2.707   3.240   9.158  0.4221 -0.0573  0.0141
10191TIP3    H154768   2.657   3.167   9.195 -1.3333  0.9848 -0.1818
10191TIP3    H254769   2.796   3.206   9.150  0.5690 -0.9169  3.5274
10192TIP3   OH254770   5.480   2.264  10.934 -0.2184  0.1434  0.3873
10192TIP3    H154771   5.428   2.189  10.962  0.1451 -0.2590 -0.0086
10192TIP3    H254772   5.562   2.227  10.902  0.1882  0.7458  0.6973
10193TIP3   OH254773   1.350   1.176   9.326  0.2802  0.4811 -0.3190
10193TIP3    H154774   1.413   1.105   9.316  0.2479  0.0716  1.8121
10193TIP3    H254775   1.271   1.133   9.361  0.0169  1.4393  0.3116
10194TIP3   OH254776   3.423   0.067  10.864  0.1693  0.4226 -0.1728
10194TIP3    H154777   3.515   0.065  10.838 -0.5268 -3.2496 -3.3350
10194TIP3    H254778   3.416  -0.000  10.932 -0.0072  1.7524  1.1681
10195TIP3   OH254779   4.989   6.271  11.022  0.2063  0.0122 -0.3929
10195TIP3    H154780   5.063   6.223  10.986  0.3087 -0.6351  0.6383
10195TIP3    H254781   4.912   6.234  10.979  0.3282 -0.7116  0.0077
10196TIP3   OH254782   0.699   0.152   8.655 -0.1587  0.1552 -0.3597
10196TIP3    H154783   0.782   0.147   8.702 -0.1961  0.2965 -0.2769
10196TIP3    H254784   0.703   0.237   8.610 -1.7591  1.8747  2.4830
10197TIP3   OH254785   5.496   2.407  10.375 -1.1432 -0.0988 -0.1533
10197TIP3    H154786   5.427   2.469  10.400 -1.7699  0.2392 -2.4821
10197TIP3    H254787   5.561   2.415  10.445 -2.5512  1.0064  1.1238
10198TIP3   OH254788   0.453   5.639  12.042 -0.0875 -0.9058  0.1018
10198TIP3    H154789   0.364   5.647  12.076 -1.1436  0.1751 -2.6260
10198TIP3    H254790   0.482   5.553  12.070 -1.3786 -0.7027  2.3171
10199TIP3   OH254791   1.678   2.616  11.085  0.0137  0.0171  0.7151
10199TIP3    H154792   1.754   2.575  11.127  0.0612  0.1664  0.7733
10199TIP3    H254793   1.604   2.585  11.137 -0.0354 -0.6606  0.2594
10200TIP3   OH254794   2.645   4.940   8.975 -0.1040  0.1214  0.3213
10200TIP3    H154795   2.593   4.958   9.054  0.8858 -1.7951  1.4764
10200TIP3    H254796   2.730   4.979   8.993  0.0713 -0.1608  0.1103
10201TIP3   OH254797   3.593   5.241  12.139  0.4958 -0.4312  0.4095
10201TIP3    H154798   3.506   5.276  12.122  1.0490  0.6847 -0.2216
10201TIP3    H254799   3.579   5.146  12.145 -0.6446 -0.3570 -0.5314
10202TIP3   OH254800   4.332   3.724  12.418  0.3762  0.4440 -0.3731
10202TIP3    H154801   4.292   3.760  12.497 -0.5052 -0.1125 -0.5525
10202TIP3    H254802   4.258   3.694  12.365  0.9961  0.0968 -1.0599
10203TIP3   OH254803   1.334   0.512  10.087  0.1909 -0.0167  0.3171
10203TIP3    H154804   1.268   0.484  10.150 -0.8864  1.3750 -0.1501
10203TIP3    H254805   1.401   0.556  10.141  0.5325 -1.0136  0.7348
10204TIP3   OH254806   0.363   5.980   9.469  0.8549 -0.2095 -0.0374
10204TIP3    H154807   0.269   5.969   9.479  0.7115 -2.9257 -2.9056
10204TIP3    H254808   0.379   6.072   9.491 -2.3676  0.2777  0.7653
10205TIP3   OH254809   4.759   5.855   9.728 -0.5807 -0.0596  1.0209
10205TIP3    H154810   4.830   5.907   9.691  0.2329 -1.0311  1.1618
10205TIP3    H254811   4.753   5.883   9.819 -1.5197  1.2104  0.5899
10206TIP3   OH254812   5.418   3.349   9.901 -0.0478 -0.0251 -0.6091
10206TIP3    H154813   5.473   3.397   9.839  1.2899 -0.2750  0.3391
10206TIP3    H254814   5.420   3.403   9.980 -0.3319 -0.5519 -0.2411
10207TIP3   OH254815   6.649   6.694  10.646 -0.1112  0.1435 -0.6793
10207TIP3    H154816   6.734   6.652  10.664 -0.1497  0.2046 -0.3641
10207TIP3    H254817   6.612   6.641  10.575 -0.7681 -1.2039  0.6185
10208TIP3   OH254818   3.706   3.923  10.853  0.3897 -0.1832  0.3468
10208TIP3    H154819   3.747   3.843  10.819 -0.0656  0.1380 -1.0227
10208TIP3    H254820   3.692   3.905  10.946  1.9507 -0.9945  0.4634
10209TIP3   OH254821   2.521   4.532   8.804 -0.0716 -0.3900  0.2491
10209TIP3    H154822   2.565   4.507   8.723 -0.5529  0.3868 -0.2589
10209TIP3    H254823   2.559   4.474   8.870  0.8230 -0.5628 -0.3980
10210TIP3   OH254824   5.098   3.094  10.195 -0.0710 -0.4698 -0.2305
10210TIP3    H154825   5.073   3.156  10.127  1.4236 -0.1748 -0.5467
10210TIP3    H254826   5.135   3.020  10.147  2.2588  0.3109  0.2373
10211TIP3   OH254827   5.695   4.919   9.671  0.3099  0.0963 -0.0562
10211TIP3    H154828   5.617   4.888   9.717  0.4423 -0.6223 -0.2999
10211TIP3    H254829   5.661   4.961   9.591  0.1926 -0.7450 -0.4606
10212TIP3   OH254830   3.110   0.629  10.282  0.1658 -0.0263  0.2339
10212TIP3    H154831   3.067   0.544  10.279  0.0065  0.0795 -0.7700
10212TIP3    H254832   3.198   0.611  10.312  0.0976 -0.5329  0.1290
10213TIP3   OH254833   2.473   3.462   9.946 -0.5792  0.1293 -0.3563
10213TIP3    H154834   2.450   3.552   9.967  0.5910  0.2136  0.6575
10213TIP3    H254835   2.556   3.468   9.899 -0.8751 -0.3881 -0.9787
10214TIP3   OH254836   1.081   6.683  11.194 -0.3952  0.5094 -0.0459
10214TIP3    H154837   1.078   6.775  11.219 -0.5004  0.8259 -1.1545
10214TIP3    H254838   1.030   6.638  11.262 -0.8802  1.3478  0.1679
10215TIP3   OH254839   1.551   3.896   9.668  0.2812 -0.2561 -0.1926
10215TIP3    H154840   1.576   3.969   9.724 -2.3902  0.5186  0.1369
10215TIP3    H254841   1.602   3.822   9.700  1.3222  0.9293  1.0035
10216TIP3   OH254842   1.580   4.478  11.232  0.4900  0.6965 -0.1348
10216TIP3    H154843   1.633   4.541  11.182 -1.0384 -0.7479 -3.9228
10216TIP3    H254844   1.593   4.395  11.187 -1.2866 -0.7060  1.7695
10217TIP3   OH254845   2.965   6.366  10.567 -0.0082  0.0353 -0.0816
10217TIP3    H154846   3.059   6.370  10.547 -0.3295  0.0822 -1.6674
10217TIP3    H254847   2.951   6.440  10.626  0.8693  0.3284 -0.2186
10218TIP3   OH254848   4.784   3.458  10.607 -0.1371 -0.6354 -0.2573
10218TIP3    H154849   4.726   3.531  10.628 -3.1439 -2.9411  0.1707
10218TIP3    H254850   4.846   3.455  10.680 -1.6716 -0.1273  1.1135
10219TIP3   OH254851   5.313   0.186  10.505 -0.1427 -0.1345  0.0540
10219TIP3    H154852   5.372   0.208  10.433  1.0841  0.3114  1.1499
10219TIP3    H254853   5.229   0.172  10.463  1.1559 -3.0883 -1.8638
10220TIP3   OH254854   2.322   3.165  11.282  1.0243  0.1874  0.0050
10220TIP3    H154855   2.395   3.106  11.265  1.6775  0.9275  0.1544
10220TIP3    H254856   2.283   3.132  11.363  2.5927  1.0733  1.1755
10221TIP3   OH254857   1.743   6.379   9.639  0.3217 -0.3960 -0.1141
10221TIP3    H154858   1.696   6.298   9.662 -0.5297  0.2455  0.4727
10221TIP3    H254859   1.812   6.350   9.579 -2.5925 -1.0564 -3.4642
10222TIP3   OH254860   6.627   4.847   8.869 -0.2676 -0.1638 -0.1967
10222TIP3    H154861   6.570   4.905   8.818  0.8664  0.4549 -0.7935
10222TIP3    H254862   6.706   4.899   8.885  0.5134 -1.3302 -0.1786
10223TIP3   OH254863   2.461   2.514  11.326  0.0757  0.0145 -0.0067
10223TIP3    H154864   2.434   2.605  11.343 -2.2617 -0.6995  0.4821
10223TIP3    H254865   2.505   2.487  11.406  1.2407  0.8627 -0.3494
10224TIP3   OH254866   4.063   6.367  11.520  0.1819  0.1741 -0.1023
10224TIP3    H154867   4.097   6.358  11.431 -0.1897 -0.0277 -0.2263
10224TIP3    H254868   4.078   6.281  11.560  1.6672  0.6863  0.5080
10225TIP3   OH254869   5.907   4.466  10.152  0.2088 -0.1283  0.1624
10225TIP3    H154870   5.875   4.436  10.236  0.4803 -0.5540  0.1199
10225TIP3    H254871   5.958   4.545  10.172 -0.8433  0.5488  0.2268
10226TIP3   OH254872   1.391   3.985  10.709  0.2444  0.0328  0.4737
10226TIP3    H154873   1.378   4.028  10.625  4.8223 -1.6837 -1.4243
10226TIP3    H254874   1.402   4.057  10.771 -0.8377  1.3941 -0.8470
10227TIP3   OH254875   2.885   5.713   9.065 -0.3651  0.3734  0.2565
10227TIP3    H154876   2.872   5.682   9.154  0.8218  0.2306  0.3882
10227TIP3    H254877   2.849   5.643   9.010  1.5803 -0.9541  0.5673
10228TIP3   OH254878   6.379   5.416   9.286  0.2023  0.1950  0.0515
10228TIP3    H154879   6.317   5.488   9.269  0.0238 -0.0332 -0.2653
10228TIP3    H254880   6.459   5.460   9.316 -0.2634  0.4701  0.9401
10229TIP3   OH254881   4.437   5.169  11.611 -0.0770 -0.1016 -0.2914
10229TIP3    H154882   4.472   5.079  11.610  1.4868  0.4583  0.6576
10229TIP3    H254883   4.459   5.202  11.698 -2.7966  0.4335  0.2916
10230TIP3   OH254884   2.470   1.871  10.768  0.3004  0.4868 -0.3099
10230TIP3    H154885   2.484   1.933  10.840  0.1735  1.6665 -1.2600
10230TIP3    H254886   2.502   1.917  10.691  0.3660 -0.7246 -1.0284
10231TIP3   OH254887   5.054   0.159  11.467  0.1789  0.7094  0.0509
10231TIP3    H154888   5.007   0.242  11.465 -1.4837 -0.1671  0.6794
10231TIP3    H254889   4.996   0.098  11.421  0.8850 -0.3259  0.4999
10232TIP3   OH254890   0.158   3.848   9.679  0.1318 -0.0825 -0.2523
10232TIP3    H154891   0.139   3.787   9.608  1.8564 -0.9068 -0.0709
10232TIP3    H254892   0.207   3.795   9.743  1.0579  1.3075  0.2397
10233TIP3   OH254893   3.352   3.208  10.373 -0.4140  0.2876 -0.4180
10233TIP3    H154894   3.347   3.116  10.396 -1.8434  0.2359 -0.8752
10233TIP3    H254895   3.340   3.254  10.456 -1.3561  0.0667 -0.4239
10234TIP3   OH254896   3.580   4.892  11.524 -0.2830 -0.3294 -0.3830
10234TIP3    H154897   3.600   4.986  11.517 -0.7248 -0.0990  0.9808
10234TIP3    H254898   3.609   4.869  11.612 -2.6797 -0.8028  0.3504
10235TIP3   OH254899   5.177   4.591  11.564 -0.1582  0.1616  0.2606
10235TIP3    H154900   5.115   4.553  11.625  0.2556  0.2248  0.7254
10235TIP3    H254901   5.261   4.550  11.586 -0.3105 -1.1277 -1.3971
10236TIP3   OH254902   3.164   1.127  10.438  0.0068 -0.0143 -0.3008
10236TIP3    H154903   3.256   1.147  10.455  0.4843 -1.2009 -1.3321
10236TIP3    H254904   3.145   1.175  10.357 -0.0390 -0.4447 -0.5436
10237TIP3   OH254905   3.464   3.783  12.029 -0.2350 -0.0351  0.2457
10237TIP3    H154906   3.557   3.805  12.027  0.2578 -1.9509 -1.5347
10237TIP3    H254907   3.437   3.784  11.937 -1.6064 -0.8614  0.6026
10238TIP3   OH254908   4.116   4.695  10.696  0.3115 -0.0781  0.1727
10238TIP3    H154909   4.210   4.704  10.711  0.4127 -1.8175  0.8119
10238TIP3    H254910   4.110   4.649  10.612  0.0008  0.7083 -0.2421
10239TIP3   OH254911   6.222   5.662  10.328 -0.1875  0.0556  0.0500
10239TIP3    H154912   6.242   5.755  10.320  1.3317 -0.2030  0.5955
10239TIP3    H254913   6.128   5.656  10.311 -0.3480  1.7109  0.2389
10240TIP3   OH254914   2.872   5.092   8.959 -0.1794  0.4964 -0.7331
10240TIP3    H154915   2.952   5.109   9.009  0.3146 -0.0310 -1.3383
10240TIP3    H254916   2.873   5.157   8.889 -0.1070  0.2646 -0.9453
10241TIP3   OH254917   4.078   3.868   9.414 -0.0821  0.3583  0.3475
10241TIP3    H154918   4.094   3.943   9.472  0.4469  0.4246  0.1117
10241TIP3    H254919   4.090   3.903   9.326  1.0095 -0.2130  0.2661
10242TIP3   OH254920   1.530   2.148   8.959  0.1962  0.0926  0.5913
10242TIP3    H154921   1.438   2.142   8.933 -0.0358 -0.2166  1.4478
10242TIP3    H254922   1.528   2.192   9.045  0.7893 -0.4810  0.9062
10243TIP3   OH254923   4.224   2.985   9.278 -0.2768 -0.4060 -0.2229
10243TIP3    H154924   4.294   3.051   9.271  0.2397 -1.0806 -1.9678
10243TIP3    H254925   4.216   2.949   9.189 -0.9053 -2.3212  0.5591
10244TIP3   OH254926   5.292   3.328   9.566 -0.2921  0.2355  0.1430
10244TIP3    H154927   5.279   3.253   9.508  0.6124 -0.0877  0.3309
10244TIP3    H254928   5.272   3.404   9.512  0.1936 -0.0750 -0.4923
10245TIP3   OH254929   1.332   6.612   9.424 -0.0554 -0.4747 -0.2617
10245TIP3    H154930   1.284   6.682   9.380 -0.9465 -1.6296 -1.2063
10245TIP3    H254931   1.406   6.656   9.466 -1.1530  1.1644  0.0585
10246TIP3   OH254932   4.910   4.958   9.199  0.0763 -0.1324  0.4864
10246TIP3    H154933   5.005   4.953   9.210  0.2290 -0.3682 -0.7860
10246TIP3    H254934   4.898   4.998   9.113 -0.9866  0.2555  0.8026
10247TIP3   OH254935   0.849   4.674  11.303  0.2858 -0.3786 -0.0854
10247TIP3    H154936   0.853   4.765  11.332  1.0336 -0.9066  1.5939
10247TIP3    H254937   0.929   4.662  11.251  1.1999 -0.5525  1.2957
10248TIP3   OH254938   0.034   4.909  10.346  0.3108 -0.2435 -0.3374
10248TIP3    H154939   0.010   4.817  10.333  1.9660 -0.6850 -0.5307
10248TIP3    H254940  -0.038   4.946  10.396  0.5676 -2.1979  1.6572
10249TIP3   OH254941   5.928   1.233  10.127  0.2869  0.7165  0.3241
10249TIP3    H154942   5.949   1.295  10.198  0.4688  1.9343 -0.7480
10249TIP3    H254943   5.935   1.286  10.047 -0.8216 -0.3901 -0.5405
10250TIP3   OH254944   6.353   5.309   9.588  0.3306 -0.3912  0.1722
10250TIP3    H154945   6.428   5.347   9.541 -0.7038 -0.8423 -1.9704
10250TIP3    H254946   6.294   5.383   9.602  0.4643 -0.3301  0.4200
10251TIP3   OH254947   5.504   3.427  11.510  0.1204 -0.5636  0.4379
10251TIP3    H154948   5.590   3.404  11.547 -0.5382  0.6310  2.9746
10251TIP3    H254949   5.516   3.518  11.480 -0.9727  0.8686  3.8500
10252TIP3   OH254950   4.913   5.102  11.020  0.0802  0.0795 -0.7652
10252TIP3    H154951   4.879   5.134  11.104  0.3930  0.2911 -0.7168
10252TIP3    H254952   4.870   5.156  10.954  1.5650  1.5134 -0.6244
10253TIP3   OH254953   4.538   3.071  10.989 -0.4756  0.2250 -0.1214
10253TIP3    H154954   4.608   3.132  11.013 -1.6472  0.7456  2.2134
10253TIP3    H254955   4.543   3.067  10.893  1.5171  1.7023 -0.1579
10254TIP3   OH254956   0.696   5.481  10.992  0.1061  0.6937 -0.7731
10254TIP3    H154957   0.607   5.493  10.961  0.8974  2.7765 -2.4432
10254TIP3    H254958   0.738   5.566  10.980  2.2289 -0.1026  0.3594
10255TIP3   OH254959   5.038   5.772   9.933 -0.1221 -0.2007 -0.1312
10255TIP3    H154960   5.012   5.686   9.902 -0.9835  0.3859 -1.0969
10255TIP3    H254961   5.058   5.759  10.026 -1.5388 -1.1807  0.0764
10256TIP3   OH254962   1.436   6.741  11.525  0.2673 -0.6972 -0.3038
10256TIP3    H154963   1.458   6.727  11.433 -0.0981  0.0657 -0.5179
10256TIP3    H254964   1.433   6.654  11.563 -0.4469 -1.0886 -1.2170
10257TIP3   OH254965   3.900   4.843  10.660  0.2867 -0.6018  0.0139
10257TIP3    H154966   3.868   4.770  10.608  0.9869  0.3167 -1.7994
10257TIP3    H254967   3.989   4.818  10.685  1.0301  0.1072 -1.7346
10258TIP3   OH254968   4.410   3.234  10.405 -0.0153 -0.0028  0.3456
10258TIP3    H154969   4.332   3.192  10.441 -0.5142  0.6058 -0.0069
10258TIP3    H254970   4.379   3.277  10.325  0.6716  0.2813  0.2270
10259TIP3   OH254971   3.443   2.666   9.787 -0.2695 -0.0241 -0.0800
10259TIP3    H154972   3.392   2.704   9.716 -0.3212  4.3433  1.9950
10259TIP3    H254973   3.530   2.704   9.777  0.5595 -1.6205  0.6228
10260TIP3   OH254974   4.334   0.627  12.205 -0.1512 -0.7791  0.8001
10260TIP3    H154975   4.368   0.543  12.236  3.3370  0.0662 -0.3029
10260TIP3    H254976   4.326   0.680  12.284  0.9670 -1.1115  1.1551
10261TIP3   OH254977   1.960   2.362  11.756 -0.1458  0.0555 -0.8512
10261TIP3    H154978   2.045   2.360  11.712 -0.2946 -0.8839 -1.1164
10261TIP3    H254979   1.962   2.287  11.816 -0.6261  0.2868 -0.5354
10262TIP3   OH254980   0.494   0.433  12.064  0.0910  0.0897  0.3554
10262TIP3    H154981   0.543   0.419  12.145  0.6317 -0.3316 -0.0321
10262TIP3    H254982   0.541   0.381  11.998 -0.5029  0.1947 -0.1677
10263TIP3   OH254983   3.849   4.761   9.878  0.5872 -0.2877  0.1473
10263TIP3    H154984   3.886   4.704   9.811  1.2280 -0.7425  0.8610
10263TIP3    H254985   3.913   4.831   9.888 -0.2365  0.6157 -0.7799
10264TIP3   OH254986   6.341   5.959   8.849 -0.0899 -0.4083 -0.2269
10264TIP3    H154987   6.351   5.937   8.757  0.2721  1.1253 -0.5846
10264TIP3    H254988   6.426   5.939   8.888  0.9559  2.1117 -0.9754
10265TIP3   OH254989   1.455   1.288  10.075 -0.3440  0.4685  0.0865
10265TIP3    H154990   1.512   1.226  10.028  0.2474  1.4645 -0.5507
10265TIP3    H254991   1.515   1.344  10.123 -0.8423  0.8653  0.2563
10266TIP3   OH254992   0.020   0.490  11.540 -0.4742  0.3324 -0.1207
10266TIP3    H154993  -0.066   0.478  11.501  0.0469  0.4415 -1.3446
10266TIP3    H254994   0.081   0.449  11.478  0.1910 -1.7283  1.7465
10267TIP3   OH254995   1.046   5.713  11.788  0.0474 -0.6189  0.5105
10267TIP3    H154996   1.077   5.797  11.822  1.6347 -2.1046  2.9648
10267TIP3    H254997   1.119   5.679  11.737 -1.1995  0.1505 -1.9552
10268TIP3   OH254998   6.548   4.431   9.245  0.2072  0.3328  0.2163
10268TIP3    H154999   6.600   4.354   9.225  1.9221  1.4457  0.2257
10268TIP3    H255000   6.468   4.419   9.194  1.1706 -0.6270 -1.1391
10269TIP3   OH255001   5.261   1.995  11.830 -0.2365 -0.0116  0.2015
10269TIP3    H155002   5.215   1.983  11.913 -0.2466 -1.6691 -0.0043
10269TIP3    H255003   5.206   2.056  11.780 -0.9613 -0.0957  0.8819
10270TIP3   OH255004   4.908   2.744  11.633 -0.0517  0.3450  0.1790
10270TIP3    H155005   4.874   2.831  11.614  0.0062  0.2522 -0.3713
10270TIP3    H255006   4.916   2.741  11.729 -0.3890  0.8130  0.2241
10271TIP3   OH255007   1.909   6.313   8.514  0.1556  0.0262  0.2115
10271TIP3    H155008   1.925   6.336   8.606  2.0377  0.1880 -0.1062
10271TIP3    H255009   1.967   6.371   8.465 -1.1087  0.2145 -1.1332
10272TIP3   OH255010   2.202   0.990   9.947  0.2402  0.3544 -0.6895
10272TIP3    H155011   2.125   1.021   9.900  0.6499 -0.3588 -1.8745
10272TIP3    H255012   2.192   1.025  10.035 -1.9773 -0.5611 -0.5078
10273TIP3   OH255013   0.190   2.448   8.975  0.1032  0.4373  0.1794
10273TIP3    H155014   0.145   2.492   8.903 -0.7097 -0.0097  0.4010
10273TIP3    H255015   0.148   2.362   8.980 -0.6265  0.8557  1.8873
10274TIP3   OH255016   5.330   6.359  12.446  0.0269 -0.3472  0.2009
10274TIP3    H155017   5.357   6.301  12.517 -0.7938 -0.5603  0.3513
10274TIP3    H255018   5.300   6.439  12.490 -0.0600 -0.3067  0.0688
10275TIP3   OH255019   4.062   4.710  11.745  0.2230 -0.0090 -0.3261
10275TIP3    H155020   4.070   4.703  11.840  3.2451 -0.7846 -0.5378
10275TIP3    H255021   4.004   4.637  11.721 -1.3938  0.7937  0.9330
10276TIP3   OH255022   1.060   2.038   9.230 -0.2699 -0.2598  0.2027
10276TIP3    H155023   0.967   2.022   9.249 -0.3206 -1.6038 -1.0175
10276TIP3    H255024   1.105   2.009   9.310 -0.7976 -1.1407  0.1983
10277TIP3   OH255025   0.991   3.049   9.318 -0.5315  0.3089  0.0509
10277TIP3    H155026   1.000   2.955   9.335 -0.3058  0.2454 -0.4079
10277TIP3    H255027   0.942   3.082   9.393 -0.3667 -0.1276  0.3575
10278TIP3   OH255028   2.842   6.364  11.793  0.1234 -0.5163 -0.3977
10278TIP3    H155029   2.848   6.419  11.871  0.7132  1.7223 -1.9268
10278TIP3    H255030   2.910   6.297  11.805 -0.0628 -0.4552  1.1484
10279TIP3   OH255031   6.099   2.381  11.018  0.3254 -0.2246  0.3846
10279TIP3    H155032   6.081   2.475  11.026  2.6865  0.2495  0.7683
10279TIP3    H255033   6.063   2.343  11.098  0.5166  0.5605  0.8611
10280TIP3   OH255034   4.746   4.543  11.176  0.2270 -0.6194 -0.5566
10280TIP3    H155035   4.675   4.483  11.200  0.0656 -1.2140 -2.3584
10280TIP3    H255036   4.814   4.526  11.242 -0.6488 -1.2292  0.2310
10281TIP3   OH255037   2.608   0.614  11.731 -0.1912  0.4687  0.3215
10281TIP3    H155038   2.525   0.633  11.774 -0.2573 -0.6573  0.7254
10281TIP3    H255039   2.646   0.700  11.712 -1.3932  0.9916  0.2289
10282TIP3   OH255040   0.928   0.474  10.444  0.1121  1.0016 -0.7595
10282TIP3    H155041   0.945   0.470  10.538  0.2462 -0.0975 -0.8180
10282TIP3    H255042   0.836   0.498  10.437 -0.3432 -0.4624 -0.2938
10283TIP3   OH255043   3.167   2.755  10.041  0.1375 -0.3063 -0.2705
10283TIP3    H155044   3.201   2.669  10.068  1.3221 -0.1653 -1.1991
10283TIP3    H255045   3.125   2.738   9.956  0.8045  0.0981 -0.6931
10284TIP3   OH255046   2.885   4.401  11.173  0.8568 -0.2356  0.0530
10284TIP3    H155047   2.903   4.460  11.247 -0.6461 -1.1861  1.2380
10284TIP3    H255048   2.872   4.460  11.098 -0.8409  1.0157  1.2490
10285TIP3   OH255049   6.257   1.562  10.220  1.0495 -0.1774  0.0015
10285TIP3    H155050   6.197   1.636  10.235  1.1639  0.0347 -0.5745
10285TIP3    H255051   6.327   1.598  10.166  0.7062 -0.8877 -0.9436
10286TIP3   OH255052   3.034   1.812   8.974  0.3427  0.1029 -0.4303
10286TIP3    H155053   3.116   1.848   9.007  1.5591 -0.4209 -2.7071
10286TIP3    H255054   2.980   1.889   8.956 -0.3302  0.4178  2.4233
10287TIP3   OH255055   3.360   2.772   9.550 -0.6535 -0.1039  0.0033
10287TIP3    H155056   3.436   2.733   9.507 -0.9660 -1.3117  0.4869
10287TIP3    H255057   3.285   2.729   9.509 -0.9941 -0.3579  0.8540
10288TIP3   OH255058   5.100   5.375   8.830  0.4153  0.0613 -0.1036
10288TIP3    H155059   5.142   5.289   8.828  0.0206 -0.1335 -1.3509
10288TIP3    H255060   5.172   5.437   8.835  0.7412 -0.3248  0.0252
10289TIP3   OH255061   2.838   0.007  10.440 -0.0437 -0.7948 -0.6549
10289TIP3    H155062   2.897  -0.050  10.489 -0.1998 -1.0126 -0.7230
10289TIP3    H255063   2.859  -0.010  10.348  1.9751  1.3612 -0.6969
10290TIP3   OH255064   4.118   5.803   8.814 -0.2361 -0.1274 -0.2203
10290TIP3    H155065   4.036   5.850   8.825 -0.4573 -1.1132  4.1239
10290TIP3    H255066   4.185   5.871   8.807 -1.1004  0.7213 -0.3716
10291TIP3   OH255067   0.471   5.799   9.636  0.4815 -0.1745  0.2650
10291TIP3    H155068   0.484   5.845   9.719 -1.7354 -0.2246  0.7028
10291TIP3    H255069   0.413   5.855   9.586 -0.7241 -1.5528  0.0401
10292TIP3   OH255070   0.087   3.659   9.466  0.4279 -0.2228 -0.2343
10292TIP3    H155071  -0.000   3.644   9.430 -0.0710 -0.8282  1.1619
10292TIP3    H255072   0.147   3.621   9.401 -0.5181 -2.7455  0.2335
10293TIP3   OH255073   3.409   2.456  11.102  1.0257 -0.4886 -0.2662
10293TIP3    H155074   3.369   2.492  11.023 -0.2278 -1.3776 -0.0695
10293TIP3    H255075   3.451   2.531  11.144 -1.4702  0.8227  0.1275
10294TIP3   OH255076   1.306   1.889  12.294  0.2294  0.0227 -0.2392
10294TIP3    H155077   1.262   1.805  12.304 -0.0227  0.0542 -1.0685
10294TIP3    H255078   1.256   1.935  12.227  1.3731  0.1571 -1.0307
10295TIP3   OH255079   1.343   1.468   9.347  0.5601  0.1918 -0.6941
10295TIP3    H155080   1.333   1.393   9.405  0.6842  1.3415  0.8864
10295TIP3    H255081   1.253   1.498   9.331  0.5402  0.0508 -0.8425
10296TIP3   OH255082   1.099   3.578   9.107  0.2997  0.2086  0.2787
10296TIP3    H155083   1.192   3.600   9.114  0.4424  0.0464 -0.8788
10296TIP3    H255084   1.095   3.514   9.036 -0.4230 -1.6625  1.9490
10297TIP3   OH255085   3.185   0.015  11.208  0.2158  0.3574 -0.0446
10297TIP3    H155086   3.138   0.096  11.192  1.2471  1.4049  1.8858
10297TIP3    H255087   3.117  -0.049  11.229 -0.6735  0.4142 -2.4901
10298TIP3   OH255088   2.064   3.518   8.816  0.0473 -0.3387  0.3061
10298TIP3    H155089   2.127   3.588   8.830 -0.8072  0.3468  0.8044
10298TIP3    H255090   1.979   3.560   8.826 -0.4859 -1.3470  0.1184
10299TIP3   OH255091   0.649   2.872   9.809 -0.6475  0.0340 -0.1795
10299TIP3    H155092   0.692   2.835   9.886  1.4358  0.7947 -0.8960
10299TIP3    H255093   0.579   2.810   9.788  0.4521 -1.5774  0.7263
10300TIP3   OH255094   6.387   2.853  11.038  0.4068  0.1689  0.6298
10300TIP3    H155095   6.385   2.790  11.110  0.1944 -0.0212  0.4571
10300TIP3    H255096   6.476   2.846  11.002  1.1686  1.6157  2.0600
10301TIP3   OH255097   1.134   2.514   9.728  0.5728  1.0239 -0.2651
10301TIP3    H155098   1.136   2.505   9.823  0.6902 -1.3546 -0.4399
10301TIP3    H255099   1.218   2.481   9.699  1.3336  3.5244 -1.1430
10302TIP3   OH255100   4.436   1.847  11.040 -0.0871  0.3483  1.0804
10302TIP3    H155101   4.394   1.789  11.104 -0.7560  1.5159  1.7273
10302TIP3    H255102   4.371   1.915  11.023 -0.3900 -0.5555 -1.7587
10303TIP3   OH255103   0.774   5.533  12.193  0.8679  0.4124  0.1907
10303TIP3    H155104   0.833   5.463  12.221  0.8003  0.7705  1.2716
10303TIP3    H255105   0.699   5.487  12.154  1.5513 -0.0595 -0.5821
10304TIP3   OH255106   0.484   4.929  10.075 -0.3525 -0.1143 -0.1910
10304TIP3    H155107   0.537   4.898  10.149  0.7685  1.1753 -0.4106
10304TIP3    H255108   0.397   4.943  10.112 -0.4345 -1.7475  0.3091
10305TIP3   OH255109   6.182   1.684   9.426  0.4060 -0.4523 -0.5883
10305TIP3    H155110   6.248   1.639   9.374  0.5920 -0.6005 -0.2246
10305TIP3    H255111   6.222   1.696   9.512  0.4583  0.6416 -0.7515
10306TIP3   OH255112   1.459   6.140  10.232  0.1261  0.2667  0.0353
10306TIP3    H155113   1.396   6.118  10.301 -0.4600  0.5266 -0.4024
10306TIP3    H255114   1.501   6.056  10.211 -0.8246 -0.1198 -0.3845
10307TIP3   OH255115   5.384   2.639  11.394  0.4520 -0.2287 -0.4366
10307TIP3    H155116   5.435   2.622  11.315  1.2167 -2.3049  0.4224
10307TIP3    H255117   5.439   2.697  11.446 -0.6468  2.2830 -1.9422
10308TIP3   OH255118   0.415   1.886  10.848  0.3683  0.6039  0.3306
10308TIP3    H155119   0.449   1.810  10.894 -0.0245 -0.1570 -0.6036
10308TIP3    H255120   0.474   1.899  10.775 -0.9191 -0.3240 -0.9211
10309TIP3   OH255121   2.967   5.381  12.321 -0.4662  0.3913 -0.2166
10309TIP3    H155122   2.997   5.457  12.371 -0.6878  0.4288 -0.1364
10309TIP3    H255123   3.044   5.325  12.314 -0.6809 -0.1267  1.1207
10310TIP3   OH255124   5.863   1.561   9.815 -0.0038  0.1795  0.0225
10310TIP3    H155125   5.803   1.497   9.778  1.1126 -0.8102 -0.1407
10310TIP3    H255126   5.936   1.509   9.849  1.4506  1.3936 -1.0587
10311TIP3   OH255127   1.510   0.365  12.096 -0.8852 -0.0217 -0.4140
10311TIP3    H155128   1.538   0.367  12.187  0.0676 -0.5292 -0.6848
10311TIP3    H255129   1.513   0.273  12.072  1.3547  0.2944 -1.6753
10312TIP3   OH255130   3.627   1.293   8.773  0.8885  0.6375  0.2272
10312TIP3    H155131   3.662   1.363   8.718 -0.4900  1.4504  0.3427
10312TIP3    H255132   3.532   1.307   8.772  0.7564  0.0621  1.9877
10313TIP3   OH255133   4.951   5.612  11.030  0.1896  1.0472 -1.0701
10313TIP3    H155134   4.901   5.545  11.078  1.3123  0.9362  0.0177
10313TIP3    H255135   4.966   5.574  10.944  1.6690 -0.6261 -0.1638
10314TIP3   OH255136   3.354   2.366   9.729 -0.2890 -0.3010  0.3087
10314TIP3    H155137   3.267   2.356   9.768 -0.5203 -0.0504 -0.1375
10314TIP3    H255138   3.401   2.424   9.790 -0.3294 -0.6925  0.7128
10315TIP3   OH255139   1.454   6.540   9.114 -0.1342 -0.4576  0.3257
10315TIP3    H155140   1.424   6.471   9.055  0.5696 -1.0607  0.6603
10315TIP3    H255141   1.464   6.497   9.199  0.3508  0.0419  0.5329
10316TIP3   OH255142   4.246   5.582   8.653 -0.4709 -0.3387  0.1647
10316TIP3    H155143   4.187   5.657   8.659  2.1140  1.7785  1.0946
10316TIP3    H255144   4.205   5.514   8.707 -1.2512  1.6142  2.1660
10317TIP3   OH255145   0.229   1.080  11.144 -0.0286  0.0626  0.5172
10317TIP3    H155146   0.227   0.992  11.105 -0.8765 -0.2872  1.3065
10317TIP3    H255147   0.146   1.119  11.118  0.7081  0.9755 -0.5485
10318TIP3   OH255148   2.443   4.488  12.061 -0.0359 -0.0592 -0.4761
10318TIP3    H155149   2.477   4.413  12.012  0.9947 -1.3089  1.9487
10318TIP3    H255150   2.378   4.450  12.121  0.1446  1.0427  0.4529
10319TIP3   OH255151   1.490   4.658  12.080  0.1092  0.3260  0.1268
10319TIP3    H155152   1.407   4.705  12.085  0.7027  1.3357  0.8263
10319TIP3    H255153   1.465   4.567  12.063 -1.1560  0.5241  0.8103
10320TIP3   OH255154   1.412   5.999  11.826 -0.1937 -0.3366 -0.3780
10320TIP3    H155155   1.424   6.026  11.735 -0.3423 -1.5839 -0.7811
10320TIP3    H255156   1.318   6.007  11.841  0.0394  1.7411  0.3007
10321TIP3   OH255157   5.786   2.571  10.487  0.2035 -0.3929  0.0742
10321TIP3    H155158   5.791   2.524  10.571  1.3419  1.0103  0.8384
10321TIP3    H255159   5.720   2.639  10.503 -3.0275 -2.8605 -1.6863
10322TIP3   OH255160   3.208   5.077   8.870 -0.6268 -0.5631  0.2444
10322TIP3    H155161   3.230   5.147   8.931  0.0219  0.7150 -1.3841
10322TIP3    H255162   3.290   5.030   8.856  0.0680  1.1886 -2.0899
10323TIP3   OH255163   0.945   5.071  11.623 -1.0738  0.2743 -0.4613
10323TIP3    H155164   0.854   5.079  11.652 -0.7910  0.5278  0.3870
10323TIP3    H255165   0.979   4.994  11.669 -1.9821 -2.3849 -3.8526
10324TIP3   OH255166   2.211   4.095   9.897 -0.1341  0.7573  0.2154
10324TIP3    H155167   2.265   4.040   9.840 -0.8516 -1.2458  1.3400
10324TIP3    H255168   2.268   4.167   9.923  1.0063  0.3291 -0.9787
10325TIP3   OH255169   1.728   1.840  10.929  0.2156 -0.3453 -0.3357
10325TIP3    H155170   1.701   1.923  10.968 -0.1571 -0.6695  0.1155
10325TIP3    H255171   1.715   1.853  10.835 -0.7783 -0.2142 -0.1947
10326TIP3   OH255172   1.619   6.587  10.717 -0.0728 -0.1309  0.4860
10326TIP3    H155173   1.555   6.622  10.779 -0.3098 -1.7482  1.2031
10326TIP3    H255174   1.566   6.542  10.651  0.2229  0.8254 -0.4302
10327TIP3   OH255175   0.842   6.529  10.664 -0.3445 -0.1852 -0.0018
10327TIP3    H155176   0.834   6.510  10.758 -0.7132 -0.5816 -0.1090
10327TIP3    H255177   0.761   6.575  10.641 -1.1071 -1.7163 -0.5015
10328TIP3   OH255178   3.349   1.065  11.706  0.0419 -0.4442  0.6663
10328TIP3    H155179   3.426   1.011  11.691  0.1178  0.0794 -1.0282
10328TIP3    H255180   3.321   1.043  11.794  0.3401 -2.8949  0.2113
10329TIP3   OH255181   0.266   4.481   9.115 -0.4509  0.1316  0.2617
10329TIP3    H155182   0.295   4.499   9.025 -0.8531 -1.2680 -0.1854
10329TIP3    H255183   0.170   4.489   9.111 -0.5452 -0.8000  0.3235
10330TIP3   OH255184   5.462   1.050  11.024  0.4479  0.1054 -0.5412
10330TIP3    H155185   5.427   1.134  10.995 -2.6460 -1.2379 -1.0723
10330TIP3    H255186   5.426   0.986  10.962  0.2682 -1.9470  1.5390
10331TIP3   OH255187   0.891   2.801  10.504 -0.3693 -0.1447 -0.0565
10331TIP3    H155188   0.930   2.759  10.581 -0.6202  0.4914  0.4228
10331TIP3    H255189   0.918   2.746  10.431 -0.4164 -0.9485  0.5232
10332TIP3   OH255190   5.001   6.680  11.267 -0.2139  0.0904 -0.7213
10332TIP3    H155191   4.944   6.635  11.203 -0.1767 -1.4021  0.2416
10332TIP3    H255192   5.076   6.622  11.277  0.0169  0.5450  0.3149
10333TIP3   OH255193   0.077   2.861  10.623 -0.7560 -0.3584 -0.5505
10333TIP3    H155194   0.107   2.906  10.702 -0.5600 -0.6721 -0.4447
10333TIP3    H255195   0.154   2.858  10.566 -0.6473 -0.9721 -0.3676
10334TIP3   OH255196   0.050   3.234  10.172 -0.3835  0.1318  0.6268
10334TIP3    H155197  -0.027   3.282  10.201 -2.2060 -0.9266 -2.0176
10334TIP3    H255198   0.016   3.148  10.145  1.4643  0.0148 -1.7129
10335TIP3   OH255199   4.979   2.618   8.861 -0.4447  0.0615  0.0357
10335TIP3    H155200   4.943   2.530   8.845  1.1652 -0.6565  0.0968
10335TIP3    H255201   5.069   2.612   8.829 -0.2475  1.6467  0.2375
10336TIP3   OH255202   5.761   2.942  10.277 -0.0795  0.8906 -0.5075
10336TIP3    H155203   5.718   2.908  10.356  0.5487  0.6902 -0.2465
10336TIP3    H255204   5.705   3.014  10.249  0.4899  1.9897  1.0264
10337TIP3   OH255205   4.103   1.310  11.369 -0.5961 -0.4240 -0.0292
10337TIP3    H155206   4.070   1.276  11.452  1.0078 -1.7290  0.1298
10337TIP3    H255207   4.128   1.233  11.319  0.5273  0.4002 -0.8180
10338TIP3   OH255208   4.658   5.145   9.112 -0.0541 -0.6422  0.0962
10338TIP3    H155209   4.616   5.229   9.097 -1.0508 -1.0707  0.4360
10338TIP3    H255210   4.727   5.141   9.045  1.7878  1.5568  1.6679
10339TIP3   OH255211   6.426   4.057   9.207 -0.0758 -0.2018  0.1043
10339TIP3    H155212   6.462   4.040   9.120 -0.6211 -2.9853  0.3169
10339TIP3    H255213   6.481   4.006   9.267 -0.9080  0.0613  1.1269
10340TIP3   OH255214   4.695   2.782   9.800 -0.3664 -0.1669 -0.1275
10340TIP3    H155215   4.648   2.824   9.872 -0.3925 -0.5073  0.0564
10340TIP3    H255216   4.628   2.768   9.733 -0.1837  0.8482 -0.5301
10341TIP3   OH255217   3.401   6.040  10.909 -0.0190  0.1544 -0.5779
10341TIP3    H155218   3.382   5.951  10.940  0.8109 -0.1931 -1.0326
10341TIP3    H255219   3.345   6.097  10.962  0.0126 -0.5759  0.2611
10342TIP3   OH255220   3.614   0.558   9.790  0.1120  0.2770  0.3413
10342TIP3    H155221   3.706   0.583   9.780  0.6694 -1.4397  0.8044
10342TIP3    H255222   3.582   0.550   9.700  0.2679  1.3332  0.1793
10343TIP3   OH255223   4.056   5.287  10.686  0.1809  0.8054 -0.1317
10343TIP3    H155224   3.983   5.245  10.732  2.2372 -1.7333  1.0983
10343TIP3    H255225   4.022   5.307  10.599 -2.2237  0.5882  0.6971
10344TIP3   OH255226   2.147   5.101  11.002 -0.0454 -0.1081 -0.7276
10344TIP3    H155227   2.086   5.072  11.070 -1.5278  2.9888 -0.5908
10344TIP3    H255228   2.203   5.165  11.046 -0.2569  1.0680 -2.1085
10345TIP3   OH255229   3.544   2.943  11.040  0.5380 -0.6381 -0.0782
10345TIP3    H155230   3.584   2.907  10.961  1.2237 -0.1289  0.0257
10345TIP3    H255231   3.495   3.020  11.009  1.6269  0.1565  0.1062
10346TIP3   OH255232   4.252   1.437  10.328  0.1016 -0.5198 -0.2993
10346TIP3    H155233   4.327   1.397  10.373 -0.8918 -1.7130  0.3497
10346TIP3    H255234   4.202   1.363  10.294 -0.8043  0.2605 -0.7104
10347TIP3   OH255235   1.639   0.446   9.282  0.4526  0.4942 -0.3353
10347TIP3    H155236   1.688   0.363   9.275  0.1063  0.1917  0.6362
10347TIP3    H255237   1.552   0.425   9.247  0.1873  0.2805  0.4349
10348TIP3   OH255238   0.335   1.656  10.406  0.3142 -0.6195  0.1090
10348TIP3    H155239   0.300   1.567  10.398 -1.3681  0.1085 -1.3945
10348TIP3    H255240   0.304   1.687  10.490 -3.5869  0.2542 -1.4479
10349TIP3   OH255241   0.279   2.270  11.460  0.2273 -0.0857 -0.3532
10349TIP3    H155242   0.291   2.338  11.527  2.0436 -0.8373  0.1605
10349TIP3    H255243   0.304   2.313  11.378 -0.7627  0.4781 -0.3667
10350TIP3   OH255244   1.779   6.231  10.517  0.0130  0.2681 -0.3106
10350TIP3    H155245   1.823   6.293  10.575 -0.9047  0.1933  0.4819
10350TIP3    H255246   1.788   6.270  10.430  1.8518  0.1370 -0.2278
10351TIP3   OH255247   2.416   0.033  12.201  0.0580  0.4675  0.1324
10351TIP3    H155248   2.381   0.119  12.180 -0.0560  0.2820 -0.4764
10351TIP3    H255249   2.352  -0.006  12.261 -0.3626  0.4532 -0.3188
10352TIP3   OH255250   4.745   4.030  11.955  0.5992  0.1957 -0.0413
10352TIP3    H155251   4.650   4.043  11.960  0.4722 -0.7661  0.4193
10352TIP3    H255252   4.759   3.944  11.996  1.6459  0.2324 -0.2968
10353TIP3   OH255253   6.719   6.006   9.292 -0.1452  0.1481 -0.3711
10353TIP3    H155254   6.730   6.031   9.384  0.9720 -3.5967  0.6991
10353TIP3    H255255   6.796   6.044   9.248 -0.1907  1.1757  0.3944
10354TIP3   OH255256   6.173   6.667  10.376 -0.0068 -0.0324 -0.5873
10354TIP3    H155257   6.207   6.578  10.381  0.1991  0.0999  0.7106
10354TIP3    H255258   6.249   6.722  10.361  0.0889  0.0613  0.1901
10355TIP3   OH255259   4.523   0.249  11.114 -0.0136 -0.4602  0.2488
10355TIP3    H155260   4.534   0.189  11.040  0.5665 -0.7765  0.5783
10355TIP3    H255261   4.596   0.228  11.173 -1.2360 -1.2084  1.5820
10356TIP3   OH255262   0.856   0.670   9.783  0.0571 -0.4831  0.0693
10356TIP3    H155263   0.827   0.631   9.701  0.6295 -2.0360  0.5747
10356TIP3    H255264   0.901   0.750   9.757  1.3969 -1.6024 -1.2731
10357TIP3   OH255265   1.414   1.679  11.781  0.0777  0.1342 -0.0935
10357TIP3    H155266   1.402   1.771  11.803 -0.0269  0.0403  0.2488
10357TIP3    H255267   1.507   1.672  11.760  0.1848  0.2302  0.3228
10358TIP3   OH255268   5.855   0.276  11.046 -0.5793  0.6918  0.1631
10358TIP3    H155269   5.862   0.268  11.141 -1.5451  1.1398  0.2896
10358TIP3    H255270   5.904   0.356  11.025 -0.2506  0.5181  0.2618
10359TIP3   OH255271   2.376   2.822   9.428 -0.2534 -0.7458  0.3354
10359TIP3    H155272   2.365   2.892   9.492  1.5285  0.3128 -0.4729
10359TIP3    H255273   2.341   2.857   9.346  1.6873 -0.3159 -0.3502
10360TIP3   OH255274   3.192   3.210   8.809  0.0349 -0.3108 -0.1656
10360TIP3    H155275   3.270   3.259   8.782  0.1880 -1.1816 -1.4096
10360TIP3    H255276   3.216   3.170   8.892  0.7349 -0.1446 -0.2776
10361TIP3   OH255277   4.939   5.672  12.695  0.5585  0.2994  0.0394
10361TIP3    H155278   4.852   5.647  12.725  0.9062 -0.5489  0.3552
10361TIP3    H255279   4.933   5.666  12.599 -0.3095  2.2297 -0.0783
10362TIP3   OH255280   5.163   1.338   9.506 -0.2306 -0.1813 -0.1781
10362TIP3    H155281   5.251   1.362   9.478 -0.4083  1.4131  0.4978
10362TIP3    H255282   5.152   1.248   9.477  1.8238 -0.6144  0.2216
10363TIP3   OH255283   1.566   5.101  10.714  0.1434  0.0770  0.2776
10363TIP3    H155284   1.651   5.061  10.695  0.4939  0.3527  1.2349
10363TIP3    H255285   1.504   5.027  10.709  0.4841 -0.1911 -0.0678
10364TIP3   OH255286   5.639   5.748  11.205 -0.3609  0.3246  0.2864
10364TIP3    H155287   5.602   5.806  11.271 -1.2970 -0.6326  0.6386
10364TIP3    H255288   5.568   5.735  11.142 -0.0508 -0.1588  0.0290
10365TIP3   OH255289   1.722   0.756  10.228  0.3490 -0.1739 -0.2603
10365TIP3    H155290   1.776   0.769  10.306 -0.7723  0.8105  0.3723
10365TIP3    H255291   1.633   0.748  10.261 -0.2500  1.0382 -1.4694
10366TIP3   OH255292   5.741   0.734  11.124  0.4297  0.1902 -0.0118
10366TIP3    H155293   5.802   0.700  11.190  1.3633  0.5218 -0.6723
10366TIP3    H255294   5.730   0.826  11.148  1.1464  0.4336 -0.5682
10367TIP3   OH255295   2.804   1.773  10.414  0.5514 -0.2412 -0.6324
10367TIP3    H155296   2.885   1.763  10.365  0.4405  0.5255 -0.9936
10367TIP3    H255297   2.825   1.741  10.502  0.7970 -1.4664 -1.1173
10368TIP3   OH255298   2.405   0.076  12.485 -0.6217  0.3128 -0.2817
10368TIP3    H155299   2.328   0.035  12.444  0.2867 -2.3336  0.4185
10368TIP3    H255300   2.380   0.086  12.577  0.0344 -1.1886  0.0928
10369TIP3   OH255301   5.093   1.680  10.384  0.2159  0.2126  0.3722
10369TIP3    H155302   5.163   1.696  10.447 -1.3850 -1.7764  2.9034
10369TIP3    H255303   5.027   1.632  10.434 -1.3250 -1.3034 -2.8019
10370TIP3   OH255304   0.964   1.706  10.446  0.4975 -0.2046  0.1769
10370TIP3    H155305   0.972   1.774  10.379 -1.2236 -0.6404 -0.5277
10370TIP3    H255306   0.884   1.659  10.423 -0.3127 -0.2078  2.7080
10371TIP3   OH255307   4.956   1.849  11.176  0.3912 -0.6463 -0.2951
10371TIP3    H155308   4.914   1.776  11.129 -2.6667  1.4943 -1.1697
10371TIP3    H255309   4.933   1.835  11.268  0.7100 -1.3310 -0.3149
10372TIP3   OH255310   0.929   6.245  10.548 -0.0379  0.4924  0.0189
10372TIP3    H155311   0.853   6.291  10.513  0.2289  1.6558  0.9247
10372TIP3    H255312   1.005   6.295  10.518  0.3611 -0.3137 -0.3695
10373TIP3   OH255313   0.087   0.956   9.460  0.3274  0.2857  0.4005
10373TIP3    H155314   0.117   0.879   9.412 -1.7383 -0.5503  0.3335
10373TIP3    H255315   0.068   1.021   9.392 -0.9167 -0.2799  0.1794
10374TIP3   OH255316   0.793   1.511   9.941  0.1764  0.5655  0.5518
10374TIP3    H155317   0.716   1.458   9.961 -0.2511  0.5898 -0.9470
10374TIP3    H255318   0.859   1.447   9.913  0.1788  0.6844  0.2870
10375TIP3   OH255319   5.757   0.244  11.605  0.2013 -0.3845 -0.0262
10375TIP3    H155320   5.681   0.196  11.574  0.2958 -2.0196  2.0232
10375TIP3    H255321   5.721   0.325  11.642 -0.4101 -0.6068 -0.1286
10376TIP3   OH255322   5.030   1.943   9.013  0.4513 -0.4696  0.5067
10376TIP3    H155323   4.998   2.032   9.000  0.8314 -0.7575 -3.8689
10376TIP3    H255324   5.116   1.954   9.053 -0.7054  0.8329  2.8697
10377TIP3   OH255325   6.414   5.812   9.490  0.5390  0.4700 -0.0792
10377TIP3    H155326   6.508   5.796   9.480  0.4197  0.0359 -0.5270
10377TIP3    H255327   6.376   5.725   9.496  0.2739  0.6498  1.2290
10378TIP3   OH255328   3.387   2.225  11.251  0.0653  0.0184 -0.1724
10378TIP3    H155329   3.331   2.219  11.174 -1.4917 -0.8926  0.9553
10378TIP3    H255330   3.408   2.318  11.259 -0.5794  0.2514 -1.1280
10379TIP3   OH255331   1.513   0.313  11.114 -0.2143  0.3951  0.4371
10379TIP3    H155332   1.583   0.248  11.119 -1.8390 -1.4445  0.4404
10379TIP3    H255333   1.521   0.351  11.027 -0.0997 -0.8673 -0.1221
10380TIP3   OH255334   3.960   6.415   8.793 -0.0899 -0.3592 -0.4861
10380TIP3    H155335   4.001   6.502   8.795  0.4996 -0.6205  1.7040
10380TIP3    H255336   4.031   6.354   8.814 -0.7288 -1.2580 -0.8685
10381TIP3   OH255337   0.682   2.191  12.120  0.1415 -0.0178  0.4557
10381TIP3    H155338   0.618   2.233  12.177  1.0939 -0.1086  1.6454
10381TIP3    H255339   0.644   2.105  12.101 -0.0921 -0.0846  1.1707
10382TIP3   OH255340   2.772   1.436  11.450 -0.0253 -0.3962 -0.7622
10382TIP3    H155341   2.818   1.369  11.500 -1.9391 -1.3217 -0.1516
10382TIP3    H255342   2.747   1.502  11.514 -1.0968 -0.7993 -0.7416
10383TIP3   OH255343   1.471   4.115  10.260 -0.1096  0.3227 -0.7091
10383TIP3    H155344   1.404   4.109  10.193 -0.7335  0.3582 -0.1053
10383TIP3    H255345   1.490   4.025  10.284 -2.2373  0.3256  1.3168
10384TIP3   OH255346   5.975   2.738   9.839 -0.5962 -0.1822 -0.4418
10384TIP3    H155347   6.065   2.717   9.864 -1.3359 -2.5574  0.5019
10384TIP3    H255348   5.934   2.769   9.919 -0.6116  1.0033 -0.8955
10385TIP3   OH255349   1.830   1.820  10.206  0.0277  0.0168 -0.3008
10385TIP3    H155350   1.777   1.832  10.128  0.0341 -0.1272 -0.3281
10385TIP3    H255351   1.907   1.771  10.176 -0.9170 -1.8071  0.1613
10386TIP3   OH255352   5.857   1.351  10.809  0.4865  0.1988  0.1935
10386TIP3    H155353   5.876   1.257  10.820  1.0401  0.4040  1.0870
10386TIP3    H255354   5.943   1.393  10.815  0.3679  0.7009 -1.1771
10387TIP3   OH255355   1.555   2.571  11.455 -0.0946 -0.1999  0.2618
10387TIP3    H155356   1.556   2.646  11.515 -0.3638 -0.4120  0.5334
10387TIP3    H255357   1.645   2.539  11.455  0.0973  0.3209 -0.1080
10388TIP3   OH255358   0.421   2.017  10.118 -0.2700  0.0908 -0.2079
10388TIP3    H155359   0.393   2.105  10.090  0.3895  0.5994  0.6761
10388TIP3    H255360   0.464   1.980  10.041 -1.3407  0.1805 -0.8737
10389TIP3   OH255361   0.102   2.629  10.149  0.4923 -0.3153 -0.4676
10389TIP3    H155362   0.057   2.556  10.191 -0.7499 -0.1169 -1.3998
10389TIP3    H255363   0.072   2.707  10.197  1.9823 -0.4055  0.6663
10390TIP3   OH255364   5.017   5.891  11.790  0.4660 -0.5621 -0.7031
10390TIP3    H155365   5.056   5.902  11.704  0.4587  0.8033 -0.5653
10390TIP3    H255366   5.031   5.799  11.813  2.3244 -0.4388 -1.2531
10391TIP3   OH255367   1.004   3.450  11.373 -0.1872  0.4851  0.3388
10391TIP3    H155368   0.909   3.454  11.360 -0.4966  0.1836  2.2172
10391TIP3    H255369   1.035   3.538  11.350 -0.8499  0.4778 -0.6478
10392TIP3   OH255370   1.229   4.754  12.043 -0.4227 -0.1244  0.1748
10392TIP3    H155371   1.158   4.702  12.081 -0.6814 -1.2456 -1.7289
10392TIP3    H255372   1.217   4.841  12.081 -1.2797 -0.9050  1.8015
10393TIP3   OH255373   3.244   2.468  10.093 -0.0070  0.5855 -0.5584
10393TIP3    H155374   3.263   2.449  10.185  0.2987  0.4259 -0.6505
10393TIP3    H255375   3.330   2.467  10.051 -0.1797  0.3151 -0.9067
10394TIP3   OH255376   4.543   1.325  11.134  0.0739  0.0778  0.2590
10394TIP3    H155377   4.493   1.260  11.184 -0.9937  1.3447  0.9093
10394TIP3    H255378   4.510   1.317  11.045 -0.8645  0.4648  0.5576
10395TIP3   OH255379   3.633   4.358  11.433 -0.5868  0.6528  0.2850
10395TIP3    H155380   3.623   4.450  11.409 -0.6054  0.8920  1.1682
10395TIP3    H255381   3.631   4.311  11.350  0.7300  1.5571 -0.3038
10396TIP3   OH255382   3.502   4.443  12.184 -0.1838 -0.6111  0.1359
10396TIP3    H155383   3.421   4.410  12.225  0.4212 -0.3628  1.5896
10396TIP3    H255384   3.571   4.391  12.224  0.4353 -0.4447 -0.6957
10397TIP3   OH255385   5.552   0.681   9.457 -0.3438  0.4598 -0.0943
10397TIP3    H155386   5.622   0.659   9.396 -0.1346  0.7468  0.0390
10397TIP3    H255387   5.488   0.610   9.447  0.2239 -0.1084  0.1844
10398TIP3   OH255388   5.386   1.081  10.111  0.4149 -0.0919 -0.4328
10398TIP3    H155389   5.466   1.069  10.060  1.3482  2.7034  0.2393
10398TIP3    H255390   5.415   1.084  10.202 -0.6195 -0.1828 -0.0844
10399TIP3   OH255391   4.678   3.726  12.533 -0.6013 -0.0468 -0.0505
10399TIP3    H155392   4.648   3.638  12.555 -0.6597  0.2840  1.2678
10399TIP3    H255393   4.628   3.784  12.591  1.0915  0.6712  0.7550
10400TIP3   OH255394   2.557   6.346   8.889  0.2471  0.4069 -0.2523
10400TIP3    H155395   2.535   6.275   8.828 -1.6914  0.2959  0.5075
10400TIP3    H255396   2.586   6.418   8.833  0.1713 -0.2762 -1.1847
10401TIP3   OH255397   1.885   3.727  10.318 -0.1202 -0.4582  0.6207
10401TIP3    H155398   1.971   3.707  10.279 -0.8267 -2.3263 -0.1004
10401TIP3    H255399   1.845   3.789  10.258  0.6180  0.2310  0.8289
10402TIP3   OH255400   1.808   2.542  11.892 -0.2975 -0.4720 -0.1138
10402TIP3    H155401   1.787   2.484  11.966  0.1848 -0.5318 -0.0204
10402TIP3    H255402   1.854   2.485  11.830 -1.9093 -0.7698 -1.0963
10403TIP3   OH255403   4.511   5.834  10.947 -0.1005 -0.6587  0.0127
10403TIP3    H155404   4.482   5.819  11.037  0.5174 -3.3854 -0.1385
10403TIP3    H255405   4.440   5.884  10.907 -0.9032 -0.3623  1.6858
10404TIP3   OH255406   6.119   0.504   9.748  0.1984  0.1348  0.0044
10404TIP3    H155407   6.193   0.489   9.806 -0.3609  0.3738  0.8016
10404TIP3    H255408   6.042   0.496   9.804 -0.4020 -0.2916 -0.8403
10405TIP3   OH255409   4.793   5.456   9.515  0.1522  0.0671  0.0722
10405TIP3    H155410   4.888   5.443   9.517 -0.0324 -1.4650  1.0939
10405TIP3    H255411   4.757   5.369   9.501 -1.1227  0.4141  0.9432
10406TIP3   OH255412   6.010   3.168   9.219 -0.5701 -0.0030  0.6629
10406TIP3    H155413   5.924   3.131   9.243 -0.8041  0.4445  0.5180
10406TIP3    H255414   6.069   3.139   9.288 -0.6441 -1.0575  0.3158
10407TIP3   OH255415   2.865   0.586  11.831  0.0396 -0.1527 -0.2447
10407TIP3    H155416   2.851   0.680  11.827 -0.9652 -0.1938  1.3175
10407TIP3    H255417   2.781   0.548  11.805 -0.4069 -0.5503  1.6456
10408TIP3   OH255418   5.292   1.322  11.272 -0.3434 -0.1637 -0.2391
10408TIP3    H155419   5.289   1.412  11.305  0.1084 -0.0491 -0.4958
10408TIP3    H255420   5.201   1.295  11.267 -0.4154 -0.5871  2.2078
10409TIP3   OH255421   6.121   2.733   9.279 -0.3360 -0.2320  0.5654
10409TIP3    H155422   6.111   2.666   9.212 -0.5822 -1.2983  1.6268
10409TIP3    H255423   6.189   2.698   9.337  0.7289  1.2071  0.2545
10410TIP3   OH255424   5.633   6.682  12.114 -0.6246 -0.7581  0.5331
10410TIP3    H155425   5.570   6.747  12.146 -0.2020 -1.0832  2.0663
10410TIP3    H255426   5.717   6.710  12.150 -0.1301 -1.1911 -0.2440
10411TIP3   OH255427   1.925   4.225  11.051  0.4466  0.3131  0.0393
10411TIP3    H155428   1.943   4.134  11.077  0.4748 -0.0768 -1.2587
10411TIP3    H255429   1.982   4.239  10.975 -0.5214  0.9777 -0.5747
10412TIP3   OH255430   6.348   3.064  10.081 -0.1344 -0.1149  0.2083
10412TIP3    H155431   6.317   2.986  10.127 -1.8993 -0.2641 -1.1302
10412TIP3    H255432   6.282   3.131  10.099 -2.7163 -1.0152 -4.3764
10413TIP3   OH255433   5.029   1.225  11.386  0.0322 -0.2595  0.0793
10413TIP3    H155434   5.016   1.296  11.449  0.7810  1.2687 -1.4019
10413TIP3    H255435   5.017   1.266  11.301  0.6899 -1.8891 -0.8519
10414TIP3   OH255436   5.210   5.420   9.764 -0.3633  0.2343 -0.1599
10414TIP3    H155437   5.149   5.353   9.793  0.1489  0.3749  1.3023
10414TIP3    H255438   5.255   5.381   9.689  0.0439 -1.1263  0.7680
10415TIP3   OH255439   2.425   5.756  11.537  0.2995  0.5655  0.3960
10415TIP3    H155440   2.346   5.712  11.504 -0.1637  0.4592  1.5965
10415TIP3    H255441   2.404   5.779  11.627  0.8807  2.4345  0.1003
10416TIP3   OH255442   2.967   0.607   9.220 -0.1528 -0.1728 -0.3677
10416TIP3    H155443   2.994   0.584   9.309 -0.4303 -0.5182 -0.3691
10416TIP3    H255444   3.018   0.549   9.164  1.9101  1.7462 -0.6006
10417TIP3   OH255445   3.378   3.412  10.879  0.6927 -0.3563 -0.8012
10417TIP3    H155446   3.337   3.497  10.895  1.6840 -0.2630  1.7526
10417TIP3    H255447   3.442   3.429  10.811  1.5203  1.2192  0.3006
10418TIP3   OH255448   4.810   1.566   9.987 -0.1876  0.3818 -0.4837
10418TIP3    H155449   4.870   1.618  10.041 -0.7621 -0.1657  0.7163
10418TIP3    H255450   4.863   1.540   9.911  0.9514  0.3309  0.2956
10419TIP3   OH255451   5.702   1.048  12.010 -0.2498  0.7658  0.6125
10419TIP3    H155452   5.783   1.100  12.015 -0.3157  0.9017  0.2911
10419TIP3    H255453   5.653   1.074  12.088 -0.1342  0.9391  0.6297
10420TIP3   OH255454   1.645   1.249  12.986  0.4522  0.0175 -0.0469
10420TIP3    H155455   1.629   1.296  12.904  0.1522 -0.7097 -0.4134
10420TIP3    H255456   1.656   1.157  12.960 -1.9830 -0.6412  0.9139
10421TIP3   OH255457   0.769   0.161   9.830 -0.2514 -0.1760  0.2461
10421TIP3    H155458   0.777   0.077   9.876  1.3544  0.8846  2.0047
10421TIP3    H255459   0.742   0.223   9.897 -0.3001  0.9575 -0.7839
10422TIP3   OH255460   5.782   2.778  11.240 -0.5586  0.1467  0.5491
10422TIP3    H155461   5.785   2.834  11.318  1.8806  0.3097  0.3925
10422TIP3    H255462   5.805   2.836  11.167  2.7243 -1.0678  0.4605
10423TIP3   OH255463   4.168   5.678   9.341 -0.0797  0.2319 -0.3289
10423TIP3    H155464   4.124   5.622   9.405  1.2161  0.1782  0.5494
10423TIP3    H255465   4.111   5.755   9.333  0.7824  1.2892  2.6172
10424TIP3   OH255466   2.726   0.958   9.266  0.3618 -0.4299 -0.0456
10424TIP3    H155467   2.748   1.042   9.227  1.6639 -0.8035 -0.1814
10424TIP3    H255468   2.745   0.969   9.360  2.0825 -1.0115 -0.2861
10425TIP3   OH255469   0.423   3.632   8.973 -0.1055  0.4780  0.8651
10425TIP3    H155470   0.463   3.553   8.937  0.0875  1.1749 -0.5613
10425TIP3    H255471   0.490   3.700   8.961 -0.1166  0.8034  2.4133
10426TIP3   OH255472   0.868   5.550  10.059  0.1659  0.3256  0.2428
10426TIP3    H155473   0.882   5.560   9.965 -0.4266 -0.9462  0.0009
10426TIP3    H255474   0.956   5.549  10.097  0.5395 -1.4970 -0.5780
10427TIP3   OH255475   1.960   2.195   8.686  0.4594 -0.3707 -0.0359
10427TIP3    H155476   1.935   2.287   8.682  0.4317 -0.3820 -0.1204
10427TIP3    H255477   2.011   2.187   8.766 -0.4527 -0.4977  0.5552
10428TIP3   OH255478   3.075   3.003   9.739 -0.0715 -0.4331 -0.7739
10428TIP3    H155479   3.161   2.999   9.782  0.1728  1.1254 -1.0587
10428TIP3    H255480   3.071   3.091   9.703 -1.8914 -0.4106 -0.5773
10429TIP3   OH255481   4.837   4.792  11.626  0.3295 -0.2957  0.0984
10429TIP3    H155482   4.912   4.794  11.686 -1.2243 -0.5734  2.1749
10429TIP3    H255483   4.860   4.725  11.561  1.4379 -1.1758  1.3433
10430TIP3   OH255484   5.556   6.011  11.475  0.1987 -0.6502 -0.5388
10430TIP3    H155485   5.552   6.088  11.419  1.6341 -0.7623 -0.8191
10430TIP3    H255486   5.577   6.045  11.562 -0.9283 -0.5800 -0.2793
10431TIP3   OH255487   3.928   3.397   8.592 -0.5519 -0.2416  0.3537
10431TIP3    H155488   3.942   3.488   8.615  0.5025 -0.4185  0.4625
10431TIP3    H255489   3.838   3.394   8.560  0.4826  1.6202 -3.3394
10432TIP3   OH255490   3.333   5.436   9.953 -0.2918  0.4032  0.8260
10432TIP3    H155491   3.295   5.517   9.922 -0.1920  0.9220  1.9970
10432TIP3    H255492   3.333   5.378   9.877 -0.0544  1.6019 -0.1139
10433TIP3   OH255493   1.189   2.307   9.308 -0.6231 -0.0280  0.1740
10433TIP3    H155494   1.124   2.368   9.343 -1.3051 -2.0631  2.7578
10433TIP3    H255495   1.139   2.246   9.254 -0.5953 -0.6368  0.8332
10434TIP3   OH255496   5.249   0.432  10.831 -0.1894 -0.3422 -0.1285
10434TIP3    H155497   5.226   0.339  10.835 -1.4123 -0.0963 -1.0323
10434TIP3    H255498   5.255   0.459  10.923 -0.1609 -1.2281  0.1421
10435TIP3   OH255499   2.744   0.739   8.796  0.3090  0.4454 -0.0455
10435TIP3    H155500   2.730   0.833   8.800 -3.2883 -0.0062  1.9668
10435TIP3    H255501   2.767   0.714   8.885  0.5889 -0.6582 -0.4051
10436TIP3   OH255502   6.115   0.852  12.562  1.0447 -0.0173  0.6201
10436TIP3    H155503   6.055   0.834  12.635  0.0101 -0.5088 -0.3298
10436TIP3    H255504   6.100   0.944  12.541  0.6564 -0.1212  0.4280
10437TIP3   OH255505   6.064   6.152  10.520  0.3245 -0.4372 -0.2417
10437TIP3    H155506   6.130   6.178  10.583  1.3970 -0.9599 -1.1147
10437TIP3    H255507   5.983   6.191  10.552  1.0129  0.0432  0.9588
10438TIP3   OH255508   5.363   0.504  12.174 -0.0623  0.1701 -0.1134
10438TIP3    H155509   5.358   0.484  12.267 -0.2655  1.5634  0.2008
10438TIP3    H255510   5.456   0.500  12.153  0.0552  0.5636  0.3240
10439TIP3   OH255511   6.427   4.694  10.531  0.0492 -0.3175  0.1739
10439TIP3    H155512   6.397   4.660  10.447  0.9486  1.4800 -0.9152
10439TIP3    H255513   6.352   4.742  10.565 -0.4777 -1.4406  0.6802
   6.74939   6.74939  30.00000
